<event>
12    1  0.9873238E-001  0.1765262E+03  0.7818608E-02  0.1171256E+00
         21   -1    0    0  501  502  0.00000000000E+00  0.00000000000E+00  0.97567030141E+02  0.97567030141E+02  0.00000000000E+00 0.  1.
         21   -1    0    0  502  503 -0.00000000000E+00 -0.00000000000E+00 -0.31909938866E+03  0.31909938866E+03  0.00000000000E+00 0.  1.
         -6    2    1    2    0  503 -0.33425729819E+02 -0.16041705393E+02 -0.11374178043E+03  0.20999686257E+03  0.17258874224E+03 0.  0.
        -24    2    3    3    0    0 -0.32780980113E+02 -0.54851404346E+02 -0.17031696538E+02  0.10568224825E+03  0.82434153673E+02 0.  0.
          6    2    1    2  501    0  0.33425729819E+02  0.16041705393E+02 -0.10779057809E+03  0.20666955623E+03  0.17239165009E+03 0.  0.
         24    2    5    5    0    0  0.80475806662E+02 -0.19382563576E+02 -0.43554949862E+02  0.11939473456E+03  0.74202626340E+02 0.  0.
          5    1    5    5  501    0 -0.47050076843E+02  0.35424268969E+02 -0.64235628226E+02  0.87274821664E+02  0.47000000000E+01 0. -1.
        -13    1    6    6    0    0  0.58943984707E+02  0.15970182687E+02 -0.25392701478E+01  0.61121910647E+02  0.00000000000E+00 0.  1.
         14    1    6    6    0    0  0.21531821954E+02 -0.35352746263E+02 -0.41015679714E+02  0.58272823918E+02  0.00000000000E+00 0. -1.
         -5    1    3    3    0  503 -0.64474970578E+00  0.38809698953E+02 -0.96710083889E+02  0.10431461432E+03  0.47000000000E+01 0.  1.
         11    1    4    4    0    0 -0.44093268693E+02 -0.30646350512E+02 -0.42720265639E+02  0.68618046023E+02  0.00000000000E+00 0. -1.
        -12    1    4    4    0    0  0.11312288580E+02 -0.24205053834E+02  0.25688569101E+02  0.37064202224E+02  0.00000000000E+00 0.  1.
</event>
<event>
12    1  0.9873238E-001  0.1797803E+03  0.7818608E-02  0.1169817E+00
         21   -1    0    0  503  502  0.00000000000E+00  0.00000000000E+00  0.10217690747E+03  0.10217690747E+03  0.00000000000E+00 0. -1.
         21   -1    0    0  501  503 -0.00000000000E+00 -0.00000000000E+00 -0.57120341911E+03  0.57120341911E+03  0.00000000000E+00 0. -1.
          6    2    1    2  501    0  0.37291388433E+02  0.32400220838E+02 -0.46234014157E+03  0.49347569263E+03  0.16528590609E+03 0.  0.
         24    2    3    3    0    0 -0.18050102723E+02  0.51098818405E+02 -0.38319061450E+03  0.39499190804E+03  0.79035845779E+02 0.  0.
         -6    2    1    2    0  502 -0.37291388433E+02 -0.32400220838E+02 -0.66863700695E+01  0.17990463394E+03  0.17285990804E+03 0.  0.
        -24    2    5    5    0    0 -0.41280134640E+02  0.45971648482E+02 -0.12747209049E+02  0.10105741607E+03  0.78947248359E+02 0.  0.
          5    1    3    3  501    0  0.55341491157E+02 -0.18698597568E+02 -0.79149527064E+02  0.98483784599E+02  0.47000000000E+01 0. -1.
        -13    1    4    4    0    0  0.31058559902E+02  0.22852878318E+02 -0.13366096978E+03  0.13911198019E+03  0.00000000000E+00 0.  1.
         14    1    4    4    0    0 -0.49108662625E+02  0.28245940087E+02 -0.24952964473E+03  0.25587992785E+03  0.00000000000E+00 0. -1.
         -5    1    5    5    0  502  0.39887462070E+01 -0.78371869320E+02  0.60608389799E+01  0.78847217872E+02  0.47000000000E+01 0.  1.
         11    1    6    6    0    0  0.11772709003E+02 -0.42275728990E+01 -0.24089785516E+02  0.27143817272E+02  0.00000000000E+00 0. -1.
        -12    1    6    6    0    0 -0.53052843643E+02  0.50199221381E+02  0.11342576467E+02  0.73913598795E+02  0.00000000000E+00 0.  1.
</event>
<event>
12    1  0.9873238E-001  0.1733398E+03  0.7818608E-02  0.1174519E+00
         21   -1    0    0  503  502  0.00000000000E+00  0.00000000000E+00  0.24480631084E+03  0.24480631084E+03  0.00000000000E+00 0.  1.
         21   -1    0    0  501  503 -0.00000000000E+00 -0.00000000000E+00 -0.19281328359E+03  0.19281328359E+03  0.00000000000E+00 0.  1.
          6    2    1    2  501    0 -0.15864886219E+02  0.16197801831E+02  0.15821602398E+03  0.23468918075E+03  0.17185062677E+03 0.  0.
         24    2    3    3    0    0 -0.31880728585E+02  0.68313151171E+02  0.66118864367E+02  0.12756078278E+03  0.78847838274E+02 0.  0.
         -6    2    1    2    0  502  0.15864886219E+02 -0.16197801831E+02 -0.10622299673E+03  0.20293041368E+03  0.17141576462E+03 0.  0.
        -24    2    5    5    0    0 -0.13197864206E+01 -0.83430058125E+01  0.13272995468E+02  0.81858563331E+02  0.80332461681E+02 0.  0.
          5    1    3    3  501    0  0.16015842366E+02 -0.52115349340E+02  0.92097159613E+02  0.10712839797E+03  0.47000000000E+01 0. -1.
        -13    1    4    4    0    0  0.20997580035E+02  0.29283997409E+02  0.46786323452E+02  0.59054304955E+02  0.00000000000E+00 0.  1.
         14    1    4    4    0    0 -0.52878308620E+02  0.39029153762E+02  0.19332540915E+02  0.68506477826E+02  0.00000000000E+00 0. -1.
         -5    1    5    5    0  502  0.17184672640E+02 -0.78547960188E+01 -0.11949599220E+03  0.12107185035E+03  0.47000000000E+01 0.  1.
         11    1    6    6    0    0 -0.40385865159E+02 -0.55829572340E+01  0.12659973934E+02  0.42690308691E+02  0.00000000000E+00 0. -1.
        -12    1    6    6    0    0  0.39066078738E+02 -0.27600485784E+01  0.61302153419E+00  0.39168254640E+02  0.00000000000E+00 0.  1.
</event>
<event>
12    1  0.9873238E-001  0.5517198E+03  0.7818608E-02  0.1001159E+00
         21   -1    0    0  503  502  0.00000000000E+00  0.00000000000E+00  0.13104611496E+04  0.13104611496E+04  0.00000000000E+00 0.  1.
         21   -1    0    0  501  503 -0.00000000000E+00 -0.00000000000E+00 -0.53498326696E+03  0.53498326696E+03  0.00000000000E+00 0. -1.
          6    2    1    2  501    0 -0.52072409844E+03 -0.51557977120E+02  0.10825009835E+04  0.12149910070E+04  0.17487983367E+03 0.  0.
         24    2    3    3    0    0 -0.45008060702E+03 -0.10514370814E+02  0.80771218836E+03  0.92827502836E+03  0.81316937003E+02 0.  0.
         -6    2    1    2    0  502  0.52072409844E+03  0.51557977120E+02 -0.30702310085E+03  0.63045340952E+03  0.17145409129E+03 0.  0.
        -24    2    5    5    0    0  0.14211396507E+03  0.42731083282E+02 -0.75073143649E+02  0.18632908032E+03  0.84025143428E+02 0.  0.
          5    1    3    3  501    0 -0.70643491412E+02 -0.41043606306E+02  0.27478879512E+03  0.28671597867E+03  0.47000000000E+01 0. -1.
        -13    1    4    4    0    0 -0.31619166044E+03  0.20414770964E+02  0.61173232157E+03  0.68891970668E+03  0.00000000000E+00 0.  1.
         14    1    4    4    0    0 -0.13388894658E+03 -0.30929141777E+02  0.19597986679E+03  0.23935532168E+03  0.00000000000E+00 0. -1.
         -5    1    5    5    0  502  0.37861013337E+03  0.88268938377E+01 -0.23194995720E+03  0.44412432920E+03  0.47000000000E+01 0.  1.
         11    1    6    6    0    0  0.96020339591E+02 -0.14297357418E+02 -0.46362371721E+02  0.10758154840E+03  0.00000000000E+00 0. -1.
        -12    1    6    6    0    0  0.46093625477E+02  0.57028440700E+02 -0.28710771928E+02  0.78747531917E+02  0.00000000000E+00 0.  1.
</event>
<event>
12    1  0.9873238E-001  0.2244737E+03  0.7818608E-02  0.1130962E+00
         21   -1    0    0  501  502  0.00000000000E+00  0.00000000000E+00  0.56709220144E+03  0.56709220144E+03  0.00000000000E+00 0.  1.
         21   -1    0    0  502  503 -0.00000000000E+00 -0.00000000000E+00 -0.88086169067E+02  0.88086169067E+02  0.00000000000E+00 0.  1.
         -6    2    1    2    0  503  0.13958570277E+03 -0.24277393919E+02  0.23396694781E+03  0.32423600213E+03  0.17411172314E+03 0.  0.
        -24    2    3    3    0    0  0.11003915058E+03 -0.72840404998E+02  0.11452746946E+03  0.19187572190E+03  0.79280591161E+02 0.  0.
          6    2    1    2  501    0 -0.13958570277E+03  0.24277393919E+02  0.24503908456E+03  0.33094236838E+03  0.17147926392E+03 0.  0.
         24    2    5    5    0    0 -0.25282057498E+02 -0.39964807590E+02  0.11008766744E+03  0.14272345658E+03  0.77552061600E+02 0.  0.
          5    1    5    5  501    0 -0.11430364527E+03  0.64242201509E+02  0.13495141712E+03  0.18821891180E+03  0.47000000000E+01 0. -1.
        -11    1    6    6    0    0 -0.12158313668E+02  0.21283143916E+02  0.51135523338E+02  0.56706600615E+02  0.00000000000E+00 0.  1.
         12    1    6    6    0    0 -0.13123743830E+02 -0.61247951506E+02  0.58952144102E+02  0.86016855964E+02  0.00000000000E+00 0. -1.
         -5    1    3    3    0  503  0.29546552182E+02  0.48563011079E+02  0.11943947836E+03  0.13236028022E+03  0.47000000000E+01 0.  1.
         13    1    4    4    0    0  0.11399218391E+03 -0.40602223124E+02  0.84029679170E+02  0.14732191112E+03  0.00000000000E+00 0. -1.
        -14    1    4    4    0    0 -0.39530333247E+01 -0.32238181874E+02  0.30497790287E+02  0.44553810784E+02  0.00000000000E+00 0.  1.
</event>
<event>
12    1  0.9873238E-001  0.2121103E+03  0.7818608E-02  0.1140016E+00
         21   -1    0    0  503  502  0.00000000000E+00  0.00000000000E+00  0.17657847637E+04  0.17657847637E+04  0.00000000000E+00 0. -1.
         21   -1    0    0  501  503 -0.00000000000E+00 -0.00000000000E+00 -0.33513743330E+02  0.33513743330E+02  0.00000000000E+00 0. -1.
          6    2    1    2  501    0  0.28024379094E+01  0.12234646065E+03  0.42291652666E+03  0.47287475345E+03  0.17255617588E+03 0.  0.
         24    2    3    3    0    0  0.18155614646E+02 -0.55225384722E+01  0.13452331957E+03  0.15699671865E+03  0.78684950177E+02 0.  0.
         -6    2    1    2    0  502 -0.28024379094E+01 -0.12234646065E+03  0.13093544937E+04  0.13264237536E+04  0.17324628068E+03 0.  0.
        -24    2    5    5    0    0 -0.34102736541E+01 -0.45459644600E+02  0.34349327987E+03  0.35749551767E+03  0.87961369837E+02 0.  0.
          5    1    3    3  501    0 -0.15353176737E+02  0.12786899913E+03  0.28839320709E+03  0.31587803480E+03  0.47000000000E+01 0. -1.
        -11    1    4    4    0    0  0.23841226268E+02  0.62415850899E+00  0.14306284556E+03  0.14503713808E+03  0.00000000000E+00 0.  1.
         12    1    4    4    0    0 -0.56856116219E+01 -0.61466969811E+01 -0.85395259875E+01  0.11959580569E+02  0.00000000000E+00 0. -1.
         -5    1    5    5    0  502  0.60783574472E+00 -0.76886816055E+02  0.96586121384E+03  0.96892823591E+03  0.47000000000E+01 0.  1.
         13    1    6    6    0    0  0.18412819232E+02 -0.64331898459E+02  0.19325191202E+03  0.20450898897E+03  0.00000000000E+00 0. -1.
        -14    1    6    6    0    0 -0.21823092886E+02  0.18872253858E+02  0.15024136785E+03  0.15298652870E+03  0.00000000000E+00 0.  1.
</event>
<event>
12    1  0.9873238E-001  0.2448924E+03  0.7818608E-02  0.1116584E+00
         21   -1    0    0  503  502  0.00000000000E+00  0.00000000000E+00  0.33648720898E+03  0.33648720898E+03  0.00000000000E+00 0. -1.
         21   -1    0    0  501  503 -0.00000000000E+00 -0.00000000000E+00 -0.18447469556E+03  0.18447469556E+03  0.00000000000E+00 0. -1.
          6    2    1    2  501    0 -0.14354919045E+03 -0.98804557841E+02  0.27932560998E+02  0.24642938628E+03  0.17198402172E+03 0.  0.
         24    2    3    3    0    0 -0.16132774655E+03 -0.60488769828E+02  0.52607284049E+02  0.19728563158E+03  0.80427364811E+02 0.  0.
         -6    2    1    2    0  502  0.14354919045E+03  0.98804557841E+02  0.12407995243E+03  0.27453251827E+03  0.17205684602E+03 0.  0.
        -24    2    5    5    0    0  0.13174360620E+03  0.15649144232E+02  0.10799041632E+03  0.18888698246E+03  0.80094248457E+02 0.  0.
          5    1    3    3  501    0  0.17778556100E+02 -0.38315788013E+02 -0.24674723051E+02  0.49143754697E+02  0.47000000000E+01 0. -1.
        -13    1    4    4    0    0 -0.47836191246E+02 -0.59871051476E+02  0.20006732501E+02  0.79202988221E+02  0.00000000000E+00 0.  1.
         14    1    4    4    0    0 -0.11349155530E+03 -0.61771835213E+00  0.32600551548E+02  0.11808264336E+03  0.00000000000E+00 0. -1.
         -5    1    5    5    0  502  0.11805584251E+02  0.83155413608E+02  0.16089536107E+02  0.85645535809E+02  0.47000000000E+01 0.  1.
         11    1    6    6    0    0  0.41454010715E+02  0.29998771823E+01 -0.69906218516E+01  0.42146210522E+02  0.00000000000E+00 0. -1.
        -12    1    6    6    0    0  0.90289595483E+02  0.12649267050E+02  0.11498103817E+03  0.14674077194E+03  0.00000000000E+00 0.  1.
</event>
<event>
12    1  0.9873238E-001  0.4529762E+03  0.7818608E-02  0.1026861E+00
         21   -1    0    0  503  502  0.00000000000E+00  0.00000000000E+00  0.50372027855E+03  0.50372027855E+03  0.00000000000E+00 0. -1.
         21   -1    0    0  501  503 -0.00000000000E+00 -0.00000000000E+00 -0.42031108301E+03  0.42031108301E+03  0.00000000000E+00 0.  1.
          6    2    1    2  501    0 -0.32763137782E+03 -0.26054632713E+03 -0.40319756918E+02  0.45446103186E+03  0.17228592040E+03 0.  0.
         24    2    3    3    0    0 -0.30939319338E+03 -0.18717612974E+03 -0.61627916106E+02  0.37577211978E+03  0.81533025841E+02 0.  0.
         -6    2    1    2    0  502  0.32763137782E+03  0.26054632713E+03  0.12372895246E+03  0.46957032970E+03  0.17309168827E+03 0.  0.
        -24    2    5    5    0    0  0.33096499141E+03  0.22039553321E+03  0.13489046394E+03  0.42750052378E+03  0.80307185025E+02 0.  0.
          5    1    3    3  501    0 -0.18238184437E+02 -0.73370197391E+02  0.21308159188E+02  0.78688912082E+02  0.47000000000E+01 0. -1.
        -13    1    4    4    0    0 -0.93702284737E+02 -0.80598880625E+02 -0.54503977142E+02  0.13508138749E+03  0.00000000000E+00 0.  1.
         14    1    4    4    0    0 -0.21569090864E+03 -0.10657724912E+03 -0.71239389646E+01  0.24069073228E+03  0.00000000000E+00 0. -1.
         -5    1    5    5    0  502 -0.33336135964E+01  0.40150793924E+02 -0.11161511482E+02  0.42069805929E+02  0.47000000000E+01 0.  1.
         13    1    6    6    0    0  0.14430088822E+03  0.59500769130E+02  0.78412563226E+02  0.17467575086E+03  0.00000000000E+00 0. -1.
        -14    1    6    6    0    0  0.18666410320E+03  0.16089476408E+03  0.56477900716E+02  0.25282477291E+03  0.00000000000E+00 0.  1.
</event>
<event>
12    1  0.9873238E-001  0.2871300E+03  0.7818608E-02  0.1093536E+00
         21   -1    0    0  503  502  0.00000000000E+00  0.00000000000E+00  0.34627852749E+03  0.34627852749E+03  0.00000000000E+00 0.  1.
         21   -1    0    0  501  503 -0.00000000000E+00 -0.00000000000E+00 -0.41129156954E+03  0.41129156954E+03  0.00000000000E+00 0.  1.
          6    2    1    2  501    0  0.10348226486E+03  0.19685522097E+03  0.22078420077E+03  0.35244828050E+03  0.16128722813E+03 0.  0.
         24    2    3    3    0    0  0.11311509878E+03  0.12651471766E+03  0.20778029980E+03  0.28011730972E+03  0.80573288746E+02 0.  0.
         -6    2    1    2    0  502 -0.10348226486E+03 -0.19685522097E+03 -0.28579724281E+03  0.40512181653E+03  0.18161240339E+03 0.  0.
        -24    2    5    5    0    0 -0.14028955522E+03 -0.13863634867E+03 -0.24672797640E+03  0.32579520502E+03  0.79791132340E+02 0.  0.
          5    1    3    3  501    0 -0.96328339259E+01  0.70340503301E+02  0.13003900963E+02  0.72330970783E+02  0.47000000000E+01 0. -1.
        -13    1    4    4    0    0  0.94698529943E+01 -0.41643711084E+01  0.48143061454E+02  0.49241999032E+02  0.00000000000E+00 0.  1.
         14    1    4    4    0    0  0.10364524579E+03  0.13067908877E+03  0.15963723835E+03  0.23087531069E+03  0.00000000000E+00 0. -1.
         -5    1    5    5    0  502  0.36807290358E+02 -0.58218872299E+02 -0.39069266407E+02  0.79326611505E+02  0.47000000000E+01 0.  1.
         11    1    6    6    0    0 -0.13055598229E+03 -0.14822884160E+03 -0.23912354853E+03  0.31015596956E+03  0.00000000000E+00 0. -1.
        -12    1    6    6    0    0 -0.97335729249E+01  0.95924929288E+01 -0.76044278725E+01  0.15639235459E+02  0.00000000000E+00 0.  1.
</event>
<event>
12    1  0.9873238E-001  0.2140538E+03  0.7818608E-02  0.1138806E+00
         21   -1    0    0  503  502  0.00000000000E+00  0.00000000000E+00  0.25391664515E+03  0.25391664515E+03  0.00000000000E+00 0.  1.
         21   -1    0    0  501  503 -0.00000000000E+00 -0.00000000000E+00 -0.20810106841E+03  0.20810106841E+03  0.00000000000E+00 0.  1.
          6    2    1    2  501    0 -0.13003312311E+03  0.12911562512E+02  0.10968060615E+03  0.23863964101E+03  0.16686438010E+03 0.  0.
         24    2    3    3    0    0 -0.10393732646E+03 -0.43572071097E+02  0.37362847606E+02  0.14312346610E+03  0.79917776222E+02 0.  0.
         -6    2    1    2    0  502  0.13003312311E+03 -0.12911562512E+02 -0.63865029414E+02  0.22337807255E+03  0.16953967017E+03 0.  0.
        -24    2    5    5    0    0  0.20482822570E+02  0.38685927754E+02 -0.14405818902E+02  0.92489292074E+02  0.80190987670E+02 0.  0.
          5    1    3    3  501    0 -0.26095796646E+02  0.56483633609E+02  0.72317758543E+02  0.95516174907E+02  0.47000000000E+01 0. -1.
        -11    1    4    4    0    0 -0.64346841836E+02 -0.87123342459E+01  0.57428111977E+02  0.86685690096E+02  0.00000000000E+00 0.  1.
         12    1    4    4    0    0 -0.39590484628E+02 -0.34859736851E+02 -0.20065264371E+02  0.56437776008E+02  0.00000000000E+00 0. -1.
         -5    1    5    5    0  502  0.10955030054E+03 -0.51597490266E+02 -0.49459210512E+02  0.13088878048E+03  0.47000000000E+01 0.  1.
         13    1    6    6    0    0 -0.25501368500E+01  0.11972758406E+02  0.31964605093E+02  0.34228440229E+02  0.00000000000E+00 0. -1.
        -14    1    6    6    0    0  0.23032959420E+02  0.26713169348E+02 -0.46370423994E+02  0.58260851845E+02  0.00000000000E+00 0.  1.
</event>
<event>
12    1  0.9873238E-001  0.2734974E+03  0.7818608E-02  0.1099570E+00
         21   -1    0    0  501  502  0.00000000000E+00  0.00000000000E+00  0.11326398040E+04  0.11326398040E+04  0.00000000000E+00 0.  1.
         21   -1    0    0  502  503 -0.00000000000E+00 -0.00000000000E+00 -0.86032701520E+02  0.86032701520E+02  0.00000000000E+00 0. -1.
         -6    2    1    2    0  503  0.33959640207E+02 -0.20737317585E+03  0.22470999908E+03  0.35246485443E+03  0.17198836792E+03 0.  0.
        -24    2    3    3    0    0 -0.83850498755E+01 -0.46967131924E+02  0.12952516461E+03  0.16113943945E+03  0.83144032474E+02 0.  0.
          6    2    1    2  501    0 -0.33959640207E+02  0.20737317585E+03  0.82189710337E+03  0.86620765106E+03  0.17505414876E+03 0.  0.
         24    2    5    5    0    0 -0.70898183058E+02  0.18157387976E+03  0.76564151586E+03  0.79397995033E+03  0.78750266932E+02 0.  0.
          5    1    5    5  501    0  0.36938542851E+02  0.25799296089E+02  0.56255587512E+02  0.72227700731E+02  0.47000000000E+01 0. -1.
        -11    1    6    6    0    0 -0.41424417317E+02  0.11519302328E+03  0.32299729289E+03  0.34541665591E+03  0.00000000000E+00 0.  1.
         12    1    6    6    0    0 -0.29473765742E+02  0.66380856475E+02  0.44264422297E+03  0.44856329442E+03  0.00000000000E+00 0. -1.
         -5    1    3    3    0  503  0.42344690083E+02 -0.16040604392E+03  0.95184834465E+02  0.19132541498E+03  0.47000000000E+01 0.  1.
         13    1    4    4    0    0 -0.29713722308E+01 -0.35181860737E+01 -0.12075520138E+02  0.12923810305E+02  0.00000000000E+00 0. -1.
        -14    1    4    4    0    0 -0.54136776447E+01 -0.43448945850E+02  0.14160068475E+03  0.14821562915E+03  0.00000000000E+00 0.  1.
</event>
<event>
12    1  0.9873238E-001  0.1895714E+03  0.7818608E-02  0.1159831E+00
         21   -1    0    0  503  502  0.00000000000E+00  0.00000000000E+00  0.12407764246E+04  0.12407764246E+04  0.00000000000E+00 0.  1.
         21   -1    0    0  501  503 -0.00000000000E+00 -0.00000000000E+00 -0.28699978007E+02  0.28699978007E+02  0.00000000000E+00 0.  1.
          6    2    1    2  501    0 -0.79477674878E+02 -0.60302864124E+01  0.68674559963E+03  0.71243024308E+03  0.17200077757E+03 0.  0.
         24    2    3    3    0    0 -0.95182904148E+02 -0.25755323016E+02  0.30617317143E+03  0.33099454155E+03  0.78052890573E+02 0.  0.
         -6    2    1    2    0  502  0.79477674878E+02  0.60302864124E+01  0.52533084700E+03  0.55704615956E+03  0.16725686807E+03 0.  0.
        -24    2    5    5    0    0  0.77999058067E+02  0.36016113912E+02  0.50934107758E+03  0.52270815023E+03  0.80090345792E+02 0.  0.
          5    1    3    3  501    0  0.15705229270E+02  0.19725036603E+02  0.38057242820E+03  0.38143570153E+03  0.47000000000E+01 0. -1.
        -11    1    4    4    0    0 -0.42005809592E+01  0.12525610627E+02  0.11581765509E+03  0.11656871378E+03  0.00000000000E+00 0.  1.
         12    1    4    4    0    0 -0.90982323189E+02 -0.38280933643E+02  0.19035551634E+03  0.21442582777E+03  0.00000000000E+00 0. -1.
         -5    1    5    5    0  502  0.14786168110E+01 -0.29985827500E+02  0.15989769417E+02  0.34338009327E+02  0.47000000000E+01 0.  1.
         13    1    6    6    0    0  0.41805094994E+02 -0.51126196724E+00  0.79694057713E+02  0.89994834246E+02  0.00000000000E+00 0. -1.
        -14    1    6    6    0    0  0.36193963073E+02  0.36527375879E+02  0.42964701987E+03  0.43271331599E+03  0.00000000000E+00 0.  1.
</event>
<event>
12    1  0.9873238E-001  0.1827165E+03  0.7818608E-02  0.1165209E+00
         21   -1    0    0  501  502  0.00000000000E+00  0.00000000000E+00  0.75654616026E+03  0.75654616026E+03  0.00000000000E+00 0.  1.
         21   -1    0    0  502  503 -0.00000000000E+00 -0.00000000000E+00 -0.44207017192E+02  0.44207017192E+02  0.00000000000E+00 0.  1.
         -6    2    1    2    0  503  0.57130825791E+01 -0.61023764141E+02  0.33826163608E+03  0.38443681809E+03  0.17208774958E+03 0.  0.
        -24    2    3    3    0    0  0.85114548440E+01 -0.31754862822E+02  0.60545288184E+02  0.10512881720E+03  0.79407305132E+02 0.  0.
          6    2    1    2  501    0 -0.57130825791E+01  0.61023764141E+02  0.37407750698E+03  0.41631635936E+03  0.17213015638E+03 0.  0.
         24    2    5    5    0    0 -0.61758600762E+02  0.71437686555E+02  0.21588018201E+03  0.24809616581E+03  0.77652988844E+02 0.  0.
          5    1    5    5  501    0  0.56045518183E+02 -0.10413922414E+02  0.15819732497E+03  0.16822019355E+03  0.47000000000E+01 0. -1.
        -13    1    6    6    0    0  0.16885607548E+02  0.14532848449E+01  0.32098659794E+02  0.36298205736E+02  0.00000000000E+00 0.  1.
         14    1    6    6    0    0 -0.78644208309E+02  0.69984401710E+02  0.18378152222E+03  0.21179796008E+03  0.00000000000E+00 0. -1.
         -5    1    3    3    0  503 -0.27983722649E+01 -0.29268901318E+02  0.27771634790E+03  0.27930800089E+03  0.47000000000E+01 0.  1.
         13    1    4    4    0    0  0.42727113751E+02 -0.26617035025E+02  0.27872747215E+02  0.57540966627E+02  0.00000000000E+00 0. -1.
        -14    1    4    4    0    0 -0.34215658907E+02 -0.51378277978E+01  0.32672540968E+02  0.47587850574E+02  0.00000000000E+00 0.  1.
</event>
<event>
12    1  0.9873238E-001  0.3687413E+03  0.7818608E-02  0.1055348E+00
         21   -1    0    0  501  502  0.00000000000E+00  0.00000000000E+00  0.20143090391E+03  0.20143090391E+03  0.00000000000E+00 0. -1.
         21   -1    0    0  502  503 -0.00000000000E+00 -0.00000000000E+00 -0.98331815862E+03  0.98331815862E+03  0.00000000000E+00 0. -1.
         -6    2    1    2    0  503  0.11941364198E+03 -0.30285719854E+03 -0.72505099395E+03  0.81343046352E+03  0.17317065154E+03 0.  0.
        -24    2    3    3    0    0  0.15430269861E+03 -0.22675232113E+03 -0.56818928002E+03  0.63556285563E+03  0.76649511366E+02 0.  0.
          6    2    1    2  501    0 -0.11941364198E+03  0.30285719854E+03 -0.56836260760E+02  0.37131859901E+03  0.16930753332E+03 0.  0.
         24    2    5    5    0    0 -0.26434572141E+02  0.23498978569E+03 -0.57735962111E+02  0.25610578455E+03  0.79609959020E+02 0.  0.
          5    1    5    5  501    0 -0.92979069836E+02  0.67867412845E+02  0.89970135108E+00  0.11521281446E+03  0.47000000000E+01 0. -1.
        -13    1    6    6    0    0 -0.33030942191E+02  0.75408732670E+02  0.93828829719E+01  0.82858666401E+02  0.00000000000E+00 0.  1.
         14    1    6    6    0    0  0.65963700507E+01  0.15958105302E+03 -0.67118845083E+02  0.17324711815E+03  0.00000000000E+00 0. -1.
         -5    1    3    3    0  503 -0.34889056633E+02 -0.76104877405E+02 -0.15686171393E+03  0.17786760788E+03  0.47000000000E+01 0.  1.
         11    1    4    4    0    0  0.73062526272E+02 -0.95845676720E+02 -0.33551855395E+03  0.35650697965E+03  0.00000000000E+00 0. -1.
        -12    1    4    4    0    0  0.81240172338E+02 -0.13090664441E+03 -0.23267072607E+03  0.27905587598E+03  0.00000000000E+00 0.  1.
</event>
<event>
12    1  0.9873238E-001  0.2508386E+03  0.7818608E-02  0.1112855E+00
         21   -1    0    0  503  502  0.00000000000E+00  0.00000000000E+00  0.65411708937E+03  0.65411708937E+03  0.00000000000E+00 0. -1.
         21   -1    0    0  501  503 -0.00000000000E+00 -0.00000000000E+00 -0.11189237204E+03  0.11189237204E+03  0.00000000000E+00 0. -1.
          6    2    1    2  501    0  0.16515993208E+03 -0.76583481297E+02  0.12699173037E+03  0.28115282393E+03  0.17256065036E+03 0.  0.
         24    2    3    3    0    0  0.17157982448E+03 -0.19921588240E+02  0.11708879480E+03  0.22308438779E+03  0.78869210481E+02 0.  0.
         -6    2    1    2    0  502 -0.16515993208E+03  0.76583481297E+02  0.41523298696E+03  0.48485663748E+03  0.17182750850E+03 0.  0.
        -24    2    5    5    0    0 -0.16388721484E+03  0.10982365070E+03  0.37683227875E+03  0.43383474941E+03  0.85380150186E+02 0.  0.
          5    1    3    3  501    0 -0.64198924007E+01 -0.56661893057E+02  0.99029355695E+01  0.58068436143E+02  0.47000000000E+01 0. -1.
        -13    1    4    4    0    0  0.37776578630E+02  0.24956506440E+02  0.11179128516E+02  0.46635501724E+02  0.00000000000E+00 0.  1.
         14    1    4    4    0    0  0.13380324585E+03 -0.44878094680E+02  0.10590966628E+03  0.17644888606E+03  0.00000000000E+00 0. -1.
         -5    1    5    5    0  502 -0.12727172374E+01 -0.33240169404E+02  0.38400708212E+02  0.51021888071E+02  0.47000000000E+01 0.  1.
         13    1    6    6    0    0 -0.87291566808E+02  0.76878086159E+02  0.13589895730E+03  0.17888148133E+03  0.00000000000E+00 0. -1.
        -14    1    6    6    0    0 -0.76595648032E+02  0.32945564543E+02  0.24093332144E+03  0.25495326807E+03  0.00000000000E+00 0.  1.
</event>
<event>
12    1  0.9873238E-001  0.1877301E+03  0.7818608E-02  0.1161474E+00
         21   -1    0    0  503  502  0.00000000000E+00  0.00000000000E+00  0.33249375659E+03  0.33249375659E+03  0.00000000000E+00 0. -1.
         21   -1    0    0  501  503 -0.00000000000E+00 -0.00000000000E+00 -0.10385783130E+03  0.10385783130E+03  0.00000000000E+00 0. -1.
          6    2    1    2  501    0 -0.26412284406E+02  0.58886180829E+02  0.10694873930E+03  0.21605699798E+03  0.17628783985E+03 0.  0.
         24    2    3    3    0    0 -0.55886470348E+02  0.90003793775E+02  0.11040621408E+03  0.17280104343E+03  0.80291270027E+02 0.  0.
         -6    2    1    2    0  502  0.26412284406E+02 -0.58886180829E+02  0.12168718598E+03  0.22029458991E+03  0.17192074933E+03 0.  0.
        -24    2    5    5    0    0  0.35996014914E+02 -0.92162771791E+02  0.38674364480E+02  0.13022573886E+03  0.75321623712E+02 0.  0.
          5    1    3    3  501    0  0.29474185942E+02 -0.31117612946E+02 -0.34574747732E+01  0.43255954552E+02  0.47000000000E+01 0. -1.
        -13    1    4    4    0    0 -0.42561452940E+02  0.38638854512E+01  0.19885985390E+02  0.47136602572E+02  0.00000000000E+00 0.  1.
         14    1    4    4    0    0 -0.13325017408E+02  0.86139908324E+02  0.90520228687E+02  0.12566444086E+03  0.00000000000E+00 0. -1.
         -5    1    5    5    0  502 -0.95837305078E+01  0.33276590962E+02  0.83012821503E+02  0.90068851055E+02  0.47000000000E+01 0.  1.
         11    1    6    6    0    0 -0.10941690165E+02 -0.73318139950E+00 -0.11472004415E+02  0.15870255950E+02  0.00000000000E+00 0. -1.
        -12    1    6    6    0    0  0.46937705078E+02 -0.91429590391E+02  0.50146368895E+02  0.11435548291E+03  0.00000000000E+00 0.  1.
</event>
<event>
12    1  0.9873238E-001  0.5811978E+03  0.7818608E-02  0.9945545E-01
         21   -1    0    0  503  502  0.00000000000E+00  0.00000000000E+00  0.22320422991E+03  0.22320422991E+03  0.00000000000E+00 0.  1.
         21   -1    0    0  501  503 -0.00000000000E+00 -0.00000000000E+00 -0.16316528411E+04  0.16316528411E+04  0.00000000000E+00 0.  1.
          6    2    1    2  501    0  0.37212868854E+02 -0.55332983857E+03 -0.45241781364E+03  0.73602474842E+03  0.17173189664E+03 0.  0.
         24    2    3    3    0    0  0.74233982248E+02 -0.43832431179E+03 -0.30286901150E+03  0.54371310486E+03  0.79091186875E+02 0.  0.
         -6    2    1    2    0  502 -0.37212868854E+02  0.55332983857E+03 -0.95603079759E+03  0.11188323226E+04  0.17387401287E+03 0.  0.
        -24    2    5    5    0    0 -0.18406222761E+02  0.51969446868E+03 -0.79585143128E+03  0.95401561402E+03  0.79656520795E+02 0.  0.
          5    1    3    3  501    0 -0.37021113394E+02 -0.11500552678E+03 -0.14954880214E+03  0.19231164356E+03  0.47000000000E+01 0. -1.
        -11    1    4    4    0    0 -0.16872635060E+02 -0.85176418193E+02 -0.57293717377E+02  0.10403017870E+03  0.00000000000E+00 0.  1.
         12    1    4    4    0    0  0.91106617307E+02 -0.35314789360E+03 -0.24557529412E+03  0.43968292615E+03  0.00000000000E+00 0. -1.
         -5    1    5    5    0  502 -0.18806646093E+02  0.33635369889E+02 -0.16017936631E+03  0.16481670861E+03  0.47000000000E+01 0.  1.
         11    1    6    6    0    0 -0.43378409816E+02  0.23280733483E+03 -0.32597520636E+03  0.40291534688E+03  0.00000000000E+00 0. -1.
        -12    1    6    6    0    0  0.24972187055E+02  0.28688713385E+03 -0.46987622492E+03  0.55110026714E+03  0.00000000000E+00 0.  1.
</event>
<event>
12    1  0.9873238E-001  0.2275246E+03  0.7818608E-02  0.1129051E+00
         21   -1    0    0  503  502  0.00000000000E+00  0.00000000000E+00  0.16540562279E+03  0.16540562279E+03  0.00000000000E+00 0. -1.
         21   -1    0    0  501  503 -0.00000000000E+00 -0.00000000000E+00 -0.31397714374E+03  0.31397714374E+03  0.00000000000E+00 0. -1.
          6    2    1    2  501    0  0.14653034257E+03 -0.17798388528E+02 -0.41742050765E+02  0.23132190136E+03  0.17314589028E+03 0.  0.
         24    2    3    3    0    0  0.22521980508E+02 -0.12312936511E+02 -0.65762829081E+02  0.10480213281E+03  0.77458952618E+02 0.  0.
         -6    2    1    2    0  502 -0.14653034257E+03  0.17798388528E+02 -0.10682947018E+03  0.24806086516E+03  0.16832627008E+03 0.  0.
        -24    2    5    5    0    0 -0.10238334021E+03 -0.38431279140E+02 -0.11345805694E+03  0.17611115004E+03  0.78632658072E+02 0.  0.
          5    1    3    3  501    0  0.12400836206E+03 -0.54854520171E+01  0.24020778316E+02  0.12651976856E+03  0.47000000000E+01 0. -1.
        -13    1    4    4    0    0  0.27335020664E+02 -0.40751243335E+02 -0.55753647748E+02  0.74272043362E+02  0.00000000000E+00 0.  1.
         14    1    4    4    0    0 -0.48130401555E+01  0.28438306824E+02 -0.10009181334E+02  0.30530089445E+02  0.00000000000E+00 0. -1.
         -5    1    5    5    0  502 -0.44147002358E+02  0.56229667669E+02  0.66285867614E+01  0.71949715119E+02  0.47000000000E+01 0.  1.
         13    1    6    6    0    0 -0.56284752674E+02  0.18231187712E+02 -0.67733528343E+02  0.89934311866E+02  0.00000000000E+00 0. -1.
        -14    1    6    6    0    0 -0.46098587537E+02 -0.56662466853E+02 -0.45724528600E+02  0.86176838178E+02  0.00000000000E+00 0.  1.
</event>
<event>
12    1  0.9873238E-001  0.1912913E+03  0.7818608E-02  0.1157768E+00
         21   -1    0    0  503  502  0.00000000000E+00  0.00000000000E+00  0.17759572971E+04  0.17759572971E+04  0.00000000000E+00 0. -1.
         21   -1    0    0  501  503 -0.00000000000E+00 -0.00000000000E+00 -0.54523592907E+02  0.54523592907E+02  0.00000000000E+00 0. -1.
          6    2    1    2  501    0  0.22488004445E+02 -0.77809460236E+02  0.15867184908E+04  0.15982077194E+04  0.17329836402E+03 0.  0.
         24    2    3    3    0    0 -0.34624296840E+02 -0.77275336694E+02  0.13263990094E+04  0.13316548680E+04  0.82462328172E+02 0.  0.
         -6    2    1    2    0  502 -0.22488004445E+02  0.77809460236E+02  0.13471521341E+03  0.23227317059E+03  0.17100472100E+03 0.  0.
        -24    2    5    5    0    0  0.11048163776E+02  0.47420060984E+02  0.15625653911E+03  0.18193125089E+03  0.79449039840E+02 0.  0.
          5    1    3    3  501    0  0.57112301285E+02 -0.53412354116E+00  0.26031948134E+03  0.26655285144E+03  0.47000000000E+01 0. -1.
        -13    1    4    4    0    0 -0.45231144790E+02 -0.63754021875E+02  0.12762763846E+04  0.12786679951E+04  0.00000000000E+00 0.  1.
         14    1    4    4    0    0  0.10606847950E+02 -0.13521314820E+02  0.50122624815E+02  0.52986872867E+02  0.00000000000E+00 0. -1.
         -5    1    5    5    0  502 -0.33536168221E+02  0.30389399252E+02 -0.21541325696E+02  0.50341919695E+02  0.47000000000E+01 0.  1.
         13    1    6    6    0    0  0.21361625111E+02 -0.16139292069E+02  0.30043693411E+02  0.40242009016E+02  0.00000000000E+00 0. -1.
        -14    1    6    6    0    0 -0.10313461335E+02  0.63559353053E+02  0.12621284569E+03  0.14168924188E+03  0.00000000000E+00 0.  1.
</event>
<event>
12    1  0.9873238E-001  0.2037359E+03  0.7818608E-02  0.1146684E+00
         21   -1    0    0  503  502  0.00000000000E+00  0.00000000000E+00  0.11287907899E+04  0.11287907899E+04  0.00000000000E+00 0.  1.
         21   -1    0    0  501  503 -0.00000000000E+00 -0.00000000000E+00 -0.46980280450E+02  0.46980280450E+02  0.00000000000E+00 0. -1.
          6    2    1    2  501    0 -0.14596205195E+02 -0.10750231084E+03  0.81533354124E+03  0.84033362083E+03  0.17211047262E+03 0.  0.
         24    2    3    3    0    0  0.30445727300E+02 -0.29508207188E+01  0.43076266429E+03  0.43923931874E+03  0.80243732020E+02 0.  0.
         -6    2    1    2    0  502  0.14596205195E+02  0.10750231084E+03  0.26647696820E+03  0.33543744951E+03  0.17244857758E+03 0.  0.
        -24    2    5    5    0    0  0.23413643001E+02  0.14184319191E+03  0.23971449453E+03  0.29076795971E+03  0.80095428942E+02 0.  0.
          5    1    3    3  501    0 -0.45041932496E+02 -0.10455149012E+03  0.38457087696E+03  0.40109430210E+03  0.47000000000E+01 0. -1.
        -13    1    4    4    0    0  0.47720818095E+02  0.47029250978E+01  0.14237347376E+03  0.15023182091E+03  0.00000000000E+00 0.  1.
         14    1    4    4    0    0 -0.17275090795E+02 -0.76537458166E+01  0.28838919052E+03  0.28900749782E+03  0.00000000000E+00 0. -1.
         -5    1    5    5    0  502 -0.88174378059E+01 -0.34340881068E+02  0.26762473676E+02  0.44669489803E+02  0.47000000000E+01 0.  1.
         13    1    6    6    0    0 -0.14019009706E+02  0.11432220884E+03  0.14419875670E+03  0.18455183960E+03  0.00000000000E+00 0. -1.
        -14    1    6    6    0    0  0.37432652707E+02  0.27520983073E+02  0.95515737829E+02  0.10621612011E+03  0.00000000000E+00 0.  1.
</event>
<event>
12    1  0.9873238E-001  0.1747569E+03  0.7818608E-02  0.1173131E+00
         21   -1    0    0  503  502  0.00000000000E+00  0.00000000000E+00  0.26340273528E+03  0.26340273528E+03  0.00000000000E+00 0.  1.
         21   -1    0    0  501  503 -0.00000000000E+00 -0.00000000000E+00 -0.14210407170E+03  0.14210407170E+03  0.00000000000E+00 0.  1.
          6    2    1    2  501    0 -0.29874186927E+02 -0.34662005953E+01 -0.26930831008E+02  0.17681977004E+03  0.17214958561E+03 0.  0.
         24    2    3    3    0    0 -0.22495036576E+02  0.64115164305E+01 -0.84266055320E+02  0.11798577391E+03  0.79200634802E+02 0.  0.
         -6    2    1    2    0  502  0.29874186927E+02  0.34662005953E+01  0.14822949459E+03  0.22868703694E+03  0.17152637175E+03 0.  0.
        -24    2    5    5    0    0  0.23054349287E+02 -0.15735551094E+02  0.17535686965E+03  0.19443500151E+03  0.79220120492E+02 0.  0.
          5    1    3    3  501    0 -0.73791503514E+01 -0.98777170258E+01  0.57335224311E+02  0.58833996128E+02  0.47000000000E+01 0. -1.
        -11    1    4    4    0    0 -0.26022334973E+02  0.23411153630E+02 -0.32768339277E+01  0.35156531005E+02  0.00000000000E+00 0.  1.
         12    1    4    4    0    0  0.35272983973E+01 -0.16999637199E+02 -0.80989221392E+02  0.82829242907E+02  0.00000000000E+00 0. -1.
         -5    1    5    5    0  502  0.68198376400E+01  0.19201751689E+02 -0.27127375055E+02  0.34252035425E+02  0.47000000000E+01 0.  1.
         13    1    6    6    0    0  0.42753695464E+01  0.31473218983E+02  0.50770092822E+02  0.59886931989E+02  0.00000000000E+00 0. -1.
        -14    1    6    6    0    0  0.18778979741E+02 -0.47208770077E+02  0.12458677683E+03  0.13454806952E+03  0.00000000000E+00 0.  1.
</event>
<event>
12    1  0.9873238E-001  0.1735603E+03  0.7818608E-02  0.1174186E+00
         21   -1    0    0  501  502  0.00000000000E+00  0.00000000000E+00  0.26763645156E+03  0.26763645156E+03  0.00000000000E+00 0. -1.
         21   -1    0    0  502  503 -0.00000000000E+00 -0.00000000000E+00 -0.14759250847E+03  0.14759250847E+03  0.00000000000E+00 0. -1.
         -6    2    1    2    0  503 -0.12116735737E+02  0.20113096686E+02  0.16118415924E+03  0.23685945252E+03  0.17196137681E+03 0.  0.
        -24    2    3    3    0    0 -0.53440886723E+02  0.47874098844E+02  0.56765474971E+02  0.12108505846E+03  0.79318437453E+02 0.  0.
          6    2    1    2  501    0  0.12116735737E+02 -0.20113096686E+02 -0.41140216142E+02  0.17836950751E+03  0.17196456578E+03 0.  0.
         24    2    5    5    0    0  0.22931317113E+02 -0.77858060524E+02 -0.24924155581E+02  0.11724269965E+03  0.80851185504E+02 0.  0.
          5    1    5    5  501    0 -0.10814581376E+02  0.57744963839E+02 -0.16216060561E+02  0.61126807860E+02  0.47000000000E+01 0. -1.
        -13    1    6    6    0    0 -0.32199086496E+01 -0.84545241067E+02 -0.71168394962E+01  0.84905329651E+02  0.00000000000E+00 0.  1.
         14    1    6    6    0    0  0.26151225763E+02  0.66871805423E+01 -0.17807316085E+02  0.32337370002E+02  0.00000000000E+00 0. -1.
         -5    1    3    3    0  503  0.41324150986E+02 -0.27761002158E+02  0.10441868427E+03  0.11577439406E+03  0.47000000000E+01 0.  1.
         11    1    4    4    0    0 -0.21090340431E+02 -0.17905959084E+02  0.35006332284E+02  0.44619156539E+02  0.00000000000E+00 0. -1.
        -12    1    4    4    0    0 -0.32350546292E+02  0.65780057927E+02  0.21759142687E+02  0.76465901922E+02  0.00000000000E+00 0.  1.
</event>
<event>
12    1  0.9873238E-001  0.2855234E+03  0.7818608E-02  0.1092953E+00
         21   -1    0    0  503  502  0.00000000000E+00  0.00000000000E+00  0.13799222491E+04  0.13799222491E+04  0.00000000000E+00 0.  1.
         21   -1    0    0  501  503 -0.00000000000E+00 -0.00000000000E+00 -0.10162949668E+03  0.10162949668E+03  0.00000000000E+00 0.  1.
          6    2    1    2  501    0  0.17221820484E+03 -0.14851391317E+03  0.15888636970E+03  0.32675448692E+03  0.17265029325E+03 0.  0.
         24    2    3    3    0    0  0.19615927986E+03 -0.13049510267E+03  0.11833543349E+03  0.27611536141E+03  0.82030379058E+02 0.  0.
         -6    2    1    2    0  502 -0.17221820484E+03  0.14851391317E+03  0.11194063827E+04  0.11547972588E+04  0.16961888720E+03 0.  0.
        -24    2    5    5    0    0 -0.54125861684E+02  0.54010557669E+02  0.70537042649E+03  0.71397467690E+03  0.79785032641E+02 0.  0.
          5    1    3    3  501    0 -0.23941075017E+02 -0.18018810500E+02  0.40550936212E+02  0.50639125511E+02  0.47000000000E+01 0. -1.
        -11    1    4    4    0    0  0.29640142776E+02 -0.56236054808E+01 -0.97718612979E+01  0.31712020996E+02  0.00000000000E+00 0.  1.
         12    1    4    4    0    0  0.16651913709E+03 -0.12487149719E+03  0.12810729479E+03  0.24440334041E+03  0.00000000000E+00 0. -1.
         -5    1    5    5    0  502 -0.11809234316E+03  0.94503355502E+02  0.41403595618E+03  0.44082258192E+03  0.47000000000E+01 0.  1.
         11    1    6    6    0    0 -0.68664384391E+02  0.35145441128E+02  0.38093959130E+03  0.38867077577E+03  0.00000000000E+00 0. -1.
        -12    1    6    6    0    0  0.14538522707E+02  0.18865116541E+02  0.32443083519E+03  0.32530390113E+03  0.00000000000E+00 0.  1.
</event>
<event>
12    1  0.9873238E-001  0.2347071E+03  0.7818608E-02  0.1123480E+00
         21   -1    0    0  503  502  0.00000000000E+00  0.00000000000E+00  0.58423479618E+03  0.58423479618E+03  0.00000000000E+00 0.  1.
         21   -1    0    0  501  503 -0.00000000000E+00 -0.00000000000E+00 -0.10362291592E+03  0.10362291592E+03  0.00000000000E+00 0.  1.
          6    2    1    2  501    0 -0.29468534057E+02 -0.15692928439E+03  0.34463729360E+03  0.41660784181E+03  0.17114915984E+03 0.  0.
         24    2    3    3    0    0  0.79088861528E+01 -0.77216213656E+02  0.74873882900E+02  0.13280221653E+03  0.77494749771E+02 0.  0.
         -6    2    1    2    0  502  0.29468534057E+02  0.15692928439E+03  0.13597458666E+03  0.27124987029E+03  0.17202386205E+03 0.  0.
        -24    2    5    5    0    0 -0.21886761994E+02  0.19361019414E+02  0.22929857983E+02  0.85875668623E+02  0.77427208726E+02 0.  0.
          5    1    3    3  501    0 -0.37377420210E+02 -0.79713070739E+02  0.26976341070E+03  0.28380562528E+03  0.47000000000E+01 0. -1.
        -13    1    4    4    0    0  0.15839038779E+02 -0.41475418514E+00 -0.94670979854E+01  0.18457332275E+02  0.00000000000E+00 0.  1.
         14    1    4    4    0    0 -0.79301526257E+01 -0.76801459471E+02  0.84340980885E+02  0.11434488425E+03  0.00000000000E+00 0. -1.
         -5    1    5    5    0  502  0.51355296051E+02  0.13756826498E+03  0.11304472867E+03  0.18537420167E+03  0.47000000000E+01 0.  1.
         11    1    6    6    0    0  0.22159152859E+02  0.90862896783E+01 -0.13773951494E+02  0.27628073681E+02  0.00000000000E+00 0. -1.
        -12    1    6    6    0    0 -0.44045914854E+02  0.10274729735E+02  0.36703809477E+02  0.58247594942E+02  0.00000000000E+00 0.  1.
</event>
<event>
12    1  0.9873238E-001  0.2912232E+03  0.7818608E-02  0.1089873E+00
         21   -1    0    0  503  502  0.00000000000E+00  0.00000000000E+00  0.32123422086E+03  0.32123422086E+03  0.00000000000E+00 0. -1.
         21   -1    0    0  501  503 -0.00000000000E+00 -0.00000000000E+00 -0.31316188150E+03  0.31316188150E+03  0.00000000000E+00 0. -1.
          6    2    1    2  501    0 -0.14404297015E+03  0.18378184715E+03 -0.12303616060E+03  0.31614686360E+03  0.17403102586E+03 0.  0.
         24    2    3    3    0    0 -0.24639975214E+02  0.14478498801E+03 -0.69122661196E+02  0.17937484292E+03  0.76338527966E+02 0.  0.
         -6    2    1    2    0  502  0.14404297015E+03 -0.18378184715E+03  0.13110849996E+03  0.31824923876E+03  0.17195637417E+03 0.  0.
        -24    2    5    5    0    0  0.86724912437E+02 -0.43846402960E+02  0.13955789916E+02  0.12690103325E+03  0.80407653109E+02 0.  0.
          5    1    3    3  501    0 -0.11940299494E+03  0.38996859137E+02 -0.53913499401E+02  0.13677202068E+03  0.47000000000E+01 0. -1.
        -11    1    4    4    0    0 -0.20108801269E+02  0.90588391817E+02 -0.17758228086E+01  0.92810420574E+02  0.00000000000E+00 0.  1.
         12    1    4    4    0    0 -0.45311739447E+01  0.54196596193E+02 -0.67346838387E+02  0.86564422351E+02  0.00000000000E+00 0. -1.
         -5    1    5    5    0  502  0.57318057717E+02 -0.13993544419E+03  0.11715271004E+03  0.19134820551E+03  0.47000000000E+01 0.  1.
         13    1    6    6    0    0  0.20205358592E+02  0.16440825460E+02  0.25421143227E+02  0.36397689221E+02  0.00000000000E+00 0. -1.
        -14    1    6    6    0    0  0.66519553845E+02 -0.60287228420E+02 -0.11465353311E+02  0.90503344031E+02  0.00000000000E+00 0.  1.
</event>
<event>
12    1  0.9873238E-001  0.4335768E+03  0.7818608E-02  0.1032741E+00
         21   -1    0    0  501  502  0.00000000000E+00  0.00000000000E+00  0.20635800946E+03  0.20635800946E+03  0.00000000000E+00 0.  1.
         21   -1    0    0  502  503 -0.00000000000E+00 -0.00000000000E+00 -0.91469124291E+03  0.91469124291E+03  0.00000000000E+00 0.  1.
         -6    2    1    2    0  503 -0.37976746055E+03  0.11958269465E+03 -0.39057984498E+03  0.58355931832E+03  0.17165522929E+03 0.  0.
        -24    2    3    3    0    0 -0.17918279454E+03  0.39709731292E+01 -0.13180005628E+03  0.23629954895E+03  0.79649102364E+02 0.  0.
          6    2    1    2  501    0  0.37976746055E+03 -0.11958269465E+03 -0.31775338847E+03  0.53748993405E+03  0.17147847784E+03 0.  0.
         24    2    5    5    0    0  0.39271806174E+03 -0.11005672995E+03 -0.31267554301E+03  0.51998746024E+03  0.79252784132E+02 0.  0.
          5    1    5    5  501    0 -0.12950601187E+02 -0.95259647064E+01 -0.50778454636E+01  0.17502473804E+02  0.47000000000E+01 0. -1.
        -11    1    6    6    0    0  0.23586140146E+03 -0.26968313227E+02 -0.16531826596E+03  0.28928881706E+03  0.00000000000E+00 0.  1.
         12    1    6    6    0    0  0.15685666028E+03 -0.83088416718E+02 -0.14735727705E+03  0.23069864318E+03  0.00000000000E+00 0. -1.
         -5    1    3    3    0  503 -0.20058466601E+03  0.11561172152E+03 -0.25877978869E+03  0.34725976938E+03  0.47000000000E+01 0.  1.
         11    1    4    4    0    0 -0.11018190675E+03  0.16054704282E+02 -0.12265127115E+03  0.16565367614E+03  0.00000000000E+00 0. -1.
        -12    1    4    4    0    0 -0.69000887796E+02 -0.12083731152E+02 -0.91487851362E+01  0.70645872807E+02  0.00000000000E+00 0.  1.
</event>
<event>
12    1  0.9873238E-001  0.5087759E+03  0.7818608E-02  0.1011575E+00
         21   -1    0    0  503  502  0.00000000000E+00  0.00000000000E+00  0.11323861264E+03  0.11323861264E+03  0.00000000000E+00 0. -1.
         21   -1    0    0  501  503 -0.00000000000E+00 -0.00000000000E+00 -0.23027643026E+04  0.23027643026E+04  0.00000000000E+00 0. -1.
          6    2    1    2  501    0 -0.44375225192E+03 -0.17943145809E+03 -0.97994385103E+03  0.11041480104E+04  0.17245627976E+03 0.  0.
         24    2    3    3    0    0 -0.17560833976E+03 -0.13628252360E+02 -0.38560012284E+03  0.43134906724E+03  0.79690305677E+02 0.  0.
         -6    2    1    2    0  502  0.44375225192E+03  0.17943145809E+03 -0.12095818389E+04  0.13118549048E+04  0.16959763291E+03 0.  0.
        -24    2    5    5    0    0  0.14559296051E+03  0.10593339161E+03 -0.39003548596E+03  0.43665250341E+03  0.78221063779E+02 0.  0.
          5    1    3    3  501    0 -0.26814391216E+03 -0.16580320573E+03 -0.59434372819E+03  0.67279894314E+03  0.47000000000E+01 0. -1.
        -11    1    4    4    0    0 -0.12619448279E+03 -0.10132359432E+02 -0.18129080915E+03  0.22112003454E+03  0.00000000000E+00 0.  1.
         12    1    4    4    0    0 -0.49413856971E+02 -0.34958929279E+01 -0.20430931369E+03  0.21022903270E+03  0.00000000000E+00 0. -1.
         -5    1    5    5    0  502  0.29815929141E+03  0.73498066482E+02 -0.81954635296E+03  0.87520240144E+03  0.47000000000E+01 0.  1.
         11    1    6    6    0    0  0.87684745774E+02  0.49724364877E+02 -0.13073694686E+03  0.16508566376E+03  0.00000000000E+00 0. -1.
        -12    1    6    6    0    0  0.57908214735E+02  0.56209026728E+02 -0.25929853909E+03  0.27156683965E+03  0.00000000000E+00 0.  1.
</event>
<event>
12    1  0.9873238E-001  0.1994315E+03  0.7818608E-02  0.1150258E+00
         21   -1    0    0  501  502  0.00000000000E+00  0.00000000000E+00  0.29703542421E+02  0.29703542421E+02  0.00000000000E+00 0. -1.
         21   -1    0    0  502  503 -0.00000000000E+00 -0.00000000000E+00 -0.15571811250E+04  0.15571811250E+04  0.00000000000E+00 0. -1.
         -6    2    1    2    0  503 -0.67646254154E+02 -0.74687789877E+02 -0.46559725196E+03  0.50643903537E+03  0.17188779438E+03 0.  0.
        -24    2    3    3    0    0 -0.45839945691E+02 -0.93304098106E+02 -0.45816347225E+03  0.47644848517E+03  0.79261821659E+02 0.  0.
          6    2    1    2  501    0  0.67646254154E+02  0.74687789877E+02 -0.10618803307E+04  0.10804456321E+04  0.17210068450E+03 0.  0.
         24    2    5    5    0    0  0.37452956944E+02  0.10245654601E+03 -0.52776543068E+03  0.54473717090E+03  0.79386193593E+02 0.  0.
          5    1    5    5  501    0  0.30193297210E+02 -0.27768756132E+02 -0.53411489998E+03  0.53570846120E+03  0.47000000000E+01 0. -1.
        -13    1    6    6    0    0  0.26752446101E+02  0.27315941846E+01 -0.20475685089E+03  0.20651518822E+03  0.00000000000E+00 0.  1.
         14    1    6    6    0    0  0.10700510843E+02  0.99724951824E+02 -0.32300857979E+03  0.33822198268E+03  0.00000000000E+00 0. -1.
         -5    1    3    3    0  503 -0.21806308463E+02  0.18616308229E+02 -0.74337797177E+01  0.29990550208E+02  0.47000000000E+01 0.  1.
         11    1    4    4    0    0 -0.39094946198E+02 -0.22970100078E+01 -0.12303421235E+03  0.12911664681E+03  0.00000000000E+00 0. -1.
        -12    1    4    4    0    0 -0.67449994930E+01 -0.91007088098E+02 -0.33512925989E+03  0.34733183836E+03  0.00000000000E+00 0.  1.
</event>
<event>
12    1  0.9873238E-001  0.1793828E+03  0.7818608E-02  0.1168433E+00
         21   -1    0    0  503  502  0.00000000000E+00  0.00000000000E+00  0.67242203512E+02  0.67242203512E+02  0.00000000000E+00 0.  1.
         21   -1    0    0  501  503 -0.00000000000E+00 -0.00000000000E+00 -0.53093580300E+03  0.53093580300E+03  0.00000000000E+00 0.  1.
          6    2    1    2  501    0  0.37012770995E+02  0.34439346600E+02 -0.13750715914E+03  0.22592032615E+03  0.17197604816E+03 0.  0.
         24    2    3    3    0    0 -0.34751456442E+02  0.41035912016E+02 -0.37808327744E+02  0.10281238166E+03  0.79052554515E+02 0.  0.
         -6    2    1    2    0  502 -0.37012770995E+02 -0.34439346600E+02 -0.32618644035E+03  0.37225768037E+03  0.17211093200E+03 0.  0.
        -24    2    5    5    0    0 -0.26058309668E+02 -0.40996867407E+02 -0.75745927462E+02  0.12144790823E+03  0.81562063776E+02 0.  0.
          5    1    3    3  501    0  0.71764227437E+02 -0.65965654154E+01 -0.99698831396E+02  0.12310794449E+03  0.47000000000E+01 0. -1.
        -11    1    4    4    0    0 -0.59889149535E+02  0.24561743965E+02 -0.19428957531E+02  0.67583088783E+02  0.00000000000E+00 0.  1.
         12    1    4    4    0    0  0.25137693093E+02  0.16474168050E+02 -0.18379370213E+02  0.35229292874E+02  0.00000000000E+00 0. -1.
         -5    1    5    5    0  502 -0.10954461326E+02  0.65575208066E+01 -0.25044051289E+03  0.25080977213E+03  0.47000000000E+01 0.  1.
         13    1    6    6    0    0 -0.37384898649E+02 -0.29844131413E+02 -0.88809193946E+02  0.10087306755E+03  0.00000000000E+00 0. -1.
        -14    1    6    6    0    0  0.11326588981E+02 -0.11152735994E+02  0.13063266484E+02  0.20574840688E+02  0.00000000000E+00 0.  1.
</event>
<event>
12    1  0.9873238E-001  0.1964107E+03  0.7818608E-02  0.1153069E+00
         21   -1    0    0  501  502  0.00000000000E+00  0.00000000000E+00  0.13559007032E+04  0.13559007032E+04  0.00000000000E+00 0.  1.
         21   -1    0    0  502  503 -0.00000000000E+00 -0.00000000000E+00 -0.28299621201E+02  0.28299621201E+02  0.00000000000E+00 0.  1.
         -6    2    1    2    0  503 -0.74182973679E+02 -0.53732629787E+02  0.64080210904E+03  0.66986847916E+03  0.17235465567E+03 0.  0.
        -24    2    3    3    0    0 -0.91439758481E+02  0.11718548144E+02  0.46338810829E+03  0.47992251059E+03  0.84252735631E+02 0.  0.
          6    2    1    2  501    0  0.74182973679E+02  0.53732629787E+02  0.68679897295E+03  0.71433184524E+03  0.17374362372E+03 0.  0.
         24    2    5    5    0    0  0.82991175007E+02 -0.18853934754E+02  0.33904076683E+03  0.35893874782E+03  0.81519182601E+02 0.  0.
          5    1    5    5  501    0 -0.88082013280E+01  0.72586564542E+02  0.34775820613E+03  0.35539309742E+03  0.47000000000E+01 0. -1.
        -11    1    6    6    0    0 -0.64867432767E+01 -0.17349547597E+02  0.13326035052E+03  0.13454146447E+03  0.00000000000E+00 0.  1.
         12    1    6    6    0    0  0.89477918284E+02 -0.15043871577E+01  0.20578041630E+03  0.22439728335E+03  0.00000000000E+00 0. -1.
         -5    1    3    3    0  503  0.17256784802E+02 -0.65451177931E+02  0.17741400075E+03  0.18994596857E+03  0.47000000000E+01 0.  1.
         11    1    4    4    0    0  0.15275575098E+02  0.31735234428E+01  0.95794374638E+02  0.97056564219E+02  0.00000000000E+00 0. -1.
        -12    1    4    4    0    0 -0.10671533358E+03  0.85450247015E+01  0.36759373365E+03  0.38286594637E+03  0.00000000000E+00 0.  1.
</event>
<event>
12    1  0.9873238E-001  0.2120247E+03  0.7818608E-02  0.1140380E+00
         21   -1    0    0  501  502  0.00000000000E+00  0.00000000000E+00  0.52969972720E+03  0.52969972720E+03  0.00000000000E+00 0. -1.
         21   -1    0    0  502  503 -0.00000000000E+00 -0.00000000000E+00 -0.26472967435E+03  0.26472967435E+03  0.00000000000E+00 0. -1.
         -6    2    1    2    0  503 -0.31817826551E+02  0.11637197712E+03  0.46044087993E+03  0.50604887436E+03  0.17182796101E+03 0.  0.
        -24    2    3    3    0    0 -0.56062311861E+02  0.47183775662E+02  0.38977847310E+03  0.40411719122E+03  0.77550980959E+02 0.  0.
          6    2    1    2  501    0  0.31817826551E+02 -0.11637197712E+03 -0.19547082708E+03  0.28838052720E+03  0.17435502025E+03 0.  0.
         24    2    5    5    0    0  0.61877700386E+02 -0.13787816526E+02 -0.11364766714E+03  0.15368002415E+03  0.81748418257E+02 0.  0.
          5    1    5    5  501    0 -0.30059873835E+02 -0.10258416059E+03 -0.81823159935E+02  0.13470050305E+03  0.47000000000E+01 0. -1.
        -11    1    6    6    0    0  0.90126064101E+01 -0.23614319282E+02 -0.92515196249E+02  0.95905811536E+02  0.00000000000E+00 0.  1.
         12    1    6    6    0    0  0.52865093976E+02  0.98265027568E+01 -0.21132470893E+02  0.57774212618E+02  0.00000000000E+00 0. -1.
         -5    1    3    3    0  503  0.24244485310E+02  0.69188201458E+02  0.70662406827E+02  0.10193168314E+03  0.47000000000E+01 0.  1.
         13    1    4    4    0    0  0.19086560992E+02  0.12260417412E+02  0.61800706250E+02  0.65832681387E+02  0.00000000000E+00 0. -1.
        -14    1    4    4    0    0 -0.75148872853E+02  0.34923358250E+02  0.32797776685E+03  0.33828450983E+03  0.00000000000E+00 0.  1.
</event>
<event>
12    1  0.9873238E-001  0.3551411E+03  0.7818608E-02  0.1060607E+00
         21   -1    0    0  501  502  0.00000000000E+00  0.00000000000E+00  0.63429062938E+03  0.63429062938E+03  0.00000000000E+00 0.  1.
         21   -1    0    0  502  503 -0.00000000000E+00 -0.00000000000E+00 -0.20595983118E+03  0.20595983118E+03  0.00000000000E+00 0.  1.
         -6    2    1    2    0  503 -0.28438752058E+03  0.12551834501E+03  0.29448105640E+03  0.46072315197E+03  0.17004591553E+03 0.  0.
        -24    2    3    3    0    0 -0.17477710450E+03  0.14671146072E+03  0.22340505951E+03  0.32829400563E+03  0.76130444331E+02 0.  0.
          6    2    1    2  501    0  0.28438752058E+03 -0.12551834501E+03  0.13384974181E+03  0.37952730860E+03  0.17173848664E+03 0.  0.
         24    2    5    5    0    0  0.19914480699E+03 -0.28120915171E+02  0.42146778525E+02  0.22083230857E+03  0.80877175687E+02 0.  0.
          5    1    5    5  501    0  0.85242713593E+02 -0.97397429842E+02  0.91702963282E+02  0.15869500003E+03  0.47000000000E+01 0. -1.
        -13    1    6    6    0    0  0.82571941511E+02 -0.10058184674E+02 -0.22693966446E+02  0.86222437433E+02  0.00000000000E+00 0.  1.
         14    1    6    6    0    0  0.11657286547E+03 -0.18062730497E+02  0.64840744971E+02  0.13460987113E+03  0.00000000000E+00 0. -1.
         -5    1    3    3    0  503 -0.10961041608E+03 -0.21193115708E+02  0.71075996884E+02  0.13242914634E+03  0.47000000000E+01 0.  1.
         11    1    4    4    0    0 -0.16100668130E+03  0.11321274118E+03  0.21425191485E+03  0.29093669278E+03  0.00000000000E+00 0. -1.
        -12    1    4    4    0    0 -0.13770423200E+02  0.33498719545E+02  0.91531446566E+01  0.37357312849E+02  0.00000000000E+00 0.  1.
</event>
<event>
12    1  0.9873238E-001  0.1855678E+03  0.7818608E-02  0.1162835E+00
         21   -1    0    0  501  502  0.00000000000E+00  0.00000000000E+00  0.11990578645E+04  0.11990578645E+04  0.00000000000E+00 0.  1.
         21   -1    0    0  502  503 -0.00000000000E+00 -0.00000000000E+00 -0.30043062526E+02  0.30043062526E+02  0.00000000000E+00 0.  1.
         -6    2    1    2    0  503 -0.56636224190E+02  0.36945876770E+02  0.72532316856E+03  0.74868492550E+03  0.17280844634E+03 0.  0.
        -24    2    3    3    0    0 -0.99563203365E+02  0.52218336310E+02  0.59042843074E+03  0.60622561955E+03  0.79146597282E+02 0.  0.
          6    2    1    2  501    0  0.56636224190E+02 -0.36945876770E+02  0.44369163337E+03  0.48041600148E+03  0.17136104940E+03 0.  0.
         24    2    5    5    0    0 -0.53366530265E+00 -0.77852263023E+02  0.23402130835E+03  0.25922498924E+03  0.79814551481E+02 0.  0.
          5    1    5    5  501    0  0.57169889493E+02  0.40906386253E+02  0.20967032502E+03  0.22119101224E+03  0.47000000000E+01 0. -1.
        -11    1    6    6    0    0 -0.95869006225E+00 -0.61599215094E+02  0.23499595668E+03  0.24293719773E+03  0.00000000000E+00 0.  1.
         12    1    6    6    0    0  0.42502475961E+00 -0.16253047929E+02 -0.97464832232E+00  0.16287791513E+02  0.00000000000E+00 0. -1.
         -5    1    3    3    0  503  0.42926979175E+02 -0.15272459541E+02  0.13489473781E+03  0.14245930595E+03  0.47000000000E+01 0.  1.
         11    1    4    4    0    0 -0.68607725302E+02  0.58600187332E+01  0.44828752496E+03  0.45354499757E+03  0.00000000000E+00 0. -1.
        -12    1    4    4    0    0 -0.30955478063E+02  0.46358317577E+02  0.14214090578E+03  0.15268062198E+03  0.00000000000E+00 0.  1.
</event>
<event>
12    1  0.9873238E-001  0.4607323E+03  0.7818608E-02  0.1024570E+00
         21   -1    0    0  501  502  0.00000000000E+00  0.00000000000E+00  0.80268204111E+03  0.80268204111E+03  0.00000000000E+00 0.  1.
         21   -1    0    0  502  503 -0.00000000000E+00 -0.00000000000E+00 -0.39234337501E+03  0.39234337501E+03  0.00000000000E+00 0.  1.
         -6    2    1    2    0  503  0.41104810478E+03 -0.11683035336E+03  0.54631514598E+03  0.71464657150E+03  0.17219061390E+03 0.  0.
        -24    2    3    3    0    0  0.30874638802E+03 -0.22734132229E+02  0.42881284330E+03  0.53257894335E+03  0.62599548257E+02 0.  0.
          6    2    1    2  501    0 -0.41104810478E+03  0.11683035336E+03 -0.13597647988E+03  0.48037884462E+03  0.17223343277E+03 0.  0.
         24    2    5    5    0    0 -0.75838022108E+02  0.34177987340E+02 -0.24605632995E+02  0.11758032109E+03  0.79373511436E+02 0.  0.
          5    1    5    5  501    0 -0.33521008267E+03  0.82652366017E+02 -0.11137084689E+03  0.36279852352E+03  0.47000000000E+01 0. -1.
        -11    1    6    6    0    0 -0.58294471912E+02  0.32022830036E+02 -0.52378852198E+02  0.84659619988E+02  0.00000000000E+00 0.  1.
         12    1    6    6    0    0 -0.17543550196E+02  0.21551573039E+01  0.27773219202E+02  0.32920701106E+02  0.00000000000E+00 0. -1.
         -5    1    3    3    0  503  0.10230171676E+03 -0.94096221128E+02  0.11750230269E+03  0.18206762815E+03  0.47000000000E+01 0.  1.
         11    1    4    4    0    0  0.20550070513E+03  0.72758968653E+00  0.32343099530E+03  0.38319535216E+03  0.00000000000E+00 0. -1.
        -12    1    4    4    0    0  0.10324568288E+03 -0.23461721915E+02  0.10538184799E+03  0.14938359119E+03  0.00000000000E+00 0.  1.
</event>
<event>
12    1  0.9873238E-001  0.2106759E+03  0.7818608E-02  0.1141421E+00
         21   -1    0    0  501  502  0.00000000000E+00  0.00000000000E+00  0.20212092732E+04  0.20212092732E+04  0.00000000000E+00 0.  1.
         21   -1    0    0  502  503 -0.00000000000E+00 -0.00000000000E+00 -0.34733634498E+02  0.34733634498E+02  0.00000000000E+00 0.  1.
         -6    2    1    2    0  503 -0.86193740412E+02  0.82815743457E+02  0.16245294512E+04  0.16381331722E+04  0.17348355446E+03 0.  0.
        -24    2    3    3    0    0 -0.66370356408E+02  0.12452790467E+03  0.11316189782E+04  0.11430415692E+04  0.77912090253E+02 0.  0.
          6    2    1    2  501    0  0.86193740412E+02 -0.82815743457E+02  0.36194618749E+03  0.41780973553E+03  0.17109098226E+03 0.  0.
         24    2    5    5    0    0  0.96124231062E+02 -0.10375466844E+03  0.35907548747E+03  0.39398990886E+03  0.79296554524E+02 0.  0.
          5    1    5    5  501    0 -0.99304906494E+01  0.20938924983E+02  0.28707000238E+01  0.23819826670E+02  0.47000000000E+01 0. -1.
        -11    1    6    6    0    0  0.54264271760E+00  0.36632800625E+01 -0.27689298670E+01  0.46239652403E+01  0.00000000000E+00 0.  1.
         12    1    6    6    0    0  0.95581588344E+02 -0.10741794850E+03  0.36184441734E+03  0.38936594362E+03  0.00000000000E+00 0. -1.
         -5    1    3    3    0  503 -0.19823384005E+02 -0.41712161212E+02  0.49291047302E+03  0.49509160300E+03  0.47000000000E+01 0.  1.
         13    1    4    4    0    0 -0.84326695977E+02  0.10379713669E+03  0.94726418604E+03  0.95665786747E+03  0.00000000000E+00 0. -1.
        -14    1    4    4    0    0  0.17956339569E+02  0.20730767981E+02  0.18435479213E+03  0.18638370168E+03  0.00000000000E+00 0.  1.
</event>
<event>
12    1  0.9873238E-001  0.2784347E+03  0.7818608E-02  0.1097105E+00
         21   -1    0    0  503  502  0.00000000000E+00  0.00000000000E+00  0.94918493861E+03  0.94918493861E+03  0.00000000000E+00 0. -1.
         21   -1    0    0  501  503 -0.00000000000E+00 -0.00000000000E+00 -0.92854786151E+02  0.92854786151E+02  0.00000000000E+00 0. -1.
          6    2    1    2  501    0  0.18092826529E+03 -0.12329314820E+03  0.62092209207E+03  0.68049255105E+03  0.17201636560E+03 0.  0.
         24    2    3    3    0    0  0.12480861386E+03 -0.10713290806E+03  0.28101953744E+03  0.33557748138E+03  0.81151805305E+02 0.  0.
         -6    2    1    2    0  502 -0.18092826529E+03  0.12329314820E+03  0.23540806039E+03  0.36154717371E+03  0.16541815605E+03 0.  0.
        -24    2    5    5    0    0 -0.16558017221E+03  0.59258214473E+02  0.11582674579E+03  0.22495355197E+03  0.79119757911E+02 0.  0.
          5    1    3    3  501    0  0.56119651423E+02 -0.16160240146E+02  0.33990255463E+03  0.34491506967E+03  0.47000000000E+01 0. -1.
        -11    1    4    4    0    0  0.10902634224E+03 -0.55710249808E+02  0.23416776878E+03  0.26424405229E+03  0.00000000000E+00 0.  1.
         12    1    4    4    0    0  0.15782271621E+02 -0.51422658251E+02  0.46851768657E+02  0.71333429088E+02  0.00000000000E+00 0. -1.
         -5    1    5    5    0  502 -0.15348093074E+02  0.64034933732E+02  0.11958131460E+03  0.13659362174E+03  0.47000000000E+01 0.  1.
         11    1    6    6    0    0 -0.44112797717E+02  0.20187575744E+02 -0.55735958800E+01  0.48831773548E+02  0.00000000000E+00 0. -1.
        -12    1    6    6    0    0 -0.12146737450E+03  0.39070638729E+02  0.12140034167E+03  0.17612177842E+03  0.00000000000E+00 0.  1.
</event>
<event>
12    1  0.9873238E-001  0.4878195E+03  0.7818608E-02  0.1017019E+00
         21   -1    0    0  503  502  0.00000000000E+00  0.00000000000E+00  0.73418672016E+03  0.73418672016E+03  0.00000000000E+00 0. -1.
         21   -1    0    0  501  503 -0.00000000000E+00 -0.00000000000E+00 -0.45776465885E+03  0.45776465885E+03  0.00000000000E+00 0. -1.
          6    2    1    2  501    0 -0.42756477068E+03 -0.16012673906E+03 -0.18391618524E+03  0.52133769931E+03  0.17180112875E+03 0.  0.
         24    2    3    3    0    0 -0.18124201474E+03 -0.42134866549E+02 -0.82171501376E+02  0.22983975289E+03  0.10700533391E+03 0.  0.
         -6    2    1    2    0  502  0.42756477068E+03  0.16012673906E+03  0.46033824655E+03  0.67061367971E+03  0.17134526688E+03 0.  0.
        -24    2    5    5    0    0  0.23193461538E+03  0.12943023231E+03  0.19291788647E+03  0.33782369762E+03  0.79760196261E+02 0.  0.
          5    1    3    3  501    0 -0.24632275594E+03 -0.11799187251E+03 -0.10174468386E+03  0.29149794642E+03  0.47000000000E+01 0. -1.
        -11    1    4    4    0    0 -0.12966989630E+03 -0.78350920843E+02 -0.54399897071E+02  0.16097359288E+03  0.00000000000E+00 0.  1.
         12    1    4    4    0    0 -0.51572118439E+02  0.36216054294E+02 -0.27771604305E+02  0.68866160010E+02  0.00000000000E+00 0. -1.
         -5    1    5    5    0  502  0.19563015529E+03  0.30696506748E+02  0.26742036008E+03  0.33278998208E+03  0.47000000000E+01 0.  1.
         13    1    6    6    0    0  0.10419946611E+03  0.37048489882E+02  0.38356831641E+02  0.11705283369E+03  0.00000000000E+00 0. -1.
        -14    1    6    6    0    0  0.12773514927E+03  0.92381742431E+02  0.15456105483E+03  0.22077086394E+03  0.00000000000E+00 0.  1.
</event>
<event>
12    1  0.9873238E-001  0.2599730E+03  0.7818608E-02  0.1107257E+00
         21   -1    0    0  503  502  0.00000000000E+00  0.00000000000E+00  0.52178525566E+02  0.52178525566E+02  0.00000000000E+00 0. -1.
         21   -1    0    0  501  503 -0.00000000000E+00 -0.00000000000E+00 -0.12971534437E+04  0.12971534437E+04  0.00000000000E+00 0. -1.
          6    2    1    2  501    0  0.19206510778E+03 -0.34559164455E+02 -0.58093445486E+03  0.63645173803E+03  0.17176330375E+03 0.  0.
         24    2    3    3    0    0  0.14619671365E+03 -0.10193858140E+02 -0.22988214007E+03  0.28154696847E+03  0.70324272522E+02 0.  0.
         -6    2    1    2    0  502 -0.19206510778E+03  0.34559164455E+02 -0.66404046328E+03  0.71288023124E+03  0.17077805992E+03 0.  0.
        -24    2    5    5    0    0 -0.40103815076E+02 -0.23072573142E+02 -0.30431785064E+03  0.31811941796E+03  0.80311582294E+02 0.  0.
          5    1    3    3  501    0  0.45868394130E+02 -0.24365306315E+02 -0.35105231480E+03  0.35490476956E+03  0.47000000000E+01 0. -1.
        -13    1    4    4    0    0  0.78385192575E+01  0.44255445564E-01  0.46051402638E+01  0.90912958122E+01  0.00000000000E+00 0.  1.
         14    1    4    4    0    0  0.13835819440E+03 -0.10238113586E+02 -0.23448728033E+03  0.27245567266E+03  0.00000000000E+00 0. -1.
         -5    1    5    5    0  502 -0.15196129271E+03  0.57631737598E+02 -0.35972261264E+03  0.39476081328E+03  0.47000000000E+01 0.  1.
         11    1    6    6    0    0  0.21197004261E+02 -0.21122406592E+02 -0.75213563420E+02  0.80947817588E+02  0.00000000000E+00 0. -1.
        -12    1    6    6    0    0 -0.61300819337E+02 -0.19501665499E+01 -0.22910428722E+03  0.23717160037E+03  0.00000000000E+00 0.  1.
</event>
<event>
12    1  0.9873238E-001  0.1832420E+03  0.7818608E-02  0.1166137E+00
         21   -1    0    0  503  502  0.00000000000E+00  0.00000000000E+00  0.38988687103E+02  0.38988687103E+02  0.00000000000E+00 0. -1.
         21   -1    0    0  501  503 -0.00000000000E+00 -0.00000000000E+00 -0.95188349816E+03  0.95188349816E+03  0.00000000000E+00 0. -1.
          6    2    1    2  501    0  0.22286144279E+02 -0.43066086183E+02 -0.28829209824E+03  0.34159915194E+03  0.17670961119E+03 0.  0.
         24    2    3    3    0    0 -0.52851228498E+02 -0.17300669683E+02 -0.11044984388E+03  0.14676732981E+03  0.79050082616E+02 0.  0.
         -6    2    1    2    0  502 -0.22286144279E+02  0.43066086183E+02 -0.62460271282E+03  0.64927303333E+03  0.17051557977E+03 0.  0.
        -24    2    5    5    0    0  0.24964485901E+02  0.53616636774E+02 -0.21340393279E+03  0.23520726215E+03  0.79266943557E+02 0.  0.
          5    1    3    3  501    0  0.75137372777E+02 -0.25765416500E+02 -0.17784225437E+03  0.19483182213E+03  0.47000000000E+01 0. -1.
        -13    1    4    4    0    0 -0.42036757339E+02  0.12551929989E+02 -0.15303952559E+02  0.46463435925E+02  0.00000000000E+00 0.  1.
         14    1    4    4    0    0 -0.10814471159E+02 -0.29852599672E+02 -0.95145891317E+02  0.10030389388E+03  0.00000000000E+00 0. -1.
         -5    1    5    5    0  502 -0.47250630180E+02 -0.10550550591E+02 -0.41119878003E+03  0.41406577118E+03  0.47000000000E+01 0.  1.
         11    1    6    6    0    0  0.93819583815E+01  0.19155706251E+02 -0.31289039640E+01  0.21558113671E+02  0.00000000000E+00 0. -1.
        -12    1    6    6    0    0  0.15582527519E+02  0.34460930523E+02 -0.21027502883E+03  0.21364914847E+03  0.00000000000E+00 0.  1.
</event>
<event>
12    1  0.9873238E-001  0.2593375E+03  0.7818608E-02  0.1107543E+00
         21   -1    0    0  503  502  0.00000000000E+00  0.00000000000E+00  0.50204559921E+03  0.50204559921E+03  0.00000000000E+00 0.  1.
         21   -1    0    0  501  503 -0.00000000000E+00 -0.00000000000E+00 -0.14072765100E+03  0.14072765100E+03  0.00000000000E+00 0.  1.
          6    2    1    2  501    0  0.14429712173E+03 -0.12898768574E+03  0.25114089169E+03  0.36100924097E+03  0.17261645975E+03 0.  0.
         24    2    3    3    0    0  0.70067732119E+01 -0.18453180670E+02  0.67436736247E+02  0.10638044579E+03  0.79871591343E+02 0.  0.
         -6    2    1    2    0  502 -0.14429712173E+03  0.12898768574E+03  0.11017705653E+03  0.28176400924E+03  0.17260501355E+03 0.  0.
        -24    2    5    5    0    0 -0.23081003505E+02  0.35078542936E+02 -0.12653653166E+01  0.92149194922E+02  0.82016072071E+02 0.  0.
          5    1    3    3  501    0  0.13729034852E+03 -0.11053450507E+03  0.18370415544E+03  0.25462879518E+03  0.47000000000E+01 0. -1.
        -13    1    4    4    0    0  0.10135169082E+01 -0.39868896592E+02  0.51133085003E+01  0.40208233681E+02  0.00000000000E+00 0.  1.
         14    1    4    4    0    0  0.59932563037E+01  0.21415715922E+02  0.62323427747E+02  0.66172212111E+02  0.00000000000E+00 0. -1.
         -5    1    5    5    0  502 -0.12121611823E+03  0.93909142807E+02  0.11144242184E+03  0.18961481431E+03  0.47000000000E+01 0.  1.
         11    1    6    6    0    0 -0.37756251817E+02  0.42447264737E+02  0.24280458664E+02  0.61780624049E+02  0.00000000000E+00 0. -1.
        -12    1    6    6    0    0  0.14675248312E+02 -0.73687218007E+01 -0.25545823981E+02  0.30368570873E+02  0.00000000000E+00 0.  1.
</event>
<event>
12    1  0.9873238E-001  0.1992565E+03  0.7818608E-02  0.1150524E+00
         21   -1    0    0  501  502  0.00000000000E+00  0.00000000000E+00  0.10730887909E+04  0.10730887909E+04  0.00000000000E+00 0.  1.
         21   -1    0    0  502  503 -0.00000000000E+00 -0.00000000000E+00 -0.37493223587E+02  0.37493223587E+02  0.00000000000E+00 0. -1.
         -6    2    1    2    0  503  0.96310041635E+02  0.27327047555E+02  0.44485337618E+03  0.48714036966E+03  0.17143168262E+03 0.  0.
        -24    2    3    3    0    0 -0.97820704780E+01  0.27437849810E+02  0.26967057107E+03  0.28228272705E+03  0.78184375570E+02 0.  0.
          6    2    1    2  501    0 -0.96310041635E+02 -0.27327047555E+02  0.59074219111E+03  0.62344164480E+03  0.17228103921E+03 0.  0.
         24    2    5    5    0    0 -0.28063220721E+02 -0.70175144839E+02  0.24873805884E+03  0.27204087005E+03  0.80146851179E+02 0.  0.
          5    1    5    5  501    0 -0.68246820914E+02  0.42848097284E+02  0.34200413227E+03  0.35140077475E+03  0.47000000000E+01 0. -1.
        -11    1    6    6    0    0  0.10516930227E+02 -0.20562024847E+02  0.16871443931E+03  0.17028788776E+03  0.00000000000E+00 0.  1.
         12    1    6    6    0    0 -0.38580150948E+02 -0.49613119992E+02  0.80023619533E+02  0.10175298229E+03  0.00000000000E+00 0. -1.
         -5    1    3    3    0  503  0.10609211211E+03 -0.11080225468E+00  0.17518280511E+03  0.20485764261E+03  0.47000000000E+01 0.  1.
         11    1    4    4    0    0 -0.32669461279E+02 -0.11102304300E+02  0.75581928938E+02  0.83085394884E+02  0.00000000000E+00 0. -1.
        -12    1    4    4    0    0  0.22887390801E+02  0.38540154111E+02  0.19408864214E+03  0.19919733217E+03  0.00000000000E+00 0.  1.
</event>
<event>
12    1  0.9873238E-001  0.2090584E+03  0.7818608E-02  0.1142417E+00
         21   -1    0    0  501  502  0.00000000000E+00  0.00000000000E+00  0.30814790572E+03  0.30814790572E+03  0.00000000000E+00 0. -1.
         21   -1    0    0  502  503 -0.00000000000E+00 -0.00000000000E+00 -0.14294037795E+03  0.14294037795E+03  0.00000000000E+00 0. -1.
         -6    2    1    2    0  503 -0.11686830341E+03  0.16004366764E+02  0.59716690964E+02  0.21692228950E+03  0.17197341773E+03 0.  0.
        -24    2    3    3    0    0 -0.34051049149E+02  0.12942139742E+02 -0.24733804327E+02  0.98507548050E+02  0.88119254519E+02 0.  0.
          6    2    1    2  501    0  0.11686830341E+03 -0.16004366764E+02  0.10549083680E+03  0.23416599417E+03  0.17260085771E+03 0.  0.
         24    2    5    5    0    0  0.14097160800E+03 -0.35809605308E+02  0.11463297092E+03  0.20131960347E+03  0.78952787306E+02 0.  0.
          5    1    5    5  501    0 -0.24103304596E+02  0.19805238544E+02 -0.91421341157E+01  0.32846390706E+02  0.47000000000E+01 0. -1.
        -11    1    6    6    0    0  0.20160003016E+02 -0.33428285169E+02  0.73320081051E+01  0.39719445033E+02  0.00000000000E+00 0.  1.
         12    1    6    6    0    0  0.12081160499E+03 -0.23813201395E+01  0.10730096281E+03  0.16160015843E+03  0.00000000000E+00 0. -1.
         -5    1    3    3    0  503 -0.82817254257E+02  0.30622270223E+01  0.84450495292E+02  0.11841474145E+03  0.47000000000E+01 0.  1.
         11    1    4    4    0    0  0.56718307972E+01  0.41882700286E+02  0.24635608392E+01  0.42336737945E+02  0.00000000000E+00 0. -1.
        -12    1    4    4    0    0 -0.39722879946E+02 -0.28940560544E+02 -0.27197365167E+02  0.56170810105E+02  0.00000000000E+00 0.  1.
</event>
<event>
12    1  0.9873238E-001  0.1792238E+03  0.7818608E-02  0.1169056E+00
         21   -1    0    0  501  502  0.00000000000E+00  0.00000000000E+00  0.12783152600E+03  0.12783152600E+03  0.00000000000E+00 0.  1.
         21   -1    0    0  502  503 -0.00000000000E+00 -0.00000000000E+00 -0.34293505156E+03  0.34293505156E+03  0.00000000000E+00 0.  1.
         -6    2    1    2    0  503 -0.40137682109E+02 -0.32984214113E+02  0.16460288551E+02  0.17794758184E+03  0.16939719266E+03 0.  0.
        -24    2    3    3    0    0 -0.42347904918E+01  0.14444387299E+02  0.66634358796E+02  0.99985942667E+02  0.73010116997E+02 0.  0.
          6    2    1    2  501    0  0.40137682109E+02  0.32984214113E+02 -0.23156381411E+03  0.29281899572E+03  0.17152892568E+03 0.  0.
         24    2    5    5    0    0  0.48652479179E+02 -0.47659267288E+02 -0.12576916707E+03  0.15943807429E+03  0.70456700583E+02 0.  0.
          5    1    5    5  501    0 -0.85147970692E+01  0.80643481401E+02 -0.10579464703E+03  0.13338092143E+03  0.47000000000E+01 0. -1.
        -13    1    6    6    0    0 -0.64099559259E+01 -0.20352368516E+02 -0.22295106083E+01  0.21454070867E+02  0.00000000000E+00 0.  1.
         14    1    6    6    0    0  0.55062435105E+02 -0.27306898772E+02 -0.12353965647E+03  0.13798400342E+03  0.00000000000E+00 0. -1.
         -5    1    3    3    0  503 -0.35902891618E+02 -0.47428601411E+02 -0.50174070245E+02  0.77961639178E+02  0.47000000000E+01 0.  1.
         13    1    4    4    0    0  0.13086193854E+01 -0.29828685576E+02  0.28841230858E+02  0.41512402547E+02  0.00000000000E+00 0. -1.
        -14    1    4    4    0    0 -0.55434098772E+01  0.44273072874E+02  0.37793127938E+02  0.58473540120E+02  0.00000000000E+00 0.  1.
</event>
<event>
12    1  0.9873238E-001  0.2666361E+03  0.7818608E-02  0.1103231E+00
         21   -1    0    0  503  502  0.00000000000E+00  0.00000000000E+00  0.77225587590E+03  0.77225587590E+03  0.00000000000E+00 0. -1.
         21   -1    0    0  501  503 -0.00000000000E+00 -0.00000000000E+00 -0.97363287394E+02  0.97363287394E+02  0.00000000000E+00 0. -1.
          6    2    1    2  501    0 -0.13013653100E+02  0.20315576947E+03  0.43910433735E+03  0.51368248656E+03  0.17209141780E+03 0.  0.
         24    2    3    3    0    0  0.33016721576E+02  0.47318052423E+02  0.22704325321E+03  0.24648184500E+03  0.76652195621E+02 0.  0.
         -6    2    1    2    0  502  0.13013653100E+02 -0.20315576947E+03  0.23578825115E+03  0.35593667673E+03  0.17220103550E+03 0.  0.
        -24    2    5    5    0    0 -0.41922741324E+01 -0.87148471656E+02  0.20429583563E+03  0.23441466510E+03  0.74839932397E+02 0.  0.
          5    1    3    3  501    0 -0.46030374676E+02  0.15583771704E+03  0.21206108413E+03  0.26720064156E+03  0.47000000000E+01 0. -1.
        -13    1    4    4    0    0  0.11331757197E+02  0.19194198672E+02  0.20151835309E+03  0.20274731223E+03  0.00000000000E+00 0.  1.
         14    1    4    4    0    0  0.21684964379E+02  0.28123853751E+02  0.25524900122E+02  0.43734532765E+02  0.00000000000E+00 0. -1.
         -5    1    5    5    0  502  0.17205927233E+02 -0.11600729781E+03  0.31492415523E+02  0.12152201164E+03  0.47000000000E+01 0.  1.
         11    1    6    6    0    0  0.29516390062E+02 -0.17254809213E+02  0.39354349448E+02  0.52131665461E+02  0.00000000000E+00 0. -1.
        -12    1    6    6    0    0 -0.33708664194E+02 -0.69893662443E+02  0.16494148618E+03  0.18228299964E+03  0.00000000000E+00 0.  1.
</event>
<event>
12    1  0.9873238E-001  0.2129969E+03  0.7818608E-02  0.1139544E+00
         21   -1    0    0  501  502  0.00000000000E+00  0.00000000000E+00  0.52040327975E+03  0.52040327975E+03  0.00000000000E+00 0.  1.
         21   -1    0    0  502  503 -0.00000000000E+00 -0.00000000000E+00 -0.14304065392E+03  0.14304065392E+03  0.00000000000E+00 0.  1.
         -6    2    1    2    0  503  0.11121548445E+03  0.53051643954E+02  0.39771144156E+03  0.45115635317E+03  0.17373630408E+03 0.  0.
        -24    2    3    3    0    0  0.92362947617E+02 -0.31456768706E+02  0.25292760512E+03  0.28239160789E+03  0.79070882046E+02 0.  0.
          6    2    1    2  501    0 -0.11121548445E+03 -0.53051643954E+02 -0.20348815726E+02  0.21228758050E+03  0.17166415359E+03 0.  0.
         24    2    5    5    0    0 -0.23868274840E+02 -0.10693152077E+02  0.44090540917E+02  0.95675842054E+02  0.80782751310E+02 0.  0.
          5    1    5    5  501    0 -0.87347209605E+02 -0.42358491877E+02 -0.64439356643E+02  0.11661173845E+03  0.47000000000E+01 0. -1.
        -11    1    6    6    0    0 -0.31788887827E+02  0.29175854286E+02  0.30408608422E+02  0.52786810178E+02  0.00000000000E+00 0.  1.
         12    1    6    6    0    0  0.79206129871E+01 -0.39869006363E+02  0.13681932494E+02  0.42889031876E+02  0.00000000000E+00 0. -1.
         -5    1    3    3    0  503  0.18852536829E+02  0.84508412660E+02  0.14478383644E+03  0.16876474528E+03  0.47000000000E+01 0.  1.
         13    1    4    4    0    0  0.21543470961E+02  0.65249945514E+00  0.15899880410E+03  0.16045300434E+03  0.00000000000E+00 0. -1.
        -14    1    4    4    0    0  0.70819476656E+02 -0.32109268161E+02  0.93928801019E+02  0.12193860355E+03  0.00000000000E+00 0.  1.
</event>
<event>
12    1  0.9873238E-001  0.2709868E+03  0.7818608E-02  0.1100816E+00
         21   -1    0    0  501  502  0.00000000000E+00  0.00000000000E+00  0.49180690006E+03  0.49180690006E+03  0.00000000000E+00 0.  1.
         21   -1    0    0  502  503 -0.00000000000E+00 -0.00000000000E+00 -0.17105066750E+03  0.17105066750E+03  0.00000000000E+00 0.  1.
         -6    2    1    2    0  503  0.73704035635E+02 -0.19409545503E+03  0.27939056857E+03  0.38873173705E+03  0.17305474005E+03 0.  0.
        -24    2    3    3    0    0 -0.19529348857E+02 -0.10849337375E+03  0.99852966935E+02  0.16901368885E+03  0.80267081668E+02 0.  0.
          6    2    1    2  501    0 -0.73704035635E+02  0.19409545503E+03  0.41365663996E+02  0.27412583051E+03  0.17415086064E+03 0.  0.
         24    2    5    5    0    0 -0.10789024100E+03  0.17122662462E+03  0.33054918127E+01  0.21789108371E+03  0.80664347775E+02 0.  0.
          5    1    5    5  501    0  0.34186205361E+02  0.22868830414E+02  0.38060172184E+02  0.56234746804E+02  0.47000000000E+01 0. -1.
        -13    1    6    6    0    0 -0.59878954894E+02  0.32396614770E+02  0.17544012782E+02  0.70305208003E+02  0.00000000000E+00 0.  1.
         14    1    6    6    0    0 -0.48011286102E+02  0.13883000985E+03 -0.14238520969E+02  0.14758587570E+03  0.00000000000E+00 0. -1.
         -5    1    3    3    0  503  0.93233384492E+02 -0.85602081284E+02  0.17953760163E+03  0.21971804820E+03  0.47000000000E+01 0.  1.
         13    1    4    4    0    0  0.81886020578E+01 -0.10387774290E+03  0.93950417241E+02  0.14030081815E+03  0.00000000000E+00 0. -1.
        -14    1    4    4    0    0 -0.27717950914E+02 -0.46156308468E+01  0.59025496943E+01  0.28712870701E+02  0.00000000000E+00 0.  1.
</event>
<event>
12    1  0.9873238E-001  0.1779262E+03  0.7818608E-02  0.1170523E+00
         21   -1    0    0  501  502  0.00000000000E+00  0.00000000000E+00  0.13389030943E+03  0.13389030943E+03  0.00000000000E+00 0.  1.
         21   -1    0    0  502  503 -0.00000000000E+00 -0.00000000000E+00 -0.23708702689E+03  0.23708702689E+03  0.00000000000E+00 0.  1.
         -6    2    1    2    0  503  0.38109727782E+02 -0.24607702834E+02 -0.26823833222E+02  0.17993682531E+03  0.17204607721E+03 0.  0.
        -24    2    3    3    0    0 -0.20695377388E+02  0.12434527602E+01 -0.66063634679E+02  0.10451683685E+03  0.78291254550E+02 0.  0.
          6    2    1    2  501    0 -0.38109727782E+02  0.24607702834E+02 -0.76372884235E+02  0.19104051101E+03  0.16913240083E+03 0.  0.
         24    2    5    5    0    0  0.38912934324E+02 -0.11931692473E+02 -0.52248823361E+02  0.10231803246E+03  0.77990117844E+02 0.  0.
          5    1    5    5  501    0 -0.77022662106E+02  0.36539395307E+02 -0.24124060873E+02  0.88722478552E+02  0.47000000000E+01 0. -1.
        -11    1    6    6    0    0 -0.31044857924E+01 -0.10622248155E+02 -0.58747591968E+02  0.59780846012E+02  0.00000000000E+00 0.  1.
         12    1    6    6    0    0  0.42017420117E+02 -0.13094443184E+01  0.64987686065E+01  0.42537186450E+02  0.00000000000E+00 0. -1.
         -5    1    3    3    0  503  0.58805105170E+02 -0.25851155595E+02  0.39239801457E+02  0.75419988451E+02  0.47000000000E+01 0.  1.
         13    1    4    4    0    0  0.18414859676E+02 -0.25027126573E+02 -0.40076482623E+02  0.50710832973E+02  0.00000000000E+00 0. -1.
        -14    1    4    4    0    0 -0.39110237064E+02  0.26270579333E+02 -0.25987152057E+02  0.53806003881E+02  0.00000000000E+00 0.  1.
</event>
<event>
12    1  0.9873238E-001  0.1764591E+03  0.7818608E-02  0.1171895E+00
         21   -1    0    0  501  502  0.00000000000E+00  0.00000000000E+00  0.40450042075E+03  0.40450042075E+03  0.00000000000E+00 0. -1.
         21   -1    0    0  502  503 -0.00000000000E+00 -0.00000000000E+00 -0.11471855446E+03  0.11471855446E+03  0.00000000000E+00 0. -1.
         -6    2    1    2    0  503 -0.68323929466E+01 -0.36815676344E+02  0.29658365965E+03  0.34510823297E+03  0.17244056852E+03 0.  0.
        -24    2    3    3    0    0 -0.36713540889E+02 -0.79787945996E+02  0.16453323128E+03  0.20298538260E+03  0.80111677960E+02 0.  0.
          6    2    1    2  501    0  0.68323929466E+01  0.36815676344E+02 -0.68017933614E+01  0.17411074225E+03  0.16990059022E+03 0.  0.
         24    2    5    5    0    0 -0.60680104139E+02  0.72348483939E+01 -0.25367072774E+00  0.99962710888E+02  0.79107908263E+02 0.  0.
          5    1    5    5  501    0  0.67512497085E+02  0.29580827950E+02 -0.65481226337E+01  0.74148031362E+02  0.47000000000E+01 0. -1.
        -13    1    6    6    0    0 -0.68270488187E+02  0.30972037162E+02  0.14702423869E+01  0.74981919527E+02  0.00000000000E+00 0.  1.
         14    1    6    6    0    0  0.75903840484E+01 -0.23737188768E+02 -0.17239131147E+01  0.24980791361E+02  0.00000000000E+00 0. -1.
         -5    1    3    3    0  503  0.29881147943E+02  0.42972269653E+02  0.13205042838E+03  0.14212285036E+03  0.47000000000E+01 0.  1.
         11    1    4    4    0    0 -0.20981820989E+02 -0.35708089713E+02  0.14745962549E+03  0.15316541918E+03  0.00000000000E+00 0. -1.
        -12    1    4    4    0    0 -0.15731719900E+02 -0.44079856283E+02  0.17073605787E+02  0.49819963424E+02  0.00000000000E+00 0.  1.
</event>
<event>
12    1  0.9873238E-001  0.1935022E+03  0.7818608E-02  0.1155363E+00
         21   -1    0    0  501  502  0.00000000000E+00  0.00000000000E+00  0.59255506506E+02  0.59255506506E+02  0.00000000000E+00 0.  1.
         21   -1    0    0  502  503 -0.00000000000E+00 -0.00000000000E+00 -0.97182267866E+03  0.97182267866E+03  0.00000000000E+00 0.  1.
         -6    2    1    2    0  503 -0.64141524501E+02  0.60159955654E+02 -0.76125930347E+03  0.78544192897E+03  0.17224964802E+03 0.  0.
        -24    2    3    3    0    0  0.48992242356E+01  0.18059588334E+02 -0.59426472695E+03  0.59983927678E+03  0.79413104359E+02 0.  0.
          6    2    1    2  501    0  0.64141524501E+02 -0.60159955654E+02 -0.15130786869E+03  0.24563625619E+03  0.17236514671E+03 0.  0.
         24    2    5    5    0    0  0.46712657566E+02 -0.19796394124E+02 -0.17268470554E+03  0.19652371548E+03  0.78915103887E+02 0.  0.
          5    1    5    5  501    0  0.17428866935E+02 -0.40363561529E+02  0.21376836849E+02  0.49112540716E+02  0.47000000000E+01 0. -1.
        -11    1    6    6    0    0  0.64621953021E+02  0.31314524563E+01 -0.11698536194E+03  0.13368387231E+03  0.00000000000E+00 0.  1.
         12    1    6    6    0    0 -0.17909295456E+02 -0.22927846581E+02 -0.55699343592E+02  0.62839843166E+02  0.00000000000E+00 0. -1.
         -5    1    3    3    0  503 -0.69040748736E+02  0.42100367319E+02 -0.16699457652E+03  0.18560265220E+03  0.47000000000E+01 0.  1.
         11    1    4    4    0    0  0.12948675064E+02  0.47314741666E+02 -0.29625125907E+03  0.30028513361E+03  0.00000000000E+00 0. -1.
        -12    1    4    4    0    0 -0.80494508280E+01 -0.29255153332E+02 -0.29801346788E+03  0.29955414317E+03  0.00000000000E+00 0.  1.
</event>
<event>
12    1  0.9873238E-001  0.2276021E+03  0.7818608E-02  0.1128879E+00
         21   -1    0    0  501  502  0.00000000000E+00  0.00000000000E+00  0.27099392529E+03  0.27099392529E+03  0.00000000000E+00 0.  1.
         21   -1    0    0  502  503 -0.00000000000E+00 -0.00000000000E+00 -0.19161779825E+03  0.19161779825E+03  0.00000000000E+00 0.  1.
         -6    2    1    2    0  503 -0.14383473323E+03 -0.25159584948E+02  0.11127875153E+02  0.22787400572E+03  0.17458893916E+03 0.  0.
        -24    2    3    3    0    0 -0.33675375406E+00 -0.21119663989E+02  0.15269039251E+02  0.84182564377E+02  0.80046280209E+02 0.  0.
          6    2    1    2  501    0  0.14383473323E+03  0.25159584948E+02  0.68248251879E+02  0.23473771782E+03  0.17065326568E+03 0.  0.
         24    2    5    5    0    0  0.10416721606E+01 -0.44929393614E+00  0.22537711622E+02  0.82562764376E+02  0.79418981801E+02 0.  0.
          5    1    5    5  501    0  0.14279306107E+03  0.25608878884E+02  0.45710540257E+02  0.15217495345E+03  0.47000000000E+01 0. -1.
        -13    1    6    6    0    0  0.69703341422E+01  0.33234035137E+02 -0.99564078406E+01  0.35386674139E+02  0.00000000000E+00 0.  1.
         14    1    6    6    0    0 -0.59286619815E+01 -0.33683329073E+02  0.32494119463E+02  0.47176090237E+02  0.00000000000E+00 0. -1.
         -5    1    3    3    0  503 -0.14349797947E+03 -0.40399209596E+01 -0.41411640984E+01  0.14369144134E+03  0.47000000000E+01 0.  1.
         13    1    4    4    0    0  0.42892960443E+01  0.16400382940E+01 -0.31569658699E+02  0.31901898635E+02  0.00000000000E+00 0. -1.
        -14    1    4    4    0    0 -0.46260497984E+01 -0.22759702283E+02  0.46838697950E+02  0.52280665742E+02  0.00000000000E+00 0.  1.
</event>
<event>
12    1  0.9873238E-001  0.2405106E+03  0.7818608E-02  0.1119701E+00
         21   -1    0    0  501  502  0.00000000000E+00  0.00000000000E+00  0.98890778474E+03  0.98890778474E+03  0.00000000000E+00 0.  1.
         21   -1    0    0  502  503 -0.00000000000E+00 -0.00000000000E+00 -0.75307184340E+02  0.75307184340E+02  0.00000000000E+00 0.  1.
         -6    2    1    2    0  503 -0.92196720703E+02 -0.13903229420E+03  0.70981714523E+03  0.74898004558E+03  0.17117393166E+03 0.  0.
        -24    2    3    3    0    0 -0.46651345245E+02 -0.15252228113E+03  0.44981955806E+03  0.48463709352E+03  0.84238253454E+02 0.  0.
          6    2    1    2  501    0  0.92196720703E+02  0.13903229420E+03  0.20378345518E+03  0.31523492350E+03  0.17324879871E+03 0.  0.
         24    2    5    5    0    0  0.61975369869E+02  0.14174342920E+03  0.22006304222E+03  0.28048157469E+03  0.79435665775E+02 0.  0.
          5    1    5    5  501    0  0.30221350835E+02 -0.27111350036E+01 -0.16279587045E+02  0.34753348812E+02  0.47000000000E+01 0. -1.
        -13    1    6    6    0    0  0.68638135562E+02  0.11695799595E+03  0.21519220067E+03  0.25435811310E+03  0.00000000000E+00 0.  1.
         14    1    6    6    0    0 -0.66627656937E+01  0.24785433252E+02  0.48708415529E+01  0.26123461593E+02  0.00000000000E+00 0. -1.
         -5    1    3    3    0  503 -0.45545375459E+02  0.13489986926E+02  0.25999758717E+03  0.26434295207E+03  0.47000000000E+01 0.  1.
         11    1    4    4    0    0 -0.29683397030E+02 -0.14368443134E+03  0.30384149340E+03  0.33741068890E+03  0.00000000000E+00 0. -1.
        -12    1    4    4    0    0 -0.16967948214E+02 -0.88378497818E+01  0.14597806466E+03  0.14722640462E+03  0.00000000000E+00 0.  1.
</event>
<event>
12    1  0.9873238E-001  0.4791260E+03  0.7818608E-02  0.1019378E+00
         21   -1    0    0  503  502  0.00000000000E+00  0.00000000000E+00  0.46265476836E+03  0.46265476836E+03  0.00000000000E+00 0.  1.
         21   -1    0    0  501  503 -0.00000000000E+00 -0.00000000000E+00 -0.54096553797E+03  0.54096553797E+03  0.00000000000E+00 0.  1.
          6    2    1    2  501    0  0.16098050546E+03  0.41722332722E+03  0.10527636333E+03  0.49055568663E+03  0.17196435998E+03 0.  0.
         24    2    3    3    0    0  0.41481575955E+02  0.93823346912E+02  0.59277634427E+02  0.14269721761E+03  0.79530600401E+02 0.  0.
         -6    2    1    2    0  502 -0.16098050546E+03 -0.41722332722E+03 -0.18358713294E+03  0.51306461970E+03  0.17187507294E+03 0.  0.
        -24    2    5    5    0    0 -0.13294075304E+03 -0.34566645233E+03 -0.20790698186E+03  0.43231711751E+03  0.80710822692E+02 0.  0.
          5    1    3    3  501    0  0.11949892950E+03  0.32339998030E+03  0.45998728903E+02  0.34785846903E+03  0.47000000000E+01 0. -1.
        -11    1    4    4    0    0 -0.57493996188E+01  0.59317908824E+01 -0.15799112665E+02  0.17828451982E+02  0.00000000000E+00 0.  1.
         12    1    4    4    0    0  0.47230975573E+02  0.87891556029E+02  0.75076747092E+02  0.12486876563E+03  0.00000000000E+00 0. -1.
         -5    1    5    5    0  502 -0.28039752414E+02 -0.71556874882E+02  0.24319848919E+02  0.80747502189E+02  0.47000000000E+01 0.  1.
         13    1    6    6    0    0 -0.36682675543E+02 -0.12796087692E+03 -0.33616179591E+02  0.13729403569E+03  0.00000000000E+00 0. -1.
        -14    1    6    6    0    0 -0.96258077500E+02 -0.21770557542E+03 -0.17429080226E+03  0.29502308182E+03  0.00000000000E+00 0.  1.
</event>
<event>
12    1  0.9873238E-001  0.3104481E+03  0.7818608E-02  0.1080165E+00
         21   -1    0    0  501  502  0.00000000000E+00  0.00000000000E+00  0.17265766654E+03  0.17265766654E+03  0.00000000000E+00 0.  1.
         21   -1    0    0  502  503 -0.00000000000E+00 -0.00000000000E+00 -0.11245762107E+04  0.11245762107E+04  0.00000000000E+00 0.  1.
         -6    2    1    2    0  503  0.22952185687E+03 -0.11557781607E+03 -0.15556874057E+02  0.31083761638E+03  0.17418235582E+03 0.  0.
        -24    2    3    3    0    0  0.19765592826E+03 -0.61504358652E+02  0.40765606523E+02  0.22637645358E+03  0.82059807147E+02 0.  0.
          6    2    1    2  501    0 -0.22952185687E+03  0.11557781607E+03 -0.93636167012E+03  0.98639626087E+03  0.17368330905E+03 0.  0.
         24    2    5    5    0    0 -0.64505448495E+02  0.98047372944E+01 -0.46861478714E+03  0.47922016151E+03  0.76125283007E+02 0.  0.
          5    1    5    5  501    0 -0.16501640837E+03  0.10577307877E+03 -0.46774688298E+03  0.50717609936E+03  0.47000000000E+01 0. -1.
        -11    1    6    6    0    0 -0.26607939507E+02  0.15063631755E+00 -0.35610957925E+02  0.44453857655E+02  0.00000000000E+00 0.  1.
         12    1    6    6    0    0 -0.37897508988E+02  0.96541009769E+01 -0.43300382921E+03  0.43476630385E+03  0.00000000000E+00 0. -1.
         -5    1    3    3    0  503  0.31865928605E+02 -0.54073457415E+02 -0.56322480579E+02  0.84461162799E+02  0.47000000000E+01 0.  1.
         13    1    4    4    0    0  0.42965478264E+02 -0.50522326512E+02  0.12144025632E+01  0.66332590574E+02  0.00000000000E+00 0. -1.
        -14    1    4    4    0    0  0.15469045000E+03 -0.10982032139E+02  0.39551203959E+02  0.16004386300E+03  0.00000000000E+00 0.  1.
</event>
<event>
12    1  0.9873238E-001  0.2120262E+03  0.7818608E-02  0.1140197E+00
         21   -1    0    0  501  502  0.00000000000E+00  0.00000000000E+00  0.17920585590E+03  0.17920585590E+03  0.00000000000E+00 0. -1.
         21   -1    0    0  502  503 -0.00000000000E+00 -0.00000000000E+00 -0.29676448877E+03  0.29676448877E+03  0.00000000000E+00 0. -1.
         -6    2    1    2    0  503 -0.63722726578E+02  0.10457125003E+03  0.36064735327E+02  0.21507153936E+03  0.17308775143E+03 0.  0.
        -24    2    3    3    0    0  0.91382449878E+01  0.10808588388E+03  0.45960645091E+02  0.14130777551E+03  0.78034868524E+02 0.  0.
          6    2    1    2  501    0  0.63722726578E+02 -0.10457125003E+03 -0.15362336820E+03  0.26089880530E+03  0.17167502770E+03 0.  0.
         24    2    5    5    0    0  0.40062307774E+02 -0.78304227480E+02 -0.18016941849E+03  0.21644034517E+03  0.81540561156E+02 0.  0.
          5    1    5    5  501    0  0.23660418804E+02 -0.26267022547E+02  0.26546050288E+02  0.44458460132E+02  0.47000000000E+01 0. -1.
        -13    1    6    6    0    0  0.56375889960E+02 -0.31176747580E+02 -0.67929928811E+02  0.93620007406E+02  0.00000000000E+00 0.  1.
         14    1    6    6    0    0 -0.16313582187E+02 -0.47127479900E+02 -0.11223948968E+03  0.12282033776E+03  0.00000000000E+00 0. -1.
         -5    1    3    3    0  503 -0.72860971565E+02 -0.35146338537E+01 -0.98959097641E+01  0.73763763859E+02  0.47000000000E+01 0.  1.
         13    1    4    4    0    0  0.12508085464E+01 -0.19157988406E+01  0.29750934195E+02  0.29838781690E+02  0.00000000000E+00 0. -1.
        -14    1    4    4    0    0  0.78874364414E+01  0.11000168272E+03  0.16209710896E+02  0.11146899382E+03  0.00000000000E+00 0.  1.
</event>
<event>
12    1  0.9873238E-001  0.2176062E+03  0.7818608E-02  0.1135990E+00
         21   -1    0    0  503  502  0.00000000000E+00  0.00000000000E+00  0.64457035843E+03  0.64457035843E+03  0.00000000000E+00 0.  1.
         21   -1    0    0  501  503 -0.00000000000E+00 -0.00000000000E+00 -0.24651676745E+03  0.24651676745E+03  0.00000000000E+00 0.  1.
          6    2    1    2  501    0  0.88891958497E+02 -0.98971227753E+02  0.57313756305E+03  0.61305718660E+03  0.17220732753E+03 0.  0.
         24    2    3    3    0    0  0.72767017398E+02  0.60171268079E+01  0.25728373059E+03  0.27978807342E+03  0.82190044207E+02 0.  0.
         -6    2    1    2    0  502 -0.88891958497E+02  0.98971227753E+02 -0.17508397207E+03  0.27802993929E+03  0.17014454342E+03 0.  0.
        -24    2    5    5    0    0  0.10822048172E+02 -0.61325804971E+01 -0.51341074813E+02  0.87441145663E+02  0.69680145821E+02 0.  0.
          5    1    3    3  501    0  0.16124941099E+02 -0.10498835456E+03  0.31585383246E+03  0.33326911318E+03  0.47000000000E+01 0. -1.
        -13    1    4    4    0    0 -0.16055870486E+02 -0.95784377795E+01  0.60530645609E+02  0.63352162593E+02  0.00000000000E+00 0.  1.
         14    1    4    4    0    0  0.88822887884E+02  0.15595564587E+02  0.19675308498E+03  0.21643591083E+03  0.00000000000E+00 0. -1.
         -5    1    5    5    0  502 -0.99714006669E+02  0.10510380825E+03 -0.12374289725E+03  0.19058879362E+03  0.47000000000E+01 0.  1.
         13    1    6    6    0    0  0.26345382427E+02  0.23472595345E+02 -0.15835868103E+02  0.38675788629E+02  0.00000000000E+00 0. -1.
        -14    1    6    6    0    0 -0.15523334256E+02 -0.29605175843E+02 -0.35505206710E+02  0.48765357034E+02  0.00000000000E+00 0.  1.
</event>
<event>
12    1  0.9873238E-001  0.3753377E+03  0.7818608E-02  0.1053110E+00
         21   -1    0    0  503  502  0.00000000000E+00  0.00000000000E+00  0.32785600101E+03  0.32785600101E+03  0.00000000000E+00 0. -1.
         21   -1    0    0  501  503 -0.00000000000E+00 -0.00000000000E+00 -0.45123329516E+03  0.45123329516E+03  0.00000000000E+00 0. -1.
          6    2    1    2  501    0  0.31123366681E+03  0.10348994927E+03  0.32965846975E+02  0.37678257475E+03  0.18248779853E+03 0.  0.
         24    2    3    3    0    0  0.31430933258E+03  0.12335590432E+03  0.12780982316E+02  0.34790984278E+03  0.82890708273E+02 0.  0.
         -6    2    1    2    0  502 -0.31123366681E+03 -0.10348994927E+03 -0.15634314113E+03  0.40230672142E+03  0.17271640155E+03 0.  0.
        -24    2    5    5    0    0 -0.24563643696E+03 -0.65154785022E+02 -0.48179379918E+02  0.27004156871E+03  0.77580867542E+02 0.  0.
          5    1    3    3  501    0 -0.30756657713E+01 -0.19865955048E+02  0.20184864659E+02  0.28872731967E+02  0.47000000000E+01 0. -1.
        -13    1    4    4    0    0  0.21990171199E+03  0.58659442461E+02  0.37932122577E+02  0.23073044673E+03  0.00000000000E+00 0.  1.
         14    1    4    4    0    0  0.94407620595E+02  0.64696461855E+02 -0.25151140260E+02  0.11717939605E+03  0.00000000000E+00 0. -1.
         -5    1    5    5    0  502 -0.65597229852E+02 -0.38335164246E+02 -0.10816376121E+03  0.13226515271E+03  0.47000000000E+01 0.  1.
         13    1    6    6    0    0 -0.28397402211E+01 -0.18150831878E+02 -0.22641402894E+01  0.18510622724E+02  0.00000000000E+00 0. -1.
        -14    1    6    6    0    0 -0.24279669674E+03 -0.47003953144E+02 -0.45915239629E+02  0.25153094599E+03  0.00000000000E+00 0.  1.
</event>
<event>
12    1  0.9873238E-001  0.1991973E+03  0.7818608E-02  0.1150491E+00
         21   -1    0    0  501  502  0.00000000000E+00  0.00000000000E+00  0.79434156679E+02  0.79434156679E+02  0.00000000000E+00 0.  1.
         21   -1    0    0  502  503 -0.00000000000E+00 -0.00000000000E+00 -0.50421630885E+03  0.50421630885E+03  0.00000000000E+00 0. -1.
         -6    2    1    2    0  503 -0.18261489506E+02  0.10217549461E+03 -0.24283937026E+03  0.31386772713E+03  0.16961331517E+03 0.  0.
        -24    2    3    3    0    0  0.76652751726E+00  0.44123202087E+02 -0.38642847928E+02  0.10067663014E+03  0.81823405174E+02 0.  0.
          6    2    1    2  501    0  0.18261489506E+02 -0.10217549461E+03 -0.18194278191E+03  0.26978273841E+03  0.17001834123E+03 0.  0.
         24    2    5    5    0    0  0.10202797756E+02  0.28083090980E+01 -0.15378024656E+02  0.72672490291E+02  0.70234062397E+02 0.  0.
          5    1    5    5  501    0  0.80586917498E+01 -0.10498380370E+03 -0.16656475725E+03  0.19711024812E+03  0.47000000000E+01 0. -1.
        -11    1    6    6    0    0 -0.28524537619E+02 -0.79195255760E+01  0.11469960293E+00  0.29603737732E+02  0.00000000000E+00 0.  1.
         12    1    6    6    0    0  0.38727335375E+02  0.10727834674E+02 -0.15492724259E+02  0.43068752559E+02  0.00000000000E+00 0. -1.
         -5    1    3    3    0  503 -0.19028017023E+02  0.58052292519E+02 -0.20419652234E+03  0.21319109698E+03  0.47000000000E+01 0.  1.
         13    1    4    4    0    0  0.30312156768E+02 -0.60298988773E+01 -0.17755096407E+00  0.30906602090E+02  0.00000000000E+00 0. -1.
        -14    1    4    4    0    0 -0.29545629251E+02  0.50153100964E+02 -0.38465296964E+02  0.69770028054E+02  0.00000000000E+00 0.  1.
</event>
<event>
12    1  0.9873238E-001  0.1880420E+03  0.7818608E-02  0.1160721E+00
         21   -1    0    0  501  502  0.00000000000E+00  0.00000000000E+00  0.59057169158E+03  0.59057169158E+03  0.00000000000E+00 0.  1.
         21   -1    0    0  502  503 -0.00000000000E+00 -0.00000000000E+00 -0.59259771538E+02  0.59259771538E+02  0.00000000000E+00 0.  1.
         -6    2    1    2    0  503  0.57412475382E+02 -0.48310134206E+02  0.25463862048E+03  0.31530508330E+03  0.17013643676E+03 0.  0.
        -24    2    3    3    0    0  0.63728906827E+02  0.23314244419E+02  0.18985045898E+03  0.21840541977E+03  0.83980968405E+02 0.  0.
          6    2    1    2  501    0 -0.57412475382E+02  0.48310134206E+02  0.27667329956E+03  0.33452637982E+03  0.17242309216E+03 0.  0.
         24    2    5    5    0    0 -0.11746499752E+02  0.72825121536E+02  0.25608218828E+03  0.27855808703E+03  0.81086633390E+02 0.  0.
          5    1    5    5  501    0 -0.45665975630E+02 -0.24514987330E+02  0.20591111281E+02  0.55968292790E+02  0.47000000000E+01 0. -1.
        -13    1    6    6    0    0  0.34533292212E+02  0.33081601214E+02  0.96135326860E+02  0.10737290943E+03  0.00000000000E+00 0.  1.
         14    1    6    6    0    0 -0.46279791963E+02  0.39743520322E+02  0.15994686142E+03  0.17118517760E+03  0.00000000000E+00 0. -1.
         -5    1    3    3    0  503 -0.63164314449E+01 -0.71624378625E+02  0.64788161506E+02  0.96899663524E+02  0.47000000000E+01 0.  1.
         13    1    4    4    0    0  0.68265630104E+02  0.19157857562E+02  0.19676487735E+03  0.20914979493E+03  0.00000000000E+00 0. -1.
        -14    1    4    4    0    0 -0.45367232771E+01  0.41563868567E+01 -0.69144183743E+01  0.92556248439E+01  0.00000000000E+00 0.  1.
</event>
<event>
12    1  0.9873238E-001  0.1728816E+03  0.7818608E-02  0.1174902E+00
         21   -1    0    0  501  502  0.00000000000E+00  0.00000000000E+00  0.77792619760E+02  0.77792619760E+02  0.00000000000E+00 0.  1.
         21   -1    0    0  502  503 -0.00000000000E+00 -0.00000000000E+00 -0.50587808229E+03  0.50587808229E+03  0.00000000000E+00 0.  1.
         -6    2    1    2    0  503 -0.14294400173E+02 -0.21758470345E+01 -0.35725477117E+03  0.39684177116E+03  0.17217245895E+03 0.  0.
        -24    2    3    3    0    0 -0.26498512816E+02 -0.46930278389E+02 -0.33536166283E+03  0.34533160047E+03  0.62304471545E+02 0.  0.
          6    2    1    2  501    0  0.14294400173E+02  0.21758470345E+01 -0.70830691356E+02  0.18682893089E+03  0.17227593678E+03 0.  0.
         24    2    5    5    0    0  0.14092654430E+02 -0.66396136841E+02 -0.23572091465E+02  0.10341656408E+03  0.74379381104E+02 0.  0.
          5    1    5    5  501    0  0.20174574289E+00  0.68571983876E+02 -0.47258599891E+02  0.83412366815E+02  0.47000000000E+01 0. -1.
        -11    1    6    6    0    0  0.33935638194E+02 -0.24886562966E+02 -0.36413086722E+02  0.55649631090E+02  0.00000000000E+00 0.  1.
         12    1    6    6    0    0 -0.19842983764E+02 -0.41509573875E+02  0.12840995257E+02  0.47766932989E+02  0.00000000000E+00 0. -1.
         -5    1    3    3    0  503  0.12204112644E+02  0.44754431354E+02 -0.21893108339E+02  0.51510170685E+02  0.47000000000E+01 0.  1.
         11    1    4    4    0    0  0.17392617289E+02 -0.16433327443E+02 -0.55913654743E+02  0.60818534788E+02  0.00000000000E+00 0. -1.
        -12    1    4    4    0    0 -0.43891130105E+02 -0.30496950946E+02 -0.27944800809E+03  0.28451306568E+03  0.00000000000E+00 0.  1.
</event>
<event>
12    1  0.9873238E-001  0.3319110E+03  0.7818608E-02  0.1070377E+00
         21   -1    0    0  503  502  0.00000000000E+00  0.00000000000E+00  0.74623518877E+02  0.74623518877E+02  0.00000000000E+00 0.  1.
         21   -1    0    0  501  503 -0.00000000000E+00 -0.00000000000E+00 -0.16337059994E+04  0.16337059994E+04  0.00000000000E+00 0.  1.
          6    2    1    2  501    0 -0.25962591201E+03  0.11328971772E+03 -0.51239630844E+03  0.61050377680E+03  0.17298760147E+03 0.  0.
         24    2    3    3    0    0 -0.12707645044E+03  0.10080332146E+03 -0.39164067866E+03  0.43070032306E+03  0.76227378486E+02 0.  0.
         -6    2    1    2    0  502  0.25962591201E+03 -0.11328971772E+03 -0.10466861721E+04  0.10978257414E+04  0.17154953065E+03 0.  0.
        -24    2    5    5    0    0  0.25435846543E+03 -0.10993811607E+03 -0.80110209158E+03  0.85211735777E+03  0.86918421310E+02 0.  0.
          5    1    3    3  501    0 -0.13254946158E+03  0.12486396265E+02 -0.12075562978E+03  0.17980345375E+03  0.47000000000E+01 0. -1.
        -13    1    4    4    0    0 -0.68296602785E+01 -0.73817868263E+01 -0.69577739591E+02  0.70300760187E+02  0.00000000000E+00 0.  1.
         14    1    4    4    0    0 -0.12024679016E+03  0.10818510828E+03 -0.32206293906E+03  0.36039956287E+03  0.00000000000E+00 0. -1.
         -5    1    5    5    0  502  0.52674465848E+01 -0.33516016496E+01 -0.24558408047E+03  0.24570838367E+03  0.47000000000E+01 0.  1.
         11    1    6    6    0    0  0.24033822505E+03 -0.12040266189E+03 -0.77805548314E+03  0.82318260323E+03  0.00000000000E+00 0. -1.
        -12    1    6    6    0    0  0.14020240377E+02  0.10464545817E+02 -0.23046608441E+02  0.28934754535E+02  0.00000000000E+00 0.  1.
</event>
<event>
12    1  0.9873238E-001  0.2638872E+03  0.7818608E-02  0.1104912E+00
         21   -1    0    0  501  502  0.00000000000E+00  0.00000000000E+00  0.59600420392E+03  0.59600420392E+03  0.00000000000E+00 0. -1.
         21   -1    0    0  502  503 -0.00000000000E+00 -0.00000000000E+00 -0.12355719444E+03  0.12355719444E+03  0.00000000000E+00 0. -1.
         -6    2    1    2    0  503 -0.89778463885E+02 -0.17880832684E+03  0.32187221674E+03  0.41621890480E+03  0.17205773008E+03 0.  0.
        -24    2    3    3    0    0 -0.10604612770E+03 -0.18586585086E+03  0.23534939664E+03  0.32777268425E+03  0.79080328298E+02 0.  0.
          6    2    1    2  501    0  0.89778463885E+02  0.17880832684E+03  0.15057479274E+03  0.30334249355E+03  0.17120546095E+03 0.  0.
         24    2    5    5    0    0  0.75145447410E+02  0.39628563072E+02  0.37260220994E+02  0.12321083619E+03  0.81088376532E+02 0.  0.
          5    1    5    5  501    0  0.14633016474E+02  0.13917976377E+03  0.11331457174E+03  0.18013165736E+03  0.47000000000E+01 0. -1.
        -11    1    6    6    0    0  0.70043499096E+02  0.59815506148E+02  0.16064664340E+02  0.93498983854E+02  0.00000000000E+00 0.  1.
         12    1    6    6    0    0  0.51019483140E+01 -0.20186943076E+02  0.21195556654E+02  0.29711852336E+02  0.00000000000E+00 0. -1.
         -5    1    3    3    0  503  0.16267663817E+02  0.70575240262E+01  0.86522820108E+02  0.88446220557E+02  0.47000000000E+01 0.  1.
         13    1    4    4    0    0 -0.28880737391E+02 -0.95046459428E+02  0.15479122266E+03  0.18392457437E+03  0.00000000000E+00 0. -1.
        -14    1    4    4    0    0 -0.77165390311E+02 -0.90819391435E+02  0.80558173972E+02  0.14384810988E+03  0.00000000000E+00 0.  1.
</event>
<event>
12    1  0.9873238E-001  0.2432985E+03  0.7818608E-02  0.1119469E+00
         21   -1    0    0  501  502  0.00000000000E+00  0.00000000000E+00  0.94967516189E+02  0.94967516189E+02  0.00000000000E+00 0. -1.
         21   -1    0    0  502  503 -0.00000000000E+00 -0.00000000000E+00 -0.84565779286E+03  0.84565779286E+03  0.00000000000E+00 0. -1.
         -6    2    1    2    0  503  0.13640472683E+03 -0.10639064876E+03 -0.11335934850E+03  0.25843406745E+03  0.15496001317E+03 0.  0.
        -24    2    3    3    0    0  0.13558210342E+03 -0.13252614690E+03 -0.10345171155E+03  0.23007931049E+03  0.79300353802E+02 0.  0.
          6    2    1    2  501    0 -0.13640472683E+03  0.10639064876E+03 -0.63733092817E+03  0.68219124160E+03  0.17108173035E+03 0.  0.
         24    2    5    5    0    0 -0.90825113652E+02  0.34005478878E+01 -0.24478587583E+03  0.27378192469E+03  0.82314350429E+02 0.  0.
          5    1    5    5  501    0 -0.45579613182E+02  0.10299010088E+03 -0.39254505234E+03  0.40840931690E+03  0.47000000000E+01 0. -1.
        -11    1    6    6    0    0 -0.25607228470E+02  0.40173902742E+02 -0.89558779137E+02  0.10144184310E+03  0.00000000000E+00 0.  1.
         12    1    6    6    0    0 -0.65217885183E+02 -0.36773354854E+02 -0.15522709670E+03  0.17234008159E+03  0.00000000000E+00 0. -1.
         -5    1    3    3    0  503  0.82262341294E+00  0.26135498139E+02 -0.99076369527E+01  0.28354756960E+02  0.47000000000E+01 0.  1.
         11    1    4    4    0    0  0.19235670632E+02 -0.59251144216E+02 -0.82489571031E+01  0.62839115277E+02  0.00000000000E+00 0. -1.
        -12    1    4    4    0    0  0.11634643279E+03 -0.73275002688E+02 -0.95202754445E+02  0.16724019522E+03  0.00000000000E+00 0.  1.
</event>
<event>
12    1  0.9873238E-001  0.2250906E+03  0.7818608E-02  0.1130169E+00
         21   -1    0    0  501  502  0.00000000000E+00  0.00000000000E+00  0.25525534393E+03  0.25525534393E+03  0.00000000000E+00 0. -1.
         21   -1    0    0  502  503 -0.00000000000E+00 -0.00000000000E+00 -0.21373913259E+03  0.21373913259E+03  0.00000000000E+00 0. -1.
         -6    2    1    2    0  503 -0.14195428626E+03 -0.27468314537E+02  0.83653014843E+02  0.24013248063E+03  0.17251160445E+03 0.  0.
        -24    2    3    3    0    0 -0.73801483181E+02 -0.71161046026E+02  0.91524771686E+02  0.15865908677E+03  0.79280316533E+02 0.  0.
          6    2    1    2  501    0  0.14195428626E+03  0.27468314537E+02 -0.42136803505E+02  0.22886199589E+03  0.17232752322E+03 0.  0.
         24    2    5    5    0    0  0.48536503824E+02  0.25977312560E+02 -0.82758248942E+02  0.12687524679E+03  0.78852948632E+02 0.  0.
          5    1    5    5  501    0  0.93417782437E+02  0.14910019770E+01  0.40621445437E+02  0.10198674910E+03  0.47000000000E+01 0. -1.
        -13    1    6    6    0    0  0.45807504813E+02 -0.13368672943E+02 -0.71316791198E+02  0.85808703639E+02  0.00000000000E+00 0.  1.
         14    1    6    6    0    0  0.27289990106E+01  0.39345985503E+02 -0.11441457744E+02  0.41066543148E+02  0.00000000000E+00 0. -1.
         -5    1    3    3    0  503 -0.68152803079E+02  0.43692731489E+02 -0.78717568433E+01  0.81473393868E+02  0.47000000000E+01 0.  1.
         13    1    4    4    0    0 -0.49968433219E+01 -0.46939894260E+02  0.66482416171E+02  0.81536702020E+02  0.00000000000E+00 0. -1.
        -14    1    4    4    0    0 -0.68804639859E+02 -0.24221151766E+02  0.25042355516E+02  0.77122384746E+02  0.00000000000E+00 0.  1.
</event>
<event>
12    1  0.9873238E-001  0.2441096E+03  0.7818608E-02  0.1117103E+00
         21   -1    0    0  503  502  0.00000000000E+00  0.00000000000E+00  0.37472149664E+03  0.37472149664E+03  0.00000000000E+00 0. -1.
         21   -1    0    0  501  503 -0.00000000000E+00 -0.00000000000E+00 -0.16800708042E+03  0.16800708042E+03  0.00000000000E+00 0. -1.
          6    2    1    2  501    0  0.13117772762E+03  0.11198214268E+03  0.16633671708E+03  0.29530210211E+03  0.17259151647E+03 0.  0.
         24    2    3    3    0    0  0.18826705254E+02  0.33745956050E+02  0.12314862450E+03  0.15166730665E+03  0.79650196548E+02 0.  0.
         -6    2    1    2    0  502 -0.13117772762E+03 -0.11198214268E+03  0.40377699136E+02  0.24742647495E+03  0.17274809816E+03 0.  0.
        -24    2    5    5    0    0 -0.35358892293E+02 -0.40882626145E+01 -0.20214762874E+02  0.90851013876E+02  0.81106750206E+02 0.  0.
          5    1    3    3  501    0  0.11235102237E+03  0.78236186632E+02  0.43188092575E+02  0.14363479546E+03  0.47000000000E+01 0. -1.
        -13    1    4    4    0    0 -0.12464308986E+02 -0.16191055023E+02  0.73117371368E+01  0.21701860777E+02  0.00000000000E+00 0.  1.
         14    1    4    4    0    0  0.31291014240E+02  0.49937011073E+02  0.11583688737E+03  0.12996544588E+03  0.00000000000E+00 0. -1.
         -5    1    5    5    0  502 -0.95818835328E+02 -0.10789388007E+03  0.60592462010E+02  0.15657546108E+03  0.47000000000E+01 0.  1.
         13    1    6    6    0    0 -0.11300521239E+02 -0.39573285253E+02 -0.24285597727E+02  0.47786367752E+02  0.00000000000E+00 0. -1.
        -14    1    6    6    0    0 -0.24058371054E+02  0.35485022638E+02  0.40708348532E+01  0.43064646124E+02  0.00000000000E+00 0.  1.
</event>
<event>
12    1  0.9873238E-001  0.2656007E+03  0.7818608E-02  0.1104321E+00
         21   -1    0    0  501  502  0.00000000000E+00  0.00000000000E+00  0.73464385793E+03  0.73464385793E+03  0.00000000000E+00 0.  1.
         21   -1    0    0  502  503 -0.00000000000E+00 -0.00000000000E+00 -0.11087218795E+03  0.11087218795E+03  0.00000000000E+00 0.  1.
         -6    2    1    2    0  503 -0.55499488070E+02 -0.19468656764E+03  0.47110031879E+03  0.53916284867E+03  0.16666737602E+03 0.  0.
        -24    2    3    3    0    0 -0.87191109200E+01 -0.19602802477E+03  0.34876062376E+03  0.40809304219E+03  0.80018429149E+02 0.  0.
          6    2    1    2  501    0  0.55499488070E+02  0.19468656764E+03  0.15267135120E+03  0.30635319721E+03  0.17193221679E+03 0.  0.
         24    2    5    5    0    0 -0.27769513300E+02  0.10078191146E+03  0.11421918142E+03  0.17500453752E+03  0.81562412937E+02 0.  0.
          5    1    5    5  501    0  0.83269001370E+02  0.93904656181E+02  0.38452169780E+02  0.13134865969E+03  0.47000000000E+01 0. -1.
        -11    1    6    6    0    0 -0.32138722550E+02  0.51823967813E+02  0.12810390496E+02  0.62311533698E+02  0.00000000000E+00 0.  1.
         12    1    6    6    0    0  0.43692092501E+01  0.48957943645E+02  0.10140879092E+03  0.11269300383E+03  0.00000000000E+00 0. -1.
         -5    1    3    3    0  503 -0.46780377150E+02  0.13414571277E+01  0.12233969502E+03  0.13106980648E+03  0.47000000000E+01 0.  1.
         11    1    4    4    0    0 -0.33161524598E+02 -0.58283959530E+02  0.15704569039E+03  0.17076315622E+03  0.00000000000E+00 0. -1.
        -12    1    4    4    0    0  0.24442413678E+02 -0.13774406524E+03  0.19171493338E+03  0.23732988597E+03  0.00000000000E+00 0.  1.
</event>
<event>
12    1  0.9873238E-001  0.1977239E+03  0.7818608E-02  0.1151682E+00
         21   -1    0    0  501  502  0.00000000000E+00  0.00000000000E+00  0.20653962749E+03  0.20653962749E+03  0.00000000000E+00 0. -1.
         21   -1    0    0  502  503 -0.00000000000E+00 -0.00000000000E+00 -0.20682310607E+03  0.20682310607E+03  0.00000000000E+00 0. -1.
         -6    2    1    2    0  503 -0.75942170471E+02  0.60823630486E+02 -0.60391841592E+02  0.20674121547E+03  0.17212794184E+03 0.  0.
        -24    2    3    3    0    0  0.22721348716E+02  0.36620589952E+01 -0.32746366737E+02  0.89317633707E+02  0.79847634861E+02 0.  0.
          6    2    1    2  501    0  0.75942170471E+02 -0.60823630486E+02  0.60108363016E+02  0.20662151809E+03  0.17208343659E+03 0.  0.
         24    2    5    5    0    0  0.10129069343E+03 -0.70003295105E+02  0.85345952822E+02  0.16939464878E+03  0.79059151733E+02 0.  0.
          5    1    5    5  501    0 -0.25348522959E+02  0.91796646184E+01 -0.25237589806E+02  0.37226869301E+02  0.47000000000E+01 0. -1.
        -11    1    6    6    0    0  0.25019822754E+02 -0.21587464579E+02 -0.13309620883E+02  0.35625218113E+02  0.00000000000E+00 0.  1.
         12    1    6    6    0    0  0.76270870677E+02 -0.48415830526E+02  0.98655573704E+02  0.13376943067E+03  0.00000000000E+00 0. -1.
         -5    1    3    3    0  503 -0.98663519188E+02  0.57161571491E+02 -0.27645474855E+02  0.11742358176E+03  0.47000000000E+01 0.  1.
         13    1    4    4    0    0 -0.25749089191E+02  0.17199584366E+02 -0.36322705212E+01  0.31177470803E+02  0.00000000000E+00 0. -1.
        -14    1    4    4    0    0  0.48470437907E+02 -0.13537525371E+02 -0.29114096215E+02  0.58140162904E+02  0.00000000000E+00 0.  1.
</event>
<event>
12    1  0.9873238E-001  0.3132593E+03  0.7818608E-02  0.1078828E+00
         21   -1    0    0  503  502  0.00000000000E+00  0.00000000000E+00  0.47796714811E+03  0.47796714811E+03  0.00000000000E+00 0.  1.
         21   -1    0    0  501  503 -0.00000000000E+00 -0.00000000000E+00 -0.28454174068E+03  0.28454174068E+03  0.00000000000E+00 0.  1.
          6    2    1    2  501    0  0.25955198219E+03  0.31676596552E+02  0.29810394464E+03  0.43222262889E+03  0.17198779284E+03 0.  0.
         24    2    3    3    0    0  0.11379258832E+03 -0.43086995387E+02  0.17303809698E+03  0.22606988980E+03  0.79750672355E+02 0.  0.
         -6    2    1    2    0  502 -0.25955198219E+03 -0.31676596552E+02 -0.10467853721E+03  0.33028625990E+03  0.17251312732E+03 0.  0.
        -24    2    5    5    0    0 -0.80166170963E+02  0.18349022864E+02 -0.86071412354E+02  0.14306941513E+03  0.79355326951E+02 0.  0.
          5    1    3    3  501    0  0.14575939388E+03  0.74763591940E+02  0.12506584767E+03  0.20615273909E+03  0.47000000000E+01 0. -1.
        -11    1    4    4    0    0  0.25824487309E+02  0.15878465220E+02  0.10514118270E+02  0.32087014281E+02  0.00000000000E+00 0.  1.
         12    1    4    4    0    0  0.87968101009E+02 -0.58965460607E+02  0.16252397871E+03  0.19398287552E+03  0.00000000000E+00 0. -1.
         -5    1    5    5    0  502 -0.17938581123E+03 -0.50025619416E+02 -0.18607124857E+02  0.18721684477E+03  0.47000000000E+01 0.  1.
         11    1    6    6    0    0 -0.59444932099E+02 -0.21171841103E+02 -0.26028077597E+02  0.68259853731E+02  0.00000000000E+00 0. -1.
        -12    1    6    6    0    0 -0.20721238864E+02  0.39520863967E+02 -0.60043334757E+02  0.74809561404E+02  0.00000000000E+00 0.  1.
</event>
<event>
12    1  0.9873238E-001  0.1750342E+03  0.7818608E-02  0.1172717E+00
         21   -1    0    0  503  502  0.00000000000E+00  0.00000000000E+00  0.62130706545E+02  0.62130706545E+02  0.00000000000E+00 0. -1.
         21   -1    0    0  501  503 -0.00000000000E+00 -0.00000000000E+00 -0.55053157878E+03  0.55053157878E+03  0.00000000000E+00 0. -1.
          6    2    1    2  501    0  0.17236795710E+02 -0.26370505003E+02 -0.14512184255E+03  0.22737044630E+03  0.17217566613E+03 0.  0.
         24    2    3    3    0    0 -0.25097652750E+02  0.40591144129E+02 -0.60029597092E+02  0.11101388990E+03  0.80268288059E+02 0.  0.
         -6    2    1    2    0  502 -0.17236795710E+02  0.26370505003E+02 -0.34327902968E+03  0.38529183902E+03  0.17209531759E+03 0.  0.
        -24    2    5    5    0    0 -0.28976273558E+01 -0.48917587794E+02 -0.23869976293E+03  0.25555047438E+03  0.76987930803E+02 0.  0.
          5    1    3    3  501    0  0.42334448460E+02 -0.66961649133E+02 -0.85092245455E+02  0.11635655640E+03  0.47000000000E+01 0. -1.
        -11    1    4    4    0    0 -0.33690678481E+02  0.78601225172E+01 -0.67958264277E+02  0.76257255563E+02  0.00000000000E+00 0.  1.
         12    1    4    4    0    0  0.85930257311E+01  0.32731021612E+02  0.79286671843E+01  0.34756634335E+02  0.00000000000E+00 0. -1.
         -5    1    5    5    0  502 -0.14339168354E+02  0.75288092797E+02 -0.10457926675E+03  0.12974136464E+03  0.47000000000E+01 0.  1.
         13    1    6    6    0    0 -0.35632897323E+02 -0.24138451646E+02 -0.72122116498E+02  0.83987903342E+02  0.00000000000E+00 0. -1.
        -14    1    6    6    0    0  0.32735269967E+02 -0.24779136148E+02 -0.16657764644E+03  0.17156257104E+03  0.00000000000E+00 0.  1.
</event>
<event>
12    1  0.9873238E-001  0.2373577E+03  0.7818608E-02  0.1122632E+00
         21   -1    0    0  501  502  0.00000000000E+00  0.00000000000E+00  0.31527610745E+03  0.31527610745E+03  0.00000000000E+00 0.  1.
         21   -1    0    0  502  503 -0.00000000000E+00 -0.00000000000E+00 -0.20310568409E+03  0.20310568409E+03  0.00000000000E+00 0.  1.
         -6    2    1    2    0  503  0.15617052615E+02  0.15316749887E+03  0.15348665994E+03  0.27745504517E+03  0.17239191474E+03 0.  0.
        -24    2    3    3    0    0  0.76387717895E+02  0.10773894927E+03  0.11556917123E+03  0.19250416037E+03  0.79112917967E+02 0.  0.
          6    2    1    2  501    0 -0.15617052615E+02 -0.15316749887E+03 -0.41316236579E+02  0.24092674637E+03  0.18065018868E+03 0.  0.
         24    2    5    5    0    0 -0.71906598753E+02 -0.69947087989E+02  0.94560099457E+01  0.12825882366E+03  0.79358400056E+02 0.  0.
          5    1    5    5  501    0  0.56289546138E+02 -0.83220410879E+02 -0.50772246525E+02  0.11266792271E+03  0.47000000000E+01 0. -1.
        -13    1    6    6    0    0 -0.38771529567E+02 -0.23209440872E+02  0.42573562842E+02  0.62083958505E+02  0.00000000000E+00 0.  1.
         14    1    6    6    0    0 -0.33135069186E+02 -0.46737647117E+02 -0.33117552897E+02  0.66174865152E+02  0.00000000000E+00 0. -1.
         -5    1    3    3    0  503 -0.60770665279E+02  0.45428549602E+02  0.37917488713E+02  0.84950884796E+02  0.47000000000E+01 0.  1.
         11    1    4    4    0    0  0.53626843081E+02  0.10919438607E+03  0.67084313143E+02  0.13892284663E+03  0.00000000000E+00 0. -1.
        -12    1    4    4    0    0  0.22760874814E+02 -0.14554368006E+01  0.48484858085E+02  0.53581313740E+02  0.00000000000E+00 0.  1.
</event>
<event>
12    1  0.9873238E-001  0.2165786E+03  0.7818608E-02  0.1136504E+00
         21   -1    0    0  501  502  0.00000000000E+00  0.00000000000E+00  0.15325222344E+03  0.15325222344E+03  0.00000000000E+00 0.  1.
         21   -1    0    0  502  503 -0.00000000000E+00 -0.00000000000E+00 -0.31268128635E+03  0.31268128635E+03  0.00000000000E+00 0.  1.
         -6    2    1    2    0  503  0.17269834625E+02 -0.13086607489E+03 -0.11444902322E+03  0.24495890674E+03  0.17170355363E+03 0.  0.
        -24    2    3    3    0    0 -0.41797288177E+02 -0.65878131938E+02 -0.18056761229E+02  0.11447551355E+03  0.81802536698E+02 0.  0.
          6    2    1    2  501    0 -0.17269834625E+02  0.13086607489E+03 -0.44980039690E+02  0.22097460305E+03  0.17141293556E+03 0.  0.
         24    2    5    5    0    0  0.47859929392E+02  0.11670497113E+03 -0.36071610477E+02  0.15356634590E+03  0.79817531814E+02 0.  0.
          5    1    5    5  501    0 -0.65129764017E+02  0.14161103766E+02 -0.89084292134E+01  0.67408257149E+02  0.47000000000E+01 0. -1.
        -13    1    6    6    0    0  0.53956626918E+01 -0.40083491493E+01 -0.24126718409E+02  0.25045530139E+02  0.00000000000E+00 0.  1.
         14    1    6    6    0    0  0.42464266700E+02  0.12071332027E+03 -0.11944892068E+02  0.12852081576E+03  0.00000000000E+00 0. -1.
         -5    1    3    3    0  503  0.59067122802E+02 -0.64987942953E+02 -0.96392261996E+02  0.13048339319E+03  0.47000000000E+01 0.  1.
         13    1    4    4    0    0 -0.32310047410E+02 -0.57521921462E+02 -0.48254142856E+02  0.81738442088E+02  0.00000000000E+00 0. -1.
        -14    1    4    4    0    0 -0.94872407668E+01 -0.83562104766E+01  0.30197381627E+02  0.32737071464E+02  0.00000000000E+00 0.  1.
</event>
<event>
12    1  0.9873238E-001  0.2415779E+03  0.7818608E-02  0.1118749E+00
         21   -1    0    0  503  502  0.00000000000E+00  0.00000000000E+00  0.13018893851E+03  0.13018893851E+03  0.00000000000E+00 0. -1.
         21   -1    0    0  501  503 -0.00000000000E+00 -0.00000000000E+00 -0.50568338087E+03  0.50568338087E+03  0.00000000000E+00 0. -1.
          6    2    1    2  501    0 -0.16517089878E+03 -0.42603199433E+02 -0.80594615685E+02  0.25466714433E+03  0.17106549599E+03 0.  0.
         24    2    3    3    0    0 -0.13644896039E+03 -0.58905628645E+01  0.40271877459E+01  0.15794224038E+03  0.79224462969E+02 0.  0.
         -6    2    1    2    0  502  0.16517089878E+03  0.42603199433E+02 -0.29489982668E+03  0.38120517505E+03  0.17104098719E+03 0.  0.
        -24    2    5    5    0    0  0.91925534013E+02 -0.40349218465E+02 -0.18462398430E+03  0.22490789897E+03  0.80119811580E+02 0.  0.
          5    1    3    3  501    0 -0.28721938396E+02 -0.36712636568E+02 -0.84621803431E+02  0.96724903954E+02  0.47000000000E+01 0. -1.
        -13    1    4    4    0    0 -0.50414098275E+02 -0.71567481163E+01  0.39929441763E+02  0.64708273567E+02  0.00000000000E+00 0.  1.
         14    1    4    4    0    0 -0.86034862110E+02  0.12661852518E+01 -0.35902254017E+02  0.93233966809E+02  0.00000000000E+00 0. -1.
         -5    1    5    5    0  502  0.73245364768E+02  0.82952417898E+02 -0.11027584238E+03  0.15629727607E+03  0.47000000000E+01 0.  1.
         13    1    6    6    0    0  0.53731920787E+02  0.66773646702E+01 -0.37681784990E+02  0.65966835838E+02  0.00000000000E+00 0. -1.
        -14    1    6    6    0    0  0.38193613226E+02 -0.47026583135E+02 -0.14694219931E+03  0.15894106314E+03  0.00000000000E+00 0.  1.
</event>
<event>
12    1  0.9873238E-001  0.1921955E+03  0.7818608E-02  0.1156836E+00
         21   -1    0    0  501  502  0.00000000000E+00  0.00000000000E+00  0.98525123603E+03  0.98525123603E+03  0.00000000000E+00 0. -1.
         21   -1    0    0  502  503 -0.00000000000E+00 -0.00000000000E+00 -0.37204022909E+02  0.37204022909E+02  0.00000000000E+00 0. -1.
         -6    2    1    2    0  503 -0.44873079950E+02  0.71349212628E+02  0.46821192346E+03  0.50612401432E+03  0.17272755759E+03 0.  0.
        -24    2    3    3    0    0 -0.67309010093E+02  0.96624386047E+02  0.43813543025E+03  0.46063895307E+03  0.79742178494E+02 0.  0.
          6    2    1    2  501    0  0.44873079950E+02 -0.71349212628E+02  0.47983528965E+03  0.51633124461E+03  0.17103141677E+03 0.  0.
         24    2    5    5    0    0 -0.47818445751E+00 -0.88944603386E+02  0.20222893774E+03  0.23445589702E+03  0.78496198989E+02 0.  0.
          5    1    5    5  501    0  0.45351264408E+02  0.17595390757E+02  0.27760635192E+03  0.28187534760E+03  0.47000000000E+01 0. -1.
        -11    1    6    6    0    0  0.10205317627E+02 -0.57099297866E+02  0.19008576112E+03  0.19873871014E+03  0.00000000000E+00 0.  1.
         12    1    6    6    0    0 -0.10683502085E+02 -0.31845305520E+02  0.12143176615E+02  0.35717186882E+02  0.00000000000E+00 0. -1.
         -5    1    3    3    0  503  0.22435930143E+02 -0.25275173418E+02  0.30076493218E+02  0.45485061251E+02  0.47000000000E+01 0.  1.
         13    1    4    4    0    0 -0.77088637542E+02  0.49254849733E+02  0.24448918432E+03  0.26104340541E+03  0.00000000000E+00 0. -1.
        -14    1    4    4    0    0  0.97796274488E+01  0.47369536314E+02  0.19364624592E+03  0.19959554766E+03  0.00000000000E+00 0.  1.
</event>
<event>
12    1  0.9873238E-001  0.1827395E+03  0.7818608E-02  0.1165289E+00
         21   -1    0    0  503  502  0.00000000000E+00  0.00000000000E+00  0.42345655284E+02  0.42345655284E+02  0.00000000000E+00 0. -1.
         21   -1    0    0  501  503 -0.00000000000E+00 -0.00000000000E+00 -0.14800654959E+04  0.14800654959E+04  0.00000000000E+00 0. -1.
          6    2    1    2  501    0 -0.61656653411E+02 -0.56678960399E+01 -0.19731438614E+03  0.26861714740E+03  0.17143085179E+03 0.  0.
         24    2    3    3    0    0 -0.98253492344E+02 -0.35813242134E+02 -0.12082367439E+03  0.17850061454E+03  0.79547294291E+02 0.  0.
         -6    2    1    2    0  502  0.61656653411E+02  0.56678960399E+01 -0.12404054544E+04  0.12537940037E+04  0.17193034771E+03 0.  0.
        -24    2    5    5    0    0  0.17600545035E+02 -0.31660125120E+02 -0.10726998726E+04  0.10763635272E+04  0.81001747884E+02 0.  0.
          5    1    3    3  501    0  0.36596838934E+02  0.30145346094E+02 -0.76490711747E+02  0.90116532860E+02  0.47000000000E+01 0. -1.
        -11    1    4    4    0    0 -0.80677649340E+02 -0.57528047199E+02 -0.11122560779E+03  0.14896138810E+03  0.00000000000E+00 0.  1.
         12    1    4    4    0    0 -0.17575843005E+02  0.21714805064E+02 -0.95980666057E+01  0.29539226443E+02  0.00000000000E+00 0. -1.
         -5    1    5    5    0  502  0.44056108375E+02  0.37328021160E+02 -0.16770558181E+03  0.17743047658E+03  0.47000000000E+01 0.  1.
         11    1    6    6    0    0 -0.24846798754E+01 -0.48234613544E+02 -0.36462062404E+03  0.36780558867E+03  0.00000000000E+00 0. -1.
        -12    1    6    6    0    0  0.20085224911E+02  0.16574488424E+02 -0.70807924858E+03  0.70855793849E+03  0.00000000000E+00 0.  1.
</event>
<event>
12    1  0.9873238E-001  0.1902237E+03  0.7818608E-02  0.1158807E+00
         21   -1    0    0  503  502  0.00000000000E+00  0.00000000000E+00  0.23945485598E+03  0.23945485598E+03  0.00000000000E+00 0.  1.
         21   -1    0    0  501  503 -0.00000000000E+00 -0.00000000000E+00 -0.16077389588E+03  0.16077389588E+03  0.00000000000E+00 0.  1.
          6    2    1    2  501    0  0.62861965389E+02  0.38602192377E+02  0.93259820169E+02  0.21185474475E+03  0.17533762536E+03 0.  0.
         24    2    3    3    0    0 -0.14828850014E+02 -0.29336810394E+02  0.52378967106E+02  0.10074711656E+03  0.79535413890E+02 0.  0.
         -6    2    1    2    0  502 -0.62861965389E+02 -0.38602192377E+02 -0.14578860072E+02  0.18837400710E+03  0.17271498905E+03 0.  0.
        -24    2    5    5    0    0 -0.45194688392E+02 -0.81074763396E+02 -0.49068928660E+02  0.13068772800E+03  0.77819312333E+02 0.  0.
          5    1    3    3  501    0  0.77690815403E+02  0.67939002771E+02  0.40880853063E+02  0.11110762819E+03  0.47000000000E+01 0. -1.
        -11    1    4    4    0    0  0.19850762073E+02  0.32734942784E+01  0.49063380124E+02  0.53028141480E+02  0.00000000000E+00 0.  1.
         12    1    4    4    0    0 -0.34679612088E+02 -0.32610304672E+02  0.33155869824E+01  0.47718975077E+02  0.00000000000E+00 0. -1.
         -5    1    5    5    0  502 -0.17667276997E+02  0.42472571019E+02  0.34490068588E+02  0.57686279102E+02  0.47000000000E+01 0.  1.
         11    1    6    6    0    0  0.12203282252E+02 -0.21563536401E+02  0.12355948868E+02  0.27687102995E+02  0.00000000000E+00 0. -1.
        -12    1    6    6    0    0 -0.57397970644E+02 -0.59511226995E+02 -0.61424877528E+02  0.10300062501E+03  0.00000000000E+00 0.  1.
</event>
<event>
12    1  0.9873238E-001  0.3537399E+03  0.7818608E-02  0.1061092E+00
         21   -1    0    0  503  502  0.00000000000E+00  0.00000000000E+00  0.26321222601E+03  0.26321222601E+03  0.00000000000E+00 0.  1.
         21   -1    0    0  501  503 -0.00000000000E+00 -0.00000000000E+00 -0.55688835731E+03  0.55688835731E+03  0.00000000000E+00 0.  1.
          6    2    1    2  501    0 -0.22729334162E+03  0.20930434588E+03  0.10035789127E+02  0.35388221006E+03  0.17222464744E+03 0.  0.
         24    2    3    3    0    0 -0.18721810482E+03  0.15956031542E+03 -0.52916412149E+02  0.26407373153E+03  0.80154076494E+02 0.  0.
         -6    2    1    2    0  502  0.22729334162E+03 -0.20930434588E+03 -0.30371192042E+03  0.46621837326E+03  0.17218614522E+03 0.  0.
        -24    2    5    5    0    0  0.24090043297E+03 -0.16626782840E+03 -0.23451706392E+03  0.38346988120E+03  0.79830364832E+02 0.  0.
          5    1    3    3  501    0 -0.40075236800E+02  0.49744030459E+02  0.62952201276E+02  0.89808478533E+02  0.47000000000E+01 0. -1.
        -13    1    4    4    0    0 -0.95578849432E+02  0.52096569445E+02 -0.56813307496E+02  0.12278892831E+03  0.00000000000E+00 0.  1.
         14    1    4    4    0    0 -0.91639255388E+02  0.10746374597E+03  0.38968953465E+01  0.14128480322E+03  0.00000000000E+00 0. -1.
         -5    1    5    5    0  502 -0.13607091351E+02 -0.43036517480E+02 -0.69194856498E+02  0.82748492056E+02  0.47000000000E+01 0.  1.
         13    1    6    6    0    0  0.21918835102E+03 -0.17430783899E+03 -0.21279214622E+03  0.35172041943E+03  0.00000000000E+00 0. -1.
        -14    1    6    6    0    0  0.21712081952E+02  0.80400105900E+01 -0.21724917709E+02  0.31749461766E+02  0.00000000000E+00 0.  1.
</event>
<event>
12    1  0.9873238E-001  0.1734038E+03  0.7818608E-02  0.1174372E+00
         21   -1    0    0  501  502  0.00000000000E+00  0.00000000000E+00  0.10091130323E+03  0.10091130323E+03  0.00000000000E+00 0.  1.
         21   -1    0    0  502  503 -0.00000000000E+00 -0.00000000000E+00 -0.31960585728E+03  0.31960585728E+03  0.00000000000E+00 0.  1.
         -6    2    1    2    0  503  0.18606124055E+02 -0.94761403487E+01 -0.16432200877E+03  0.23889450830E+03  0.17214202986E+03 0.  0.
        -24    2    3    3    0    0  0.50117920379E+02  0.15544347946E+02 -0.31524766296E+02  0.10005569618E+03  0.79144796119E+02 0.  0.
          6    2    1    2  501    0 -0.18606124055E+02  0.94761403487E+01 -0.54372545278E+02  0.18162265220E+03  0.17203031426E+03 0.  0.
         24    2    5    5    0    0 -0.41569704184E+02  0.55423838834E+01 -0.97153122931E+02  0.13268321743E+03  0.80045915362E+02 0.  0.
          5    1    5    5  501    0  0.22963580129E+02  0.39337564652E+01  0.42780577652E+02  0.48939434779E+02  0.47000000000E+01 0. -1.
        -11    1    6    6    0    0 -0.13250734510E+02 -0.19210014116E+02  0.49647069339E+01  0.23859063736E+02  0.00000000000E+00 0.  1.
         12    1    6    6    0    0 -0.28318969673E+02  0.24752397999E+02 -0.10211782986E+03  0.10882415369E+03  0.00000000000E+00 0. -1.
         -5    1    3    3    0  503 -0.31511796324E+02 -0.25020488294E+02 -0.13279724248E+03  0.13883881212E+03  0.47000000000E+01 0.  1.
         13    1    4    4    0    0 -0.20919036370E+02 -0.24649314152E+01 -0.24154223380E+01  0.21201797910E+02  0.00000000000E+00 0. -1.
        -14    1    4    4    0    0  0.71036956749E+02  0.18009279361E+02 -0.29109343958E+02  0.78853898274E+02  0.00000000000E+00 0.  1.
</event>
<event>
12    1  0.9873238E-001  0.1867114E+03  0.7818608E-02  0.1161527E+00
         21   -1    0    0  503  502  0.00000000000E+00  0.00000000000E+00  0.89742087619E+02  0.89742087619E+02  0.00000000000E+00 0.  1.
         21   -1    0    0  501  503 -0.00000000000E+00 -0.00000000000E+00 -0.45009484005E+03  0.45009484005E+03  0.00000000000E+00 0.  1.
          6    2    1    2  501    0 -0.59019805749E+02 -0.40643367950E+02 -0.79932698028E+02  0.20310187926E+03  0.17241205386E+03 0.  0.
         24    2    3    3    0    0 -0.81049818561E+02  0.13254798597E+02 -0.87494776508E+02  0.14419849351E+03  0.79956906145E+02 0.  0.
         -6    2    1    2    0  502  0.59019805749E+02  0.40643367950E+02 -0.28042005440E+03  0.33673504841E+03  0.17210422739E+03 0.  0.
        -24    2    5    5    0    0  0.22522906200E+02 -0.40373394221E+02 -0.17358152916E+03  0.19769440721E+03  0.82554461485E+02 0.  0.
          5    1    3    3  501    0  0.22030012812E+02 -0.53898166547E+02  0.75620784803E+01  0.58903385748E+02  0.47000000000E+01 0. -1.
        -13    1    4    4    0    0  0.51807911603E+01 -0.17477885608E+02 -0.32896015904E+02  0.37609373097E+02  0.00000000000E+00 0.  1.
         14    1    4    4    0    0 -0.86230609721E+02  0.30732684205E+02 -0.54598760604E+02  0.10658912041E+03  0.00000000000E+00 0. -1.
         -5    1    5    5    0  502  0.36496899549E+02  0.81016762172E+02 -0.10683852524E+03  0.13904064120E+03  0.47000000000E+01 0.  1.
         13    1    6    6    0    0  0.20523231081E+02  0.19639333153E+02 -0.92737524310E+02  0.96990488378E+02  0.00000000000E+00 0. -1.
        -14    1    6    6    0    0  0.19996751184E+01 -0.60012727374E+02 -0.80844004853E+02  0.10070391883E+03  0.00000000000E+00 0.  1.
</event>
<event>
12    1  0.9873238E-001  0.3051768E+03  0.7818608E-02  0.1083206E+00
         21   -1    0    0  501  502  0.00000000000E+00  0.00000000000E+00  0.62325413274E+03  0.62325413274E+03  0.00000000000E+00 0. -1.
         21   -1    0    0  502  503 -0.00000000000E+00 -0.00000000000E+00 -0.15652475422E+03  0.15652475422E+03  0.00000000000E+00 0. -1.
         -6    2    1    2    0  503 -0.24000683898E+03 -0.73250657762E+02  0.32620589752E+03  0.44380314216E+03  0.16607829418E+03 0.  0.
        -24    2    3    3    0    0 -0.54876949814E+02  0.75749806605E+01  0.83648388325E+02  0.12811010303E+03  0.79663578107E+02 0.  0.
          6    2    1    2  501    0  0.24000683898E+03  0.73250657762E+02  0.14052348101E+03  0.33597574480E+03  0.17367760582E+03 0.  0.
         24    2    5    5    0    0  0.23853938949E+03  0.76741908117E+02  0.16499432147E+03  0.31077149378E+03  0.81027368412E+02 0.  0.
          5    1    5    5  501    0  0.14674494885E+01 -0.34912503550E+01 -0.24470840454E+02  0.25204251022E+02  0.47000000000E+01 0. -1.
        -11    1    6    6    0    0  0.95444737243E+02  0.73061976021E+02  0.76913847005E+02  0.14270070101E+03  0.00000000000E+00 0.  1.
         12    1    6    6    0    0  0.14309465225E+03  0.36799320956E+01  0.88080474460E+02  0.16807079277E+03  0.00000000000E+00 0. -1.
         -5    1    3    3    0  503 -0.18512988916E+03 -0.80825638422E+02  0.24255750919E+03  0.31569303913E+03  0.47000000000E+01 0.  1.
         11    1    4    4    0    0 -0.56589935249E+02  0.36321050207E+02  0.49840507240E+02  0.83700153056E+02  0.00000000000E+00 0. -1.
        -12    1    4    4    0    0  0.17129854352E+01 -0.28746069547E+02  0.33807881085E+02  0.44409949977E+02  0.00000000000E+00 0.  1.
</event>
<event>
12    1  0.9873238E-001  0.2112909E+03  0.7818608E-02  0.1140710E+00
         21   -1    0    0  503  502  0.00000000000E+00  0.00000000000E+00  0.24668764303E+03  0.24668764303E+03  0.00000000000E+00 0.  1.
         21   -1    0    0  501  503 -0.00000000000E+00 -0.00000000000E+00 -0.20765564563E+03  0.20765564563E+03  0.00000000000E+00 0.  1.
          6    2    1    2  501    0  0.10751366272E+03 -0.57106834843E+02  0.10198309131E+03  0.23387407523E+03  0.17168620765E+03 0.  0.
         24    2    3    3    0    0 -0.57579509498E+01 -0.51222387513E+02  0.63969482199E+02  0.11415686820E+03  0.79264171744E+02 0.  0.
         -6    2    1    2    0  502 -0.10751366272E+03  0.57106834843E+02 -0.62951093907E+02  0.22046921343E+03  0.17269468894E+03 0.  0.
        -24    2    5    5    0    0 -0.10375597551E+03  0.61540123285E+02 -0.97288831850E+02  0.18532743620E+03  0.10162997874E+03 0.  0.
          5    1    3    3  501    0  0.11327161367E+03 -0.58844473293E+01  0.38013609112E+02  0.11971720704E+03  0.47000000000E+01 0. -1.
        -13    1    4    4    0    0 -0.20105421463E+01 -0.71809427697E+02  0.58189020838E+02  0.92447814100E+02  0.00000000000E+00 0.  1.
         14    1    4    4    0    0 -0.37474088034E+01  0.20587040184E+02  0.57804613616E+01  0.21709054098E+02  0.00000000000E+00 0. -1.
         -5    1    5    5    0  502 -0.37576872094E+01 -0.44332884423E+01  0.34337737943E+02  0.35141777226E+02  0.47000000000E+01 0.  1.
         13    1    6    6    0    0 -0.11775023445E+02  0.54753620095E+02 -0.73182399749E+01  0.56481560947E+02  0.00000000000E+00 0. -1.
        -14    1    6    6    0    0 -0.91980952061E+02  0.67865031896E+01 -0.89970591875E+02  0.12884587525E+03  0.00000000000E+00 0.  1.
</event>
<event>
12    1  0.9873238E-001  0.2167013E+03  0.7818608E-02  0.1136404E+00
         21   -1    0    0  501  502  0.00000000000E+00  0.00000000000E+00  0.10246964990E+03  0.10246964990E+03  0.00000000000E+00 0. -1.
         21   -1    0    0  502  503 -0.00000000000E+00 -0.00000000000E+00 -0.58760310327E+03  0.58760310327E+03  0.00000000000E+00 0. -1.
         -6    2    1    2    0  503 -0.78396814201E+02 -0.10531436676E+03 -0.40478413006E+03  0.45914009479E+03  0.17240144538E+03 0.  0.
        -24    2    3    3    0    0  0.22850036021E+02 -0.43229831183E+02 -0.22901805946E+03  0.24695806018E+03  0.78409626173E+02 0.  0.
          6    2    1    2  501    0  0.78396814201E+02  0.10531436676E+03 -0.80349323311E+02  0.23093265838E+03  0.17215313714E+03 0.  0.
         24    2    5    5    0    0 -0.10035462151E+02  0.20489488596E+02  0.21612585551E+01  0.83130041435E+02  0.79908717340E+02 0.  0.
          5    1    5    5  501    0  0.88432276352E+02  0.84824878166E+02 -0.82510581866E+02  0.14780261695E+03  0.47000000000E+01 0. -1.
        -11    1    6    6    0    0 -0.43773668257E+02  0.21918036570E+02  0.51760836976E+01  0.49227291234E+02  0.00000000000E+00 0.  1.
         12    1    6    6    0    0  0.33738206106E+02 -0.14285479740E+01 -0.30148251424E+01  0.33902750201E+02  0.00000000000E+00 0. -1.
         -5    1    3    3    0  503 -0.10124685022E+03 -0.62084535579E+02 -0.17576607060E+03  0.21218203461E+03  0.47000000000E+01 0.  1.
         13    1    4    4    0    0  0.91608321261E+01 -0.55133787985E+02 -0.21943645617E+03  0.22644207586E+03  0.00000000000E+00 0. -1.
        -14    1    4    4    0    0  0.13689203895E+02  0.11903956802E+02 -0.95816032877E+01  0.20515984314E+02  0.00000000000E+00 0.  1.
</event>
<event>
12    1  0.9873238E-001  0.2121286E+03  0.7818608E-02  0.1140121E+00
         21   -1    0    0  503  502  0.00000000000E+00  0.00000000000E+00  0.77234715253E+03  0.77234715253E+03  0.00000000000E+00 0.  1.
         21   -1    0    0  501  503 -0.00000000000E+00 -0.00000000000E+00 -0.91285514556E+02  0.91285514556E+02  0.00000000000E+00 0.  1.
          6    2    1    2  501    0 -0.11779087183E+03  0.43935926783E+02  0.60210771831E+03  0.63838251716E+03  0.17086099209E+03 0.  0.
         24    2    3    3    0    0 -0.60611042735E+01 -0.76499188864E+01  0.33003556709E+03  0.33973559201E+03  0.80009616237E+02 0.  0.
         -6    2    1    2    0  502  0.11779087183E+03 -0.43935926783E+02  0.78953919669E+02  0.22525014993E+03  0.16940735953E+03 0.  0.
        -24    2    5    5    0    0  0.11894253708E+03  0.21251977279E+02  0.69245815343E+02  0.15916591234E+03  0.77070299356E+02 0.  0.
          5    1    3    3  501    0 -0.11172976756E+03  0.51585845669E+02  0.27207215121E+03  0.29864692514E+03  0.47000000000E+01 0. -1.
        -11    1    4    4    0    0  0.33834425360E+02 -0.25807206970E+01  0.86784626147E+02  0.93182615300E+02  0.00000000000E+00 0.  1.
         12    1    4    4    0    0 -0.39895529633E+02 -0.50691981894E+01  0.24325094095E+03  0.24655297671E+03  0.00000000000E+00 0. -1.
         -5    1    5    5    0  502 -0.11516652426E+01 -0.65187904062E+02  0.97081043260E+01  0.66084237594E+02  0.47000000000E+01 0.  1.
         11    1    6    6    0    0  0.54117900144E+02 -0.28019149368E+02  0.38754209698E+02  0.72219863034E+02  0.00000000000E+00 0. -1.
        -12    1    6    6    0    0  0.64824636931E+02  0.49271126646E+02  0.30491605645E+02  0.86946049301E+02  0.00000000000E+00 0.  1.
</event>
<event>
12    1  0.9873238E-001  0.2233536E+03  0.7818608E-02  0.1133629E+00
         21   -1    0    0  503  502  0.00000000000E+00  0.00000000000E+00  0.99071854750E+03  0.99071854750E+03  0.00000000000E+00 0. -1.
         21   -1    0    0  501  503 -0.00000000000E+00 -0.00000000000E+00 -0.52171775085E+02  0.52171775085E+02  0.00000000000E+00 0. -1.
          6    2    1    2  501    0  0.11640092768E+03 -0.18754561363E+02  0.60975792586E+03  0.64541210338E+03  0.17564494157E+03 0.  0.
         24    2    3    3    0    0  0.13916545500E+03 -0.33760271318E+02  0.37634408877E+03  0.41036422660E+03  0.79102120892E+02 0.  0.
         -6    2    1    2    0  502 -0.11640092768E+03  0.18754561363E+02  0.32878884655E+03  0.39747821921E+03  0.18969955084E+03 0.  0.
        -24    2    5    5    0    0 -0.33856532483E+02  0.82414867489E+02  0.18214216823E+03  0.21749613672E+03  0.78678617580E+02 0.  0.
          5    1    3    3  501    0 -0.22764527323E+02  0.15005709955E+02  0.23341383709E+03  0.23504787678E+03  0.47000000000E+01 0. -1.
        -13    1    4    4    0    0  0.99364093444E+02  0.14551950617E+02  0.24828243261E+03  0.26782298011E+03  0.00000000000E+00 0.  1.
         14    1    4    4    0    0  0.39801361556E+02 -0.48312221935E+02  0.12806165616E+03  0.14254124648E+03  0.00000000000E+00 0. -1.
         -5    1    5    5    0  502 -0.82544395194E+02 -0.63660306126E+02  0.14664667832E+03  0.17998208248E+03  0.47000000000E+01 0.  1.
         11    1    6    6    0    0 -0.51195177413E+02  0.81438351223E+02  0.17281648671E+03  0.19778445166E+03  0.00000000000E+00 0. -1.
        -12    1    6    6    0    0  0.17338644930E+02  0.97651626599E+00  0.93256815273E+01  0.19711685062E+02  0.00000000000E+00 0.  1.
</event>
<event>
12    1  0.9873238E-001  0.2134680E+03  0.7818608E-02  0.1139018E+00
         21   -1    0    0  501  502  0.00000000000E+00  0.00000000000E+00  0.15441914758E+03  0.15441914758E+03  0.00000000000E+00 0.  1.
         21   -1    0    0  502  503 -0.00000000000E+00 -0.00000000000E+00 -0.31796770417E+03  0.31796770417E+03  0.00000000000E+00 0.  1.
         -6    2    1    2    0  503  0.11543383731E+03  0.44804590459E+02 -0.16628255590E+02  0.21324568587E+03  0.17281435570E+03 0.  0.
        -24    2    3    3    0    0  0.73224874937E+02  0.18235505821E+02  0.56973264867E+02  0.12421318295E+03  0.80551511014E+02 0.  0.
          6    2    1    2  501    0 -0.11543383731E+03 -0.44804590459E+02 -0.14692030101E+03  0.25914116588E+03  0.17388544184E+03 0.  0.
         24    2    5    5    0    0 -0.50623113256E+02  0.27512166109E+02 -0.12450242002E+03  0.15936744879E+03  0.81101863506E+02 0.  0.
          5    1    5    5  501    0 -0.64810724053E+02 -0.72316756569E+02 -0.22417880986E+02  0.99773717084E+02  0.47000000000E+01 0. -1.
        -13    1    6    6    0    0 -0.48801937977E+02  0.10586207499E+02 -0.13172659286E+03  0.14087438449E+03  0.00000000000E+00 0.  1.
         14    1    6    6    0    0 -0.18211752790E+01  0.16925958610E+02  0.72241728344E+01  0.18493064306E+02  0.00000000000E+00 0. -1.
         -5    1    3    3    0  503  0.42208962372E+02  0.26569084638E+02 -0.73601520457E+02  0.89032502922E+02  0.47000000000E+01 0.  1.
         13    1    4    4    0    0  0.54930495131E+02  0.32477147227E+02  0.12125439674E+01  0.63824718175E+02  0.00000000000E+00 0. -1.
        -14    1    4    4    0    0  0.18294379806E+02 -0.14241641406E+02  0.55760720900E+02  0.60388464773E+02  0.00000000000E+00 0.  1.
</event>
<event>
12    1  0.9873238E-001  0.1913975E+03  0.7818608E-02  0.1160024E+00
         21   -1    0    0  503  502  0.00000000000E+00  0.00000000000E+00  0.21220571152E+03  0.21220571152E+03  0.00000000000E+00 0.  1.
         21   -1    0    0  501  503 -0.00000000000E+00 -0.00000000000E+00 -0.20132432389E+03  0.20132432389E+03  0.00000000000E+00 0.  1.
          6    2    1    2  501    0  0.63793757515E+01  0.47395094060E+02 -0.86254682825E+02  0.19889451331E+03  0.17271990546E+03 0.  0.
         24    2    3    3    0    0  0.66611320795E+02  0.26339387623E+01 -0.45929688528E+02  0.11357368706E+03  0.79658272720E+02 0.  0.
         -6    2    1    2    0  502 -0.63793757515E+01 -0.47395094060E+02  0.97136070447E+02  0.21463552210E+03  0.18532673792E+03 0.  0.
        -24    2    5    5    0    0 -0.52801538287E+02  0.97116830154E+01  0.36320490216E+01  0.95550287138E+02  0.78957877122E+02 0.  0.
          5    1    3    3  501    0 -0.60231945043E+02  0.44761155297E+02 -0.40324994297E+02  0.85320826252E+02  0.47000000000E+01 0. -1.
        -11    1    4    4    0    0  0.38501661576E+02 -0.37775045817E+02 -0.17380055784E+02  0.56669201245E+02  0.00000000000E+00 0.  1.
         12    1    4    4    0    0  0.28109659219E+02  0.40408984580E+02 -0.28549632744E+02  0.56904485816E+02  0.00000000000E+00 0. -1.
         -5    1    5    5    0  502  0.46422162535E+02 -0.57106777075E+02  0.93504021425E+02  0.11908523496E+03  0.47000000000E+01 0.  1.
         11    1    6    6    0    0 -0.19420495056E+02 -0.28630846554E+02  0.22561984779E+02  0.41302834767E+02  0.00000000000E+00 0. -1.
        -12    1    6    6    0    0 -0.33381043231E+02  0.38342529570E+02 -0.18929935757E+02  0.54247452371E+02  0.00000000000E+00 0.  1.
</event>
<event>
12    1  0.9873238E-001  0.3019285E+03  0.7818608E-02  0.1084458E+00
         21   -1    0    0  503  502  0.00000000000E+00  0.00000000000E+00  0.20574432791E+03  0.20574432791E+03  0.00000000000E+00 0.  1.
         21   -1    0    0  501  503 -0.00000000000E+00 -0.00000000000E+00 -0.48370272519E+03  0.48370272519E+03  0.00000000000E+00 0.  1.
          6    2    1    2  501    0  0.23158065220E+03  0.85917790948E+02 -0.36837624829E+02  0.30416747597E+03  0.17363576118E+03 0.  0.
         24    2    3    3    0    0  0.22011373884E+03  0.12135140746E+03 -0.25700976000E+02  0.26501206474E+03  0.79966444051E+02 0.  0.
         -6    2    1    2    0  502 -0.23158065220E+03 -0.85917790948E+02 -0.24112077246E+03  0.38527957713E+03  0.17114222263E+03 0.  0.
        -24    2    5    5    0    0 -0.19812349956E+03 -0.77621982807E+02 -0.26011321913E+03  0.34564367767E+03  0.80824327116E+02 0.  0.
          5    1    3    3  501    0  0.11466913365E+02 -0.35433616515E+02 -0.11136648829E+02  0.39155411230E+02  0.47000000000E+01 0. -1.
        -13    1    4    4    0    0  0.85969491843E+00  0.23727696808E+02 -0.15350714270E+01  0.23792837482E+02  0.00000000000E+00 0.  1.
         14    1    4    4    0    0  0.21925404392E+03  0.97623710655E+02 -0.24165904573E+02  0.24121922726E+03  0.00000000000E+00 0. -1.
         -5    1    5    5    0  502 -0.33457152641E+02 -0.82958081414E+01  0.18992446672E+02  0.39635899462E+02  0.47000000000E+01 0.  1.
         13    1    6    6    0    0 -0.99497413341E+02  0.19154947088E+01 -0.13363402277E+03  0.16661769541E+03  0.00000000000E+00 0. -1.
        -14    1    6    6    0    0 -0.98626086220E+02 -0.79537477516E+02 -0.12647919635E+03  0.17902598226E+03  0.00000000000E+00 0.  1.
</event>
<event>
12    1  0.9873238E-001  0.1875100E+03  0.7818608E-02  0.1161131E+00
         21   -1    0    0  503  502  0.00000000000E+00  0.00000000000E+00  0.56867225047E+02  0.56867225047E+02  0.00000000000E+00 0.  1.
         21   -1    0    0  501  503 -0.00000000000E+00 -0.00000000000E+00 -0.12995509451E+04  0.12995509451E+04  0.00000000000E+00 0.  1.
          6    2    1    2  501    0  0.70387978556E+02  0.10703928487E+02 -0.12959523759E+03  0.22793623247E+03  0.17346745762E+03 0.  0.
         24    2    3    3    0    0  0.83531021511E+02  0.26526289881E+02 -0.15157157815E+03  0.19747090394E+03  0.91322171403E+02 0.  0.
         -6    2    1    2    0  502 -0.70387978556E+02 -0.10703928487E+02 -0.11130884825E+04  0.11284819377E+04  0.17157060433E+03 0.  0.
        -24    2    5    5    0    0 -0.21192063426E+02 -0.62385382843E+02 -0.48909162728E+03  0.50040122943E+03  0.82763101697E+02 0.  0.
          5    1    3    3  501    0 -0.13143042955E+02 -0.15822361394E+02  0.21976340556E+02  0.30465328530E+02  0.47000000000E+01 0. -1.
        -11    1    4    4    0    0  0.47293124323E+02 -0.31957029429E+02 -0.58516586196E+02  0.81744004051E+02  0.00000000000E+00 0.  1.
         12    1    4    4    0    0  0.36237897189E+02  0.58483319310E+02 -0.93054991950E+02  0.11572689989E+03  0.00000000000E+00 0. -1.
         -5    1    5    5    0  502 -0.49195915130E+02  0.51681454356E+02 -0.62399685522E+03  0.62808070828E+03  0.47000000000E+01 0.  1.
         13    1    6    6    0    0 -0.35216962052E+02 -0.32085916102E+02 -0.11040525264E+03  0.12024583252E+03  0.00000000000E+00 0. -1.
        -14    1    6    6    0    0  0.14024898626E+02 -0.30299466741E+02 -0.37868637464E+03  0.38015539691E+03  0.00000000000E+00 0.  1.
</event>
<event>
12    1  0.9873238E-001  0.2655688E+03  0.7818608E-02  0.1104105E+00
         21   -1    0    0  501  502  0.00000000000E+00  0.00000000000E+00  0.29158223114E+04  0.29158223114E+04  0.00000000000E+00 0.  1.
         21   -1    0    0  502  503 -0.00000000000E+00 -0.00000000000E+00 -0.27221103894E+02  0.27221103894E+02  0.00000000000E+00 0.  1.
         -6    2    1    2    0  503  0.12335897809E+03  0.15918588368E+03  0.19442184120E+04  0.19620308510E+04  0.17035916063E+03 0.  0.
        -24    2    3    3    0    0  0.53333394624E+02  0.25821005284E+02  0.10964091445E+04  0.11009313113E+04  0.80159620959E+02 0.  0.
          6    2    1    2  501    0 -0.12335897809E+03 -0.15918588368E+03  0.94438279553E+03  0.98101256433E+03  0.17311615711E+03 0.  0.
         24    2    5    5    0    0 -0.15191247452E+02 -0.49470708064E+02  0.56666219762E+03  0.57305102473E+03  0.67847665964E+02 0.  0.
          5    1    5    5  501    0 -0.10816773064E+03 -0.10971517562E+03  0.37772059791E+03  0.40796153960E+03  0.47000000000E+01 0. -1.
        -13    1    6    6    0    0  0.17168687477E+02  0.66185917976E+01  0.18732638952E+03  0.18822790919E+03  0.00000000000E+00 0.  1.
         14    1    6    6    0    0 -0.32359934929E+02 -0.56089299861E+02  0.37933580810E+03  0.38482311554E+03  0.00000000000E+00 0. -1.
         -5    1    3    3    0  503  0.70025583465E+02  0.13336487840E+03  0.84780926757E+03  0.86109953972E+03  0.47000000000E+01 0.  1.
         11    1    4    4    0    0 -0.10744380408E+02  0.32470769481E+02  0.30751649937E+03  0.30941265321E+03  0.00000000000E+00 0. -1.
        -12    1    4    4    0    0  0.64077775031E+02 -0.66497641967E+01  0.78889264509E+03  0.79151865808E+03  0.00000000000E+00 0.  1.
</event>
<event>
12    1  0.9873238E-001  0.3623954E+03  0.7818608E-02  0.1057804E+00
         21   -1    0    0  503  502  0.00000000000E+00  0.00000000000E+00  0.67757082552E+03  0.67757082552E+03  0.00000000000E+00 0.  1.
         21   -1    0    0  501  503 -0.00000000000E+00 -0.00000000000E+00 -0.22849545915E+03  0.22849545915E+03  0.00000000000E+00 0.  1.
          6    2    1    2  501    0  0.21137769881E+03  0.23840169657E+03  0.45368443140E+02  0.36356310294E+03  0.16912697510E+03 0.  0.
         24    2    3    3    0    0  0.14458351212E+03  0.13807636925E+03  0.91670386846E+02  0.23436327837E+03  0.80951903640E+02 0.  0.
         -6    2    1    2    0  502 -0.21137769881E+03 -0.23840169657E+03  0.40370692323E+03  0.54250318173E+03  0.17266882128E+03 0.  0.
        -24    2    5    5    0    0 -0.13873476013E+03 -0.19787711312E+03  0.37710354635E+03  0.45504423099E+03  0.80346013697E+02 0.  0.
          5    1    3    3  501    0  0.66794186694E+02  0.10032532732E+03 -0.46301943706E+02  0.12919982457E+03  0.47000000000E+01 0. -1.
        -11    1    4    4    0    0  0.49840115239E+02  0.15534119140E+02 -0.39096382876E+01  0.52351038347E+02  0.00000000000E+00 0.  1.
         12    1    4    4    0    0  0.94743396880E+02  0.12254225011E+03  0.95580025134E+02  0.18201224003E+03  0.00000000000E+00 0. -1.
         -5    1    5    5    0  502 -0.72642938681E+02 -0.40524583450E+02  0.26603376879E+02  0.87458950745E+02  0.47000000000E+01 0.  1.
         11    1    6    6    0    0 -0.40825409593E+02 -0.25536327270E+02  0.34507674193E+02  0.59241857306E+02  0.00000000000E+00 0. -1.
        -12    1    6    6    0    0 -0.97909350539E+02 -0.17234078585E+03  0.34259587216E+03  0.39580237368E+03  0.00000000000E+00 0.  1.
</event>
<event>
12    1  0.1050904E+000  0.2122482E+03  0.7818608E-02  0.1140013E+00
         21   -1    0    0  501  502  0.00000000000E+00  0.00000000000E+00  0.34128715483E+03  0.34128715483E+03  0.00000000000E+00 0.  1.
         21   -1    0    0  502  503 -0.00000000000E+00 -0.00000000000E+00 -0.23591469499E+03  0.23591469499E+03  0.00000000000E+00 0.  1.
         -6    2    1    2    0  503  0.11510418309E+03  0.50509234573E+02  0.24477924689E+03  0.32326576200E+03  0.16965764773E+03 0.  0.
        -24    2    3    3    0    0  0.55943674602E+02  0.94884404176E+02  0.17235056310E+03  0.21964565934E+03  0.80042202492E+02 0.  0.
          6    2    1    2  501    0 -0.11510418309E+03 -0.50509234573E+02 -0.13940678704E+03  0.25393608782E+03  0.17102376643E+03 0.  0.
         24    2    5    5    0    0 -0.11135231164E+03 -0.33703102136E+02 -0.16895279445E+03  0.21941682971E+03  0.77868234886E+02 0.  0.
          5    1    5    5  501    0 -0.37518714435E+01 -0.16806132437E+02  0.29546007409E+02  0.34519258113E+02  0.47000000000E+01 0. -1.
        -13    1    6    6    0    0 -0.12332138627E+02  0.22778686557E+02 -0.28194605186E+02  0.38286890262E+02  0.00000000000E+00 0.  1.
         14    1    6    6    0    0 -0.99020173015E+02 -0.56481788693E+02 -0.14075818927E+03  0.18112993945E+03  0.00000000000E+00 0. -1.
         -5    1    3    3    0  503  0.59160508483E+02 -0.44375169603E+02  0.72428683783E+02  0.10362010266E+03  0.47000000000E+01 0.  1.
         13    1    4    4    0    0  0.64231070732E+02  0.49751258460E+02  0.14504195661E+03  0.16624676642E+03  0.00000000000E+00 0. -1.
        -14    1    4    4    0    0 -0.82873961291E+01  0.45133145716E+02  0.27308606492E+02  0.53398892923E+02  0.00000000000E+00 0.  1.
</event>
<event>
12    1  0.9873238E-001  0.1971300E+03  0.7818608E-02  0.1152252E+00
         21   -1    0    0  503  502  0.00000000000E+00  0.00000000000E+00  0.48190154241E+03  0.48190154241E+03  0.00000000000E+00 0.  1.
         21   -1    0    0  501  503 -0.00000000000E+00 -0.00000000000E+00 -0.85894279689E+02  0.85894279689E+02  0.00000000000E+00 0.  1.
          6    2    1    2  501    0 -0.63864920949E+02  0.70965258017E+02  0.12675997149E+03  0.23409783252E+03  0.17210144929E+03 0.  0.
         24    2    3    3    0    0 -0.91316866846E+01 -0.60771948886E+01  0.11315330334E+03  0.13850234152E+03  0.79113264056E+02 0.  0.
         -6    2    1    2    0  502  0.63864920949E+02 -0.70965258017E+02  0.26924729124E+03  0.33369798958E+03  0.17246868828E+03 0.  0.
        -24    2    5    5    0    0  0.93887818273E+02 -0.21979007147E+02  0.11970489739E+03  0.17342932547E+03  0.80314813688E+02 0.  0.
          5    1    3    3  501    0 -0.54733234264E+02  0.77042452905E+02  0.13606668146E+02  0.95595491006E+02  0.47000000000E+01 0. -1.
        -13    1    4    4    0    0 -0.19501081743E+02 -0.36304612965E+02  0.34998994358E+02  0.54067057602E+02  0.00000000000E+00 0.  1.
         14    1    4    4    0    0  0.10369395058E+02  0.30227418076E+02  0.78154308983E+02  0.84435283916E+02  0.00000000000E+00 0. -1.
         -5    1    5    5    0  502 -0.30022897324E+02 -0.48986250870E+02  0.14954239385E+03  0.16026866411E+03  0.47000000000E+01 0.  1.
         11    1    6    6    0    0  0.62236851855E+02  0.21403089351E+02  0.39033838307E+02  0.76519007414E+02  0.00000000000E+00 0. -1.
        -12    1    6    6    0    0  0.31650966418E+02 -0.43382096498E+02  0.80671059082E+02  0.96910318053E+02  0.00000000000E+00 0.  1.
</event>
<event>
12    1  0.9873238E-001  0.1968085E+03  0.7818608E-02  0.1152476E+00
         21   -1    0    0  503  502  0.00000000000E+00  0.00000000000E+00  0.29189888602E+03  0.29189888602E+03  0.00000000000E+00 0.  1.
         21   -1    0    0  501  503 -0.00000000000E+00 -0.00000000000E+00 -0.17606177244E+03  0.17606177244E+03  0.00000000000E+00 0.  1.
          6    2    1    2  501    0 -0.89017081767E+02  0.29483824645E+02 -0.58282431140E+02  0.20518469670E+03  0.17294675834E+03 0.  0.
         24    2    3    3    0    0 -0.18642641429E+02  0.22687206628E+02 -0.92953897976E+02  0.12629897884E+03  0.80304093819E+02 0.  0.
         -6    2    1    2    0  502  0.89017081767E+02 -0.29483824645E+02  0.17411954472E+03  0.26277596175E+03  0.17303252140E+03 0.  0.
        -24    2    5    5    0    0  0.66779666121E+02  0.15467287048E+02  0.29309252028E+02  0.10945533051E+03  0.80141601842E+02 0.  0.
          5    1    3    3  501    0 -0.70374440338E+02  0.67966180168E+01  0.34671466836E+02  0.78885717858E+02  0.47000000000E+01 0. -1.
        -13    1    4    4    0    0 -0.32795887908E+02  0.25151123753E+02 -0.10553872103E+02  0.42655990271E+02  0.00000000000E+00 0.  1.
         14    1    4    4    0    0  0.14153246479E+02 -0.24639171246E+01 -0.82400025873E+02  0.83642988573E+02  0.00000000000E+00 0. -1.
         -5    1    5    5    0  502  0.22237415647E+02 -0.44951111693E+02  0.14481029269E+03  0.15332063125E+03  0.47000000000E+01 0.  1.
         13    1    6    6    0    0  0.70819724388E+02 -0.13559381190E+02  0.66528706093E+01  0.72412366817E+02  0.00000000000E+00 0. -1.
        -14    1    6    6    0    0 -0.40400582673E+01  0.29026668239E+02  0.22656381418E+02  0.37042963689E+02  0.00000000000E+00 0.  1.
</event>
<event>
12    1  0.9873238E-001  0.3143108E+03  0.7818608E-02  0.1078374E+00
         21   -1    0    0  501  502  0.00000000000E+00  0.00000000000E+00  0.12671096150E+04  0.12671096150E+04  0.00000000000E+00 0.  1.
         21   -1    0    0  502  503 -0.00000000000E+00 -0.00000000000E+00 -0.78582006036E+02  0.78582006036E+02  0.00000000000E+00 0.  1.
         -6    2    1    2    0  503 -0.20085306071E+03 -0.16936238369E+03  0.66054384231E+03  0.73123400168E+03  0.17134593250E+03 0.  0.
        -24    2    3    3    0    0 -0.93095738664E+02 -0.45944287352E+02  0.18788953783E+03  0.23096622487E+03  0.85236286344E+02 0.  0.
          6    2    1    2  501    0  0.20085306071E+03  0.16936238369E+03  0.52798376665E+03  0.61445761935E+03  0.17252750253E+03 0.  0.
         24    2    5    5    0    0  0.13308809413E+03  0.83578677281E+02  0.43978995512E+03  0.47391875151E+03  0.80535348250E+02 0.  0.
          5    1    5    5  501    0  0.67764966581E+02  0.85783706412E+02  0.88193811528E+02  0.14053886784E+03  0.47000000000E+01 0. -1.
        -13    1    6    6    0    0  0.10881758408E+03  0.95939758927E+02  0.40169449039E+03  0.42708800914E+03  0.00000000000E+00 0.  1.
         14    1    6    6    0    0  0.24270510056E+02 -0.12361081646E+02  0.38095464729E+02  0.46830742368E+02  0.00000000000E+00 0. -1.
         -5    1    3    3    0  503 -0.10775732205E+03 -0.12341809634E+03  0.47265430449E+03  0.50026777680E+03  0.47000000000E+01 0.  1.
         13    1    4    4    0    0 -0.63178167542E+02 -0.47739088875E+02  0.18453522661E+03  0.20080774716E+03  0.00000000000E+00 0. -1.
        -14    1    4    4    0    0 -0.29917571121E+02  0.17948015227E+01  0.33543112219E+01  0.30158477715E+02  0.00000000000E+00 0.  1.
</event>
<event>
12    1  0.9873238E-001  0.2039487E+03  0.7818608E-02  0.1146482E+00
         21   -1    0    0  501  502  0.00000000000E+00  0.00000000000E+00  0.32104130273E+03  0.32104130273E+03  0.00000000000E+00 0.  1.
         21   -1    0    0  502  503 -0.00000000000E+00 -0.00000000000E+00 -0.19450777596E+03  0.19450777596E+03  0.00000000000E+00 0.  1.
         -6    2    1    2    0  503 -0.10669547600E+03  0.21158196671E+02  0.21231540006E+03  0.29429445302E+03  0.17233630521E+03 0.  0.
        -24    2    3    3    0    0 -0.20171109917E+01  0.85349063450E+01  0.15218934823E+03  0.17282783346E+03  0.81430638836E+02 0.  0.
          6    2    1    2  501    0  0.10669547600E+03 -0.21158196671E+02 -0.85781873300E+02  0.22125462566E+03  0.17252097179E+03 0.  0.
         24    2    5    5    0    0  0.42258141236E+02  0.53308094734E+02 -0.83109884317E+02  0.12263095613E+03  0.59191173888E+02 0.  0.
          5    1    5    5  501    0  0.64437334760E+02 -0.74466291404E+02 -0.26719889830E+01  0.98623669531E+02  0.47000000000E+01 0. -1.
        -13    1    6    6    0    0  0.44863865070E+02  0.18140384683E+02 -0.24526989596E+02  0.54253231831E+02  0.00000000000E+00 0.  1.
         14    1    6    6    0    0 -0.26057238340E+01  0.35167710050E+02 -0.58582894722E+02  0.68377724303E+02  0.00000000000E+00 0. -1.
         -5    1    3    3    0  503 -0.10467836500E+03  0.12623290326E+02  0.60126051831E+02  0.12146661956E+03  0.47000000000E+01 0.  1.
         11    1    4    4    0    0 -0.39228413758E+02 -0.12417745771E+01  0.10402727871E+03  0.11118491429E+03  0.00000000000E+00 0. -1.
        -12    1    4    4    0    0  0.37211302767E+02  0.97766809221E+01  0.48162069524E+02  0.61642919174E+02  0.00000000000E+00 0.  1.
</event>
<event>
12    1  0.9873238E-001  0.2073137E+03  0.7818608E-02  0.1144018E+00
         21   -1    0    0  501  502  0.00000000000E+00  0.00000000000E+00  0.31143871624E+02  0.31143871624E+02  0.00000000000E+00 0. -1.
         21   -1    0    0  502  503 -0.00000000000E+00 -0.00000000000E+00 -0.14134822620E+04  0.14134822620E+04  0.00000000000E+00 0. -1.
         -6    2    1    2    0  503  0.11078573513E+03 -0.27808048779E+02 -0.56681352856E+03  0.60353670550E+03  0.17300928310E+03 0.  0.
        -24    2    3    3    0    0  0.13015294254E+03  0.13773839509E+02 -0.49540464997E+03  0.51853399908E+03  0.79512476286E+02 0.  0.
          6    2    1    2  501    0 -0.11078573513E+03  0.27808048779E+02 -0.81552486180E+03  0.84108942811E+03  0.17118370010E+03 0.  0.
         24    2    5    5    0    0 -0.10114350317E+03  0.77202980923E+02 -0.68249997924E+03  0.69878503134E+03  0.79397669186E+02 0.  0.
          5    1    5    5  501    0 -0.96422319585E+01 -0.49394932144E+02 -0.13302488256E+03  0.14230439677E+03  0.47000000000E+01 0. -1.
        -11    1    6    6    0    0 -0.12734784495E+02  0.29080488524E+01 -0.27303052293E+03  0.27334282126E+03  0.00000000000E+00 0.  1.
         12    1    6    6    0    0 -0.88408718675E+02  0.74294932071E+02 -0.40946945631E+03  0.42544221008E+03  0.00000000000E+00 0. -1.
         -5    1    3    3    0  503 -0.19367207413E+02 -0.41581888288E+02 -0.71408878590E+02  0.85002706416E+02  0.47000000000E+01 0.  1.
         11    1    4    4    0    0  0.40693483922E+02  0.19316532315E+02 -0.30234951937E+03  0.30568663680E+03  0.00000000000E+00 0. -1.
        -12    1    4    4    0    0  0.89459458619E+02 -0.55426928056E+01 -0.19305513061E+03  0.21284736229E+03  0.00000000000E+00 0.  1.
</event>
<event>
12    1  0.9873238E-001  0.2584376E+03  0.7818608E-02  0.1108495E+00
         21   -1    0    0  501  502  0.00000000000E+00  0.00000000000E+00  0.91008742801E+03  0.91008742801E+03  0.00000000000E+00 0. -1.
         21   -1    0    0  502  503 -0.00000000000E+00 -0.00000000000E+00 -0.72634768531E+02  0.72634768531E+02  0.00000000000E+00 0.  1.
         -6    2    1    2    0  503 -0.18904524547E+03  0.29822026425E+02  0.42630337277E+03  0.49852236261E+03  0.17367360849E+03 0.  0.
        -24    2    3    3    0    0 -0.14148764891E+03 -0.12004804581E+02  0.18243709036E+03  0.24652223864E+03  0.85598201361E+02 0.  0.
          6    2    1    2  501    0  0.18904524547E+03 -0.29822026425E+02  0.41114928670E+03  0.48419983394E+03  0.16964163738E+03 0.  0.
         24    2    5    5    0    0  0.16978264526E+03  0.34583782600E+02  0.30564440526E+03  0.35900987423E+03  0.73806521905E+02 0.  0.
          5    1    5    5  501    0  0.19262600204E+02 -0.64405809025E+02  0.10550488144E+03  0.12518995971E+03  0.47000000000E+01 0. -1.
        -11    1    6    6    0    0  0.41131373305E+02  0.32524776515E+02  0.13837981421E+03  0.14798183652E+03  0.00000000000E+00 0.  1.
         12    1    6    6    0    0  0.12865127196E+03  0.20590060847E+01  0.16726459105E+03  0.21102803771E+03  0.00000000000E+00 0. -1.
         -5    1    3    3    0  503 -0.47557596557E+02  0.41826831006E+02  0.24386628241E+03  0.25200012397E+03  0.47000000000E+01 0.  1.
         11    1    4    4    0    0 -0.10389234215E+03 -0.23092420734E+02  0.69837552173E+02  0.12729557080E+03  0.00000000000E+00 0. -1.
        -12    1    4    4    0    0 -0.37595306760E+02  0.11087616152E+02  0.11259953819E+03  0.11922666784E+03  0.00000000000E+00 0.  1.
</event>
<event>
12    1  0.9873238E-001  0.1842804E+03  0.7818608E-02  0.1164599E+00
         21   -1    0    0  503  502  0.00000000000E+00  0.00000000000E+00  0.86494613288E+02  0.86494613288E+02  0.00000000000E+00 0.  1.
         21   -1    0    0  501  503 -0.00000000000E+00 -0.00000000000E+00 -0.56625838320E+03  0.56625838320E+03  0.00000000000E+00 0.  1.
          6    2    1    2  501    0  0.36408346820E+02 -0.40837449991E+02 -0.42628489520E+03  0.46441153056E+03  0.17597156818E+03 0.  0.
         24    2    3    3    0    0  0.65503519587E+02  0.15359144618E+00 -0.14032494638E+03  0.17402906401E+03  0.79399558397E+02 0.  0.
         -6    2    1    2    0  502 -0.36408346820E+02  0.40837449991E+02 -0.53478874714E+02  0.18834146592E+03  0.17210244828E+03 0.  0.
        -24    2    5    5    0    0 -0.73630588114E+02  0.70763059347E+02 -0.24175700889E+02  0.13211155095E+03  0.80250378849E+02 0.  0.
          5    1    3    3  501    0 -0.29095172767E+02 -0.40991041438E+02 -0.28595994881E+03  0.29038246656E+03  0.47000000000E+01 0. -1.
        -13    1    4    4    0    0 -0.12709869391E+02 -0.13286744116E+02 -0.52665440709E+02  0.55782855737E+02  0.00000000000E+00 0.  1.
         14    1    4    4    0    0  0.78213388978E+02  0.13440335562E+02 -0.87659505674E+02  0.11824620827E+03  0.00000000000E+00 0. -1.
         -5    1    5    5    0  502  0.37222241294E+02 -0.29925609356E+02 -0.29303173825E+02  0.56229914978E+02  0.47000000000E+01 0.  1.
         13    1    6    6    0    0 -0.42870871172E+02  0.58633735242E+02 -0.51646077773E+02  0.89124316843E+02  0.00000000000E+00 0. -1.
        -14    1    6    6    0    0 -0.30759716942E+02  0.12129324105E+02  0.27470376884E+02  0.42987234102E+02  0.00000000000E+00 0.  1.
</event>
<event>
12    1  0.9873238E-001  0.2074015E+03  0.7818608E-02  0.1143705E+00
         21   -1    0    0  501  502  0.00000000000E+00  0.00000000000E+00  0.60063921635E+03  0.60063921635E+03  0.00000000000E+00 0.  1.
         21   -1    0    0  502  503 -0.00000000000E+00 -0.00000000000E+00 -0.71654921049E+02  0.71654921049E+02  0.00000000000E+00 0.  1.
         -6    2    1    2    0  503 -0.10811392913E+03 -0.40398054013E+02  0.28006154446E+03  0.34849658230E+03  0.17232171874E+03 0.  0.
        -24    2    3    3    0    0 -0.14214021601E+03 -0.10247464214E+02  0.21366520659E+03  0.26789006925E+03  0.76180162546E+02 0.  0.
          6    2    1    2  501    0  0.10811392913E+03  0.40398054013E+02  0.24892275085E+03  0.32379755510E+03  0.17193515162E+03 0.  0.
         24    2    5    5    0    0  0.13007371441E+03  0.59507910663E+02  0.15558002510E+03  0.22590795790E+03  0.79805379645E+02 0.  0.
          5    1    5    5  501    0 -0.21959785282E+02 -0.19109856649E+02  0.93342725748E+02  0.97889597204E+02  0.47000000000E+01 0. -1.
        -13    1    6    6    0    0  0.68390096437E+01  0.27876114504E+02  0.56207005184E+01  0.29247941587E+02  0.00000000000E+00 0.  1.
         14    1    6    6    0    0  0.12323470477E+03  0.31631796159E+02  0.14995932458E+03  0.19666001631E+03  0.00000000000E+00 0. -1.
         -5    1    3    3    0  503  0.34026286877E+02 -0.30150589799E+02  0.66396337866E+02  0.80606513049E+02  0.47000000000E+01 0.  1.
         11    1    4    4    0    0 -0.57861470721E+02 -0.83714905581E+01  0.29799610916E+02  0.65620488103E+02  0.00000000000E+00 0. -1.
        -12    1    4    4    0    0 -0.84278745285E+02 -0.18759736559E+01  0.18386559567E+03  0.20226958114E+03  0.00000000000E+00 0.  1.
</event>
<event>
12    1  0.9873238E-001  0.1770928E+03  0.7818608E-02  0.1170828E+00
         21   -1    0    0  501  502  0.00000000000E+00  0.00000000000E+00  0.36041364964E+03  0.36041364964E+03  0.00000000000E+00 0.  1.
         21   -1    0    0  502  503 -0.00000000000E+00 -0.00000000000E+00 -0.10363258050E+03  0.10363258050E+03  0.00000000000E+00 0.  1.
         -6    2    1    2    0  503  0.19444129512E+01  0.39718014797E+02  0.22207638128E+03  0.28358492964E+03  0.17181732089E+03 0.  0.
        -24    2    3    3    0    0  0.28329714112E+02  0.48876087249E+02  0.50743024375E+02  0.10992646139E+03  0.79482877302E+02 0.  0.
          6    2    1    2  501    0 -0.19444129512E+01 -0.39718014797E+02  0.34704687869E+02  0.18046130050E+03  0.17257046148E+03 0.  0.
         24    2    5    5    0    0 -0.19589923619E+02  0.37593772980E+02  0.45519599114E+02  0.10028942961E+03  0.78669428079E+02 0.  0.
          5    1    5    5  501    0  0.17645510668E+02 -0.77311787776E+02 -0.10814911245E+02  0.80171870885E+02  0.47000000000E+01 0. -1.
        -11    1    6    6    0    0  0.41906943515E+01  0.49602159408E+01 -0.21271884499E+02  0.22240924699E+02  0.00000000000E+00 0.  1.
         12    1    6    6    0    0 -0.23780617971E+02  0.32633557039E+02  0.66791483613E+02  0.78048504914E+02  0.00000000000E+00 0. -1.
         -5    1    3    3    0  503 -0.26385301160E+02 -0.91580724520E+01  0.17133335690E+03  0.17365846825E+03  0.47000000000E+01 0.  1.
         13    1    4    4    0    0  0.51711661442E+01  0.61304398743E+02  0.11334416060E+02  0.62557487577E+02  0.00000000000E+00 0. -1.
        -14    1    4    4    0    0  0.23158547967E+02 -0.12428311494E+02  0.39408608315E+02  0.47368973811E+02  0.00000000000E+00 0.  1.
</event>
<event>
12    1  0.9873238E-001  0.1871388E+03  0.7818608E-02  0.1161528E+00
         21   -1    0    0  503  502  0.00000000000E+00  0.00000000000E+00  0.39562292187E+03  0.39562292187E+03  0.00000000000E+00 0.  1.
         21   -1    0    0  501  503 -0.00000000000E+00 -0.00000000000E+00 -0.12821551786E+03  0.12821551786E+03  0.00000000000E+00 0.  1.
          6    2    1    2  501    0 -0.69038902993E+02 -0.96043621471E+01  0.28163716147E+03  0.33814258562E+03  0.17367297888E+03 0.  0.
         24    2    3    3    0    0  0.51114635886E+01  0.22470717790E+02  0.22301546869E+03  0.23821420887E+03  0.80492545065E+02 0.  0.
         -6    2    1    2    0  502  0.69038902993E+02  0.96043621471E+01 -0.14229757463E+02  0.18569585411E+03  0.17152798703E+03 0.  0.
        -24    2    5    5    0    0  0.99720819040E+02 -0.21747978678E+02 -0.39905721506E+02  0.13464985155E+03  0.78236178248E+02 0.  0.
          5    1    3    3  501    0 -0.74150366582E+02 -0.32075079938E+02  0.58621692774E+02  0.99928376755E+02  0.47000000000E+01 0. -1.
        -13    1    4    4    0    0  0.33161203015E+02 -0.62173164715E+01  0.48080967878E+02  0.58737550865E+02  0.00000000000E+00 0.  1.
         14    1    4    4    0    0 -0.28049739426E+02  0.28688034262E+02  0.17493450082E+03  0.17947665800E+03  0.00000000000E+00 0. -1.
         -5    1    5    5    0  502 -0.30681916047E+02  0.31352340825E+02  0.25675964043E+02  0.51046002557E+02  0.47000000000E+01 0.  1.
         11    1    6    6    0    0  0.42398788976E+02  0.27053042992E+02 -0.30405600717E+02  0.58770953682E+02  0.00000000000E+00 0. -1.
        -12    1    6    6    0    0  0.57322030064E+02 -0.48801021669E+02 -0.95001207893E+01  0.75878897868E+02  0.00000000000E+00 0.  1.
</event>
<event>
12    1  0.9873238E-001  0.2215642E+03  0.7818608E-02  0.1133590E+00
         21   -1    0    0  501  502  0.00000000000E+00  0.00000000000E+00  0.70683357775E+02  0.70683357775E+02  0.00000000000E+00 0.  1.
         21   -1    0    0  502  503 -0.00000000000E+00 -0.00000000000E+00 -0.81625992681E+03  0.81625992681E+03  0.00000000000E+00 0.  1.
         -6    2    1    2    0  503 -0.37195434908E+02 -0.13117792359E+03 -0.19491771398E+03  0.29509930969E+03  0.17464117310E+03 0.  0.
        -24    2    3    3    0    0 -0.10850752899E+00  0.57512254958E+01 -0.66416044543E+02  0.10363181611E+03  0.79343392719E+02 0.  0.
          6    2    1    2  501    0  0.37195434908E+02  0.13117792359E+03 -0.55065885506E+03  0.59184397490E+03  0.16870971506E+03 0.  0.
         24    2    5    5    0    0  0.57808711317E+02  0.12729962952E+03 -0.54668450672E+03  0.56998456562E+03  0.80445089218E+02 0.  0.
          5    1    5    5  501    0 -0.20613276409E+02  0.38782940674E+01 -0.39743483371E+01  0.21859409276E+02  0.47000000000E+01 0. -1.
        -11    1    6    6    0    0  0.45391500667E+02  0.16010960713E+02 -0.19768627276E+03  0.20346154829E+03  0.00000000000E+00 0.  1.
         12    1    6    6    0    0  0.12417210651E+02  0.11128866881E+03 -0.34899823396E+03  0.36652301733E+03  0.00000000000E+00 0. -1.
         -5    1    3    3    0  503 -0.37086927379E+02 -0.13692914908E+03 -0.12850166944E+03  0.19146749358E+03  0.47000000000E+01 0.  1.
         11    1    4    4    0    0 -0.17528223046E+02 -0.23541568766E+02 -0.62849134673E+02  0.69364672509E+02  0.00000000000E+00 0. -1.
        -12    1    4    4    0    0  0.17419715517E+02  0.29292794261E+02 -0.35669098700E+01  0.34267143598E+02  0.00000000000E+00 0.  1.
</event>
<event>
12    1  0.9873238E-001  0.2522739E+03  0.7818608E-02  0.1112590E+00
         21   -1    0    0  503  502  0.00000000000E+00  0.00000000000E+00  0.26864406492E+04  0.26864406492E+04  0.00000000000E+00 0. -1.
         21   -1    0    0  501  503 -0.00000000000E+00 -0.00000000000E+00 -0.24371713291E+02  0.24371713291E+02  0.00000000000E+00 0. -1.
          6    2    1    2  501    0  0.35638712851E+02  0.17756293209E+03  0.10309277858E+04  0.10602780360E+04  0.16905236303E+03 0.  0.
         24    2    3    3    0    0  0.75774811613E+02  0.17537890452E+03  0.89212839782E+03  0.91569921149E+03  0.78181746664E+02 0.  0.
         -6    2    1    2    0  502 -0.35638712851E+02 -0.17756293209E+03  0.16311411502E+04  0.16505343265E+04  0.17562288729E+03 0.  0.
        -24    2    5    5    0    0 -0.15219582274E+02 -0.67420713603E+02  0.12101314135E+04  0.12148514860E+04  0.81663374251E+02 0.  0.
          5    1    3    3  501    0 -0.40136098762E+02  0.21840275764E+01  0.13879938795E+03  0.14457882450E+03  0.47000000000E+01 0. -1.
        -11    1    4    4    0    0  0.63659507885E+02  0.10979388666E+03  0.72002602359E+03  0.73112564252E+03  0.00000000000E+00 0.  1.
         12    1    4    4    0    0  0.12115303728E+02  0.65585017853E+02  0.17210237423E+03  0.18457356898E+03  0.00000000000E+00 0. -1.
         -5    1    5    5    0  502 -0.20419130576E+02 -0.11014221849E+03  0.42100973665E+03  0.43568284054E+03  0.47000000000E+01 0.  1.
         11    1    6    6    0    0  0.26477810466E+02 -0.11155068090E+01  0.21167269835E+03  0.21332522127E+03  0.00000000000E+00 0. -1.
        -12    1    6    6    0    0 -0.41697392740E+02 -0.66305206794E+02  0.99845871518E+03  0.10015262647E+04  0.00000000000E+00 0.  1.
</event>
<event>
12    1  0.9873238E-001  0.2380246E+03  0.7818608E-02  0.1122114E+00
         21   -1    0    0  503  502  0.00000000000E+00  0.00000000000E+00  0.22928794712E+04  0.22928794712E+04  0.00000000000E+00 0. -1.
         21   -1    0    0  501  503 -0.00000000000E+00 -0.00000000000E+00 -0.40813817323E+02  0.40813817323E+02  0.00000000000E+00 0. -1.
          6    2    1    2  501    0  0.93941557650E+02  0.13560526684E+03  0.18642983227E+04  0.18786996323E+04  0.16337156267E+03 0.  0.
         24    2    3    3    0    0  0.78807269957E+02  0.13924198437E+03  0.11103554934E+04  0.11245815034E+04  0.78710355521E+02 0.  0.
         -6    2    1    2    0  502 -0.93941557650E+02 -0.13560526684E+03  0.38776733115E+03  0.45499365627E+03  0.17158647815E+03 0.  0.
        -24    2    5    5    0    0 -0.13185182323E+03 -0.10298589728E+03  0.27617741442E+03  0.33261877721E+03  0.79814086407E+02 0.  0.
          5    1    3    3  501    0  0.15134287693E+02 -0.36367175285E+01  0.75394282929E+03  0.75411812882E+03  0.47000000000E+01 0. -1.
        -13    1    4    4    0    0  0.26759414359E+01  0.31717696923E+01  0.26100716817E+03  0.26104015519E+03  0.00000000000E+00 0.  1.
         14    1    4    4    0    0  0.76131328521E+02  0.13607021468E+03  0.84934832527E+03  0.86354134825E+03  0.00000000000E+00 0. -1.
         -5    1    5    5    0  502  0.37910265583E+02 -0.32619369560E+02  0.11158991673E+03  0.12237487905E+03  0.47000000000E+01 0.  1.
         11    1    6    6    0    0  0.49774159411E+01 -0.29742646855E+02  0.43522150723E+02  0.52948817881E+02  0.00000000000E+00 0. -1.
        -12    1    6    6    0    0 -0.13682923917E+03 -0.73243250427E+02  0.23265526370E+03  0.27966995933E+03  0.00000000000E+00 0.  1.
</event>
<event>
12    1  0.9873238E-001  0.2702197E+03  0.7818608E-02  0.1101207E+00
         21   -1    0    0  503  502  0.00000000000E+00  0.00000000000E+00  0.12626730066E+03  0.12626730066E+03  0.00000000000E+00 0. -1.
         21   -1    0    0  501  503 -0.00000000000E+00 -0.00000000000E+00 -0.59910678834E+03  0.59910678834E+03  0.00000000000E+00 0. -1.
          6    2    1    2  501    0  0.18963202842E+03  0.84621611659E+02 -0.16737380067E+03  0.31754079178E+03  0.17232829695E+03 0.  0.
         24    2    3    3    0    0  0.86686664986E+02  0.70361840417E+01 -0.14495452445E+03  0.18661348226E+03  0.79048667481E+02 0.  0.
         -6    2    1    2    0  502 -0.18963202842E+03 -0.84621611659E+02 -0.30546568701E+03  0.40783329722E+03  0.17290919298E+03 0.  0.
        -24    2    5    5    0    0 -0.84952642956E+02 -0.85818057437E+02 -0.94746821844E+02  0.17249580475E+03  0.78715639361E+02 0.  0.
          5    1    3    3  501    0  0.10294536343E+03  0.77585427617E+02 -0.22419276222E+02  0.13092730952E+03  0.47000000000E+01 0. -1.
        -13    1    4    4    0    0  0.84680020871E+02  0.33441802930E+02 -0.11271590037E+03  0.14489283735E+03  0.00000000000E+00 0.  1.
         14    1    4    4    0    0  0.20066441148E+01 -0.26405618888E+02 -0.32238624081E+02  0.41720644915E+02  0.00000000000E+00 0. -1.
         -5    1    5    5    0  502 -0.10467938546E+03  0.11964457778E+01 -0.21071886517E+03  0.23533749247E+03  0.47000000000E+01 0.  1.
         11    1    6    6    0    0 -0.50682606548E+02 -0.90756111581E+02 -0.90098119796E+02  0.13756114854E+03  0.00000000000E+00 0. -1.
        -12    1    6    6    0    0 -0.34270036408E+02  0.49380541445E+01 -0.46487020479E+01  0.34934656215E+02  0.00000000000E+00 0.  1.
</event>
<event>
12    1  0.9873238E-001  0.3460377E+03  0.7818608E-02  0.1064319E+00
         21   -1    0    0  501  502  0.00000000000E+00  0.00000000000E+00  0.63466098617E+03  0.63466098617E+03  0.00000000000E+00 0. -1.
         21   -1    0    0  502  503 -0.00000000000E+00 -0.00000000000E+00 -0.31326392217E+03  0.31326392217E+03  0.00000000000E+00 0.  1.
         -6    2    1    2    0  503  0.27815691647E+03  0.11166594959E+03 -0.13853031460E+03  0.37273684504E+03  0.17292065553E+03 0.  0.
        -24    2    3    3    0    0  0.15704030773E+03  0.12747703010E+03 -0.12241974708E+03  0.24944506281E+03  0.79524797587E+02 0.  0.
          6    2    1    2  501    0 -0.27815691647E+03 -0.11166594959E+03  0.45992737860E+03  0.57518806330E+03  0.17166117817E+03 0.  0.
         24    2    5    5    0    0 -0.50379395769E+02 -0.53751356624E+02  0.17310029763E+03  0.20433962607E+03  0.79772663766E+02 0.  0.
          5    1    5    5  501    0 -0.22777752071E+03 -0.57914592968E+02  0.28682708097E+03  0.37084843723E+03  0.47000000000E+01 0. -1.
        -13    1    6    6    0    0 -0.16802221678E+01  0.16319912974E+02  0.62668419663E+02  0.64780348325E+02  0.00000000000E+00 0.  1.
         14    1    6    6    0    0 -0.48699173601E+02 -0.70071269597E+02  0.11043187797E+03  0.13955927774E+03  0.00000000000E+00 0. -1.
         -5    1    3    3    0  503  0.12111660875E+03 -0.15811080507E+02 -0.16110567521E+02  0.12329178223E+03  0.47000000000E+01 0.  1.
         11    1    4    4    0    0  0.10791670435E+03  0.47697002301E+02 -0.95977246929E+02  0.15209421762E+03  0.00000000000E+00 0. -1.
        -12    1    4    4    0    0  0.49123603377E+02  0.79780027798E+02 -0.26442500148E+02  0.97350845185E+02  0.00000000000E+00 0.  1.
</event>
<event>
12    1  0.9873238E-001  0.1791954E+03  0.7818608E-02  0.1168868E+00
         21   -1    0    0  501  502  0.00000000000E+00  0.00000000000E+00  0.42782677099E+02  0.42782677099E+02  0.00000000000E+00 0. -1.
         21   -1    0    0  502  503 -0.00000000000E+00 -0.00000000000E+00 -0.74927413399E+03  0.74927413399E+03  0.00000000000E+00 0. -1.
         -6    2    1    2    0  503 -0.27861409300E+02  0.52019390015E+02 -0.32705056618E+03  0.37292503045E+03  0.16920026722E+03 0.  0.
        -24    2    3    3    0    0 -0.80882024732E+02  0.60524443272E+02 -0.25144374903E+03  0.28007029233E+03  0.70783469527E+02 0.  0.
          6    2    1    2  501    0  0.27861409300E+02 -0.52019390015E+02 -0.37944089070E+03  0.41913178064E+03  0.16796959527E+03 0.  0.
         24    2    5    5    0    0  0.46131407689E+02  0.34114680494E+02 -0.15964533142E+03  0.18230895905E+03  0.66768304646E+02 0.  0.
          5    1    5    5  501    0 -0.18269998389E+02 -0.86134070508E+02 -0.21979555929E+03  0.23682282159E+03  0.47000000000E+01 0. -1.
        -11    1    6    6    0    0  0.34500586973E+01 -0.19329933694E+02 -0.35078822703E+02  0.40200410991E+02  0.00000000000E+00 0.  1.
         12    1    6    6    0    0  0.42681348991E+02  0.53444614188E+02 -0.12456650871E+03  0.14210854805E+03  0.00000000000E+00 0. -1.
         -5    1    3    3    0  503  0.53020615433E+02 -0.85050532574E+01 -0.75606817149E+02  0.92854738119E+02  0.47000000000E+01 0.  1.
         11    1    4    4    0    0 -0.63011733748E+01 -0.36245511442E+01 -0.94932662500E+02  0.95210569614E+02  0.00000000000E+00 0. -1.
        -12    1    4    4    0    0 -0.74580851358E+02  0.64148994416E+02 -0.15651108653E+03  0.18485972271E+03  0.00000000000E+00 0.  1.
</event>
<event>
12    1  0.9873238E-001  0.2316951E+03  0.7818608E-02  0.1125542E+00
         21   -1    0    0  503  502  0.00000000000E+00  0.00000000000E+00  0.23556422446E+03  0.23556422446E+03  0.00000000000E+00 0.  1.
         21   -1    0    0  501  503 -0.00000000000E+00 -0.00000000000E+00 -0.24955708016E+03  0.24955708016E+03  0.00000000000E+00 0.  1.
          6    2    1    2  501    0  0.13918802715E+03  0.67753041209E+02  0.65308545639E+02  0.24023089621E+03  0.17170292911E+03 0.  0.
         24    2    3    3    0    0  0.80520264331E+02  0.36640634471E+02  0.10831186339E+03  0.16097647309E+03  0.79723999360E+02 0.  0.
         -6    2    1    2    0  502 -0.13918802715E+03 -0.67753041209E+02 -0.79301401342E+02  0.24489040840E+03  0.17239146840E+03 0.  0.
        -24    2    5    5    0    0 -0.13637744401E+03 -0.81257294765E+02 -0.11142832216E+03  0.20961303204E+03  0.79497151103E+02 0.  0.
          5    1    3    3  501    0  0.58667762822E+02  0.31112406738E+02 -0.43003317750E+02  0.79254423126E+02  0.47000000000E+01 0. -1.
        -13    1    4    4    0    0  0.57575905013E+02  0.55543402934E+02  0.10357504082E+03  0.13087338739E+03  0.00000000000E+00 0.  1.
         14    1    4    4    0    0  0.22944359318E+02 -0.18902768463E+02  0.47368225710E+01  0.30103085691E+02  0.00000000000E+00 0. -1.
         -5    1    5    5    0  502 -0.28105831446E+01  0.13504253556E+02  0.32126920822E+02  0.35277376365E+02  0.47000000000E+01 0.  1.
         13    1    6    6    0    0 -0.80712418234E+02 -0.78590785481E+02 -0.10413027552E+03  0.15340834495E+03  0.00000000000E+00 0. -1.
        -14    1    6    6    0    0 -0.55665025774E+02 -0.26665092842E+01 -0.72980466440E+01  0.56204687091E+02  0.00000000000E+00 0.  1.
</event>
<event>
12    1  0.9873238E-001  0.1872662E+03  0.7818608E-02  0.1161836E+00
         21   -1    0    0  501  502  0.00000000000E+00  0.00000000000E+00  0.17361634147E+04  0.17361634147E+04  0.00000000000E+00 0.  1.
         21   -1    0    0  502  503 -0.00000000000E+00 -0.00000000000E+00 -0.48308571751E+02  0.48308571751E+02  0.00000000000E+00 0.  1.
         -6    2    1    2    0  503  0.52377173534E+02  0.39983409678E+02  0.15484475342E+03  0.24006641261E+03  0.17121023171E+03 0.  0.
        -24    2    3    3    0    0  0.28142999539E+02  0.81226492977E+02  0.15150391109E+03  0.19188406795E+03  0.80475392965E+02 0.  0.
          6    2    1    2  501    0 -0.52377173534E+02 -0.39983409678E+02  0.15330100895E+04  0.15444055739E+04  0.17529004701E+03 0.  0.
         24    2    5    5    0    0 -0.59792444607E+02 -0.16857910438E+02  0.43934320011E+03  0.45045898924E+03  0.77662912193E+02 0.  0.
          5    1    5    5  501    0  0.74152710730E+01 -0.23125499240E+02  0.10936668894E+04  0.10939465846E+04  0.47000000000E+01 0. -1.
        -11    1    6    6    0    0 -0.58069819042E+02 -0.46473171360E+01  0.43240110618E+03  0.43630771029E+03  0.00000000000E+00 0.  1.
         12    1    6    6    0    0 -0.17226255651E+01 -0.12210593302E+02  0.69420939301E+01  0.14151278945E+02  0.00000000000E+00 0. -1.
         -5    1    3    3    0  503  0.24234173995E+02 -0.41243083299E+02  0.33408423373E+01  0.48182344658E+02  0.47000000000E+01 0.  1.
         13    1    4    4    0    0 -0.16901748407E+02  0.58030242504E+02  0.50018523083E+02  0.78454004332E+02  0.00000000000E+00 0. -1.
        -14    1    4    4    0    0  0.45044747946E+02  0.23196250473E+02  0.10148538800E+03  0.11343006362E+03  0.00000000000E+00 0.  1.
</event>
<event>
12    1  0.9873238E-001  0.2107617E+03  0.7818608E-02  0.1142198E+00
         21   -1    0    0  501  502  0.00000000000E+00  0.00000000000E+00  0.49525580230E+03  0.49525580230E+03  0.00000000000E+00 0.  1.
         21   -1    0    0  502  503 -0.00000000000E+00 -0.00000000000E+00 -0.11133218841E+03  0.11133218841E+03  0.00000000000E+00 0.  1.
         -6    2    1    2    0  503  0.27495971496E+02  0.10891396323E+03  0.33570490842E+03  0.39638150584E+03  0.17833180536E+03 0.  0.
        -24    2    3    3    0    0  0.81312685149E+02  0.75988684151E+02  0.16563524024E+03  0.21492601624E+03  0.79825602185E+02 0.  0.
          6    2    1    2  501    0 -0.27495971496E+02 -0.10891396323E+03  0.48218705475E+02  0.21020648487E+03  0.17100714280E+03 0.  0.
         24    2    5    5    0    0  0.50741216447E+02 -0.47410735895E+02  0.15997934694E+02  0.10549749471E+03  0.77790349992E+02 0.  0.
          5    1    5    5  501    0 -0.78237187943E+02 -0.61503227334E+02  0.32220770782E+02  0.10470899016E+03  0.47000000000E+01 0. -1.
        -11    1    6    6    0    0  0.30232717590E+02 -0.63397816850E+01 -0.28160536478E+02  0.41799830854E+02  0.00000000000E+00 0.  1.
         12    1    6    6    0    0  0.20508498856E+02 -0.41070954210E+02  0.44158471171E+02  0.63697663860E+02  0.00000000000E+00 0. -1.
         -5    1    3    3    0  503 -0.53816713653E+02  0.32925279078E+02  0.17006966818E+03  0.18145548960E+03  0.47000000000E+01 0.  1.
         11    1    4    4    0    0  0.86887048485E+02  0.71606970450E+02  0.17188235439E+03  0.20547618150E+03  0.00000000000E+00 0. -1.
        -12    1    4    4    0    0 -0.55743633359E+01  0.43817137015E+01 -0.62471141505E+01  0.94498347484E+01  0.00000000000E+00 0.  1.
</event>
<event>
12    1  0.9873238E-001  0.2779306E+03  0.7818608E-02  0.1097071E+00
         21   -1    0    0  503  502  0.00000000000E+00  0.00000000000E+00  0.34712240994E+03  0.34712240994E+03  0.00000000000E+00 0.  1.
         21   -1    0    0  501  503 -0.00000000000E+00 -0.00000000000E+00 -0.22586776586E+03  0.22586776586E+03  0.00000000000E+00 0.  1.
          6    2    1    2  501    0  0.11768652778E+03  0.18273021527E+03  0.19233261505E+02  0.27859528125E+03  0.17321940421E+03 0.  0.
         24    2    3    3    0    0  0.13990932785E+03  0.18339581515E+03  0.39353677791E+02  0.24824372416E+03  0.82870921261E+02 0.  0.
         -6    2    1    2    0  502 -0.11768652778E+03 -0.18273021527E+03  0.10202138257E+03  0.29439489455E+03  0.17035122847E+03 0.  0.
        -24    2    5    5    0    0 -0.12089983596E+03 -0.91262821251E+02  0.10827312079E+03  0.20253748467E+03  0.79703771144E+02 0.  0.
          5    1    3    3  501    0 -0.22222800076E+02 -0.66559988616E+00 -0.20120416286E+02  0.30351557092E+02  0.47000000000E+01 0. -1.
        -13    1    4    4    0    0  0.24655773077E+02  0.21235310783E+02  0.37014718552E+02  0.49284226276E+02  0.00000000000E+00 0.  1.
         14    1    4    4    0    0  0.11525355478E+03  0.16216050437E+03  0.23389592384E+01  0.19895949788E+03  0.00000000000E+00 0. -1.
         -5    1    5    5    0  502  0.32133081829E+01 -0.91467394017E+02 -0.62517382163E+01  0.91857409872E+02  0.47000000000E+01 0.  1.
         13    1    6    6    0    0 -0.30601402987E+02 -0.71001641108E+02  0.36908417007E+02  0.85673275593E+02  0.00000000000E+00 0. -1.
        -14    1    6    6    0    0 -0.90298432973E+02 -0.20261180142E+02  0.71364703781E+02  0.11686420908E+03  0.00000000000E+00 0.  1.
</event>
<event>
12    1  0.9873238E-001  0.2573574E+03  0.7818608E-02  0.1108845E+00
         21   -1    0    0  501  502  0.00000000000E+00  0.00000000000E+00  0.12402344710E+04  0.12402344710E+04  0.00000000000E+00 0.  1.
         21   -1    0    0  502  503 -0.00000000000E+00 -0.00000000000E+00 -0.60928643386E+02  0.60928643386E+02  0.00000000000E+00 0.  1.
         -6    2    1    2    0  503  0.13341759277E+03 -0.13754460780E+03  0.81973573447E+03  0.85898276215E+03  0.17078037978E+03 0.  0.
        -24    2    3    3    0    0  0.42698473383E+02 -0.13673706438E+03  0.54098980990E+03  0.56580706192E+03  0.83351499625E+02 0.  0.
          6    2    1    2  501    0 -0.13341759277E+03  0.13754460780E+03  0.35957009314E+03  0.44218035223E+03  0.17179650409E+03 0.  0.
         24    2    5    5    0    0 -0.40955468687E+02  0.12998894345E+03  0.17668352846E+03  0.23705619959E+03  0.80025600287E+02 0.  0.
          5    1    5    5  501    0 -0.92462124084E+02  0.75556643496E+01  0.18288656468E+03  0.20512415263E+03  0.47000000000E+01 0. -1.
        -13    1    6    6    0    0 -0.21135294978E+02  0.41687944937E+01  0.62095609728E+02  0.65726283090E+02  0.00000000000E+00 0.  1.
         14    1    6    6    0    0 -0.19820173708E+02  0.12582014896E+03  0.11458791873E+03  0.17132991650E+03  0.00000000000E+00 0. -1.
         -5    1    3    3    0  503  0.90719119388E+02 -0.80754342029E+00  0.27874592456E+03  0.29317570024E+03  0.47000000000E+01 0.  1.
         11    1    4    4    0    0 -0.13363383152E+02 -0.32194725941E+02  0.51777730737E+02  0.62418056586E+02  0.00000000000E+00 0. -1.
        -12    1    4    4    0    0  0.56061856535E+02 -0.10454233844E+03  0.48921207917E+03  0.50338900533E+03  0.00000000000E+00 0.  1.
</event>
<event>
12    1  0.9873238E-001  0.2030571E+03  0.7818608E-02  0.1147435E+00
         21   -1    0    0  501  502  0.00000000000E+00  0.00000000000E+00  0.20947005094E+03  0.20947005094E+03  0.00000000000E+00 0.  1.
         21   -1    0    0  502  503 -0.00000000000E+00 -0.00000000000E+00 -0.19902080624E+03  0.19902080624E+03  0.00000000000E+00 0.  1.
         -6    2    1    2    0  503  0.10421815631E+03 -0.12415639660E+02  0.31693445530E+02  0.20432545601E+03  0.17242054771E+03 0.  0.
        -24    2    3    3    0    0  0.61211861732E+02 -0.36380728511E+02  0.80216042880E+02  0.13504054199E+03  0.82041971106E+02 0.  0.
          6    2    1    2  501    0 -0.10421815631E+03  0.12415639660E+02 -0.21244200834E+02  0.20416540116E+03  0.17382929198E+03 0.  0.
         24    2    5    5    0    0 -0.36400113247E+02 -0.27590521546E+02 -0.70320270699E+02  0.11126582887E+03  0.73136441527E+02 0.  0.
          5    1    5    5  501    0 -0.67818043061E+02  0.40006161207E+02  0.49076069866E+02  0.92899572295E+02  0.47000000000E+01 0. -1.
        -13    1    6    6    0    0  0.18568721900E+02 -0.22702444466E+02 -0.35350666134E+02  0.45933299618E+02  0.00000000000E+00 0.  1.
         14    1    6    6    0    0 -0.54968835146E+02 -0.48880770807E+01 -0.34969604566E+02  0.65332529251E+02  0.00000000000E+00 0. -1.
         -5    1    3    3    0  503  0.43006294576E+02  0.23965088850E+02 -0.48522597350E+02  0.69284914018E+02  0.47000000000E+01 0.  1.
         11    1    4    4    0    0  0.54944724395E+02  0.22490392652E+01  0.11830496638E+02  0.56248925031E+02  0.00000000000E+00 0. -1.
        -12    1    4    4    0    0  0.62671373370E+01 -0.38629767776E+02  0.68385546242E+02  0.78791616963E+02  0.00000000000E+00 0.  1.
</event>
<event>
12    1  0.9873238E-001  0.2780786E+03  0.7818608E-02  0.1096840E+00
         21   -1    0    0  503  502  0.00000000000E+00  0.00000000000E+00  0.18698192617E+03  0.18698192617E+03  0.00000000000E+00 0.  1.
         21   -1    0    0  501  503 -0.00000000000E+00 -0.00000000000E+00 -0.42765201597E+03  0.42765201597E+03  0.00000000000E+00 0.  1.
          6    2    1    2  501    0  0.14691331920E+03  0.16125055934E+03 -0.62652143498E+02  0.28504912394E+03  0.17245998297E+03 0.  0.
         24    2    3    3    0    0  0.79362763669E+02  0.17151343704E+03 -0.67536615504E+02  0.21638798297E+03  0.80915124650E+02 0.  0.
         -6    2    1    2    0  502 -0.14691331920E+03 -0.16125055934E+03 -0.17801794630E+03  0.32958481820E+03  0.17131986731E+03 0.  0.
        -24    2    5    5    0    0 -0.37423332535E+02 -0.13361174934E+03 -0.13193215464E+03  0.20752765457E+03  0.80056408909E+02 0.  0.
          5    1    3    3  501    0  0.67550555534E+02 -0.10262877702E+02  0.48844720065E+01  0.68661140964E+02  0.47000000000E+01 0. -1.
        -13    1    4    4    0    0  0.32581265659E+02  0.21598704892E+02 -0.41832730802E+02  0.57253998038E+02  0.00000000000E+00 0.  1.
         14    1    4    4    0    0  0.46781498009E+02  0.14991473215E+03 -0.25703884703E+02  0.15913398493E+03  0.00000000000E+00 0. -1.
         -5    1    5    5    0  502 -0.10948998667E+03 -0.27638810005E+02 -0.46085791666E+02  0.12205716363E+03  0.47000000000E+01 0.  1.
         11    1    6    6    0    0 -0.44141891221E+02 -0.10631288439E+03 -0.13702110607E+03  0.17895731183E+03  0.00000000000E+00 0. -1.
        -12    1    6    6    0    0  0.67185586859E+01 -0.27298864945E+02  0.50889514308E+01  0.28570342749E+02  0.00000000000E+00 0.  1.
</event>
<event>
12    1  0.9873238E-001  0.1860129E+03  0.7818608E-02  0.1162685E+00
         21   -1    0    0  501  502  0.00000000000E+00  0.00000000000E+00  0.53196883363E+03  0.53196883363E+03  0.00000000000E+00 0. -1.
         21   -1    0    0  502  503 -0.00000000000E+00 -0.00000000000E+00 -0.67690919624E+02  0.67690919624E+02  0.00000000000E+00 0. -1.
         -6    2    1    2    0  503  0.44145066619E+02 -0.51537902223E+02  0.30188596818E+03  0.35459263230E+03  0.17319311427E+03 0.  0.
        -24    2    3    3    0    0  0.44441617282E+01 -0.76082752400E+02  0.10412445751E+03  0.15134323717E+03  0.79085630804E+02 0.  0.
          6    2    1    2  501    0 -0.44145066619E+02  0.51537902223E+02  0.16239194582E+03  0.24506712095E+03  0.17053388938E+03 0.  0.
         24    2    5    5    0    0  0.37562199188E+02  0.52918630658E+01  0.73146156927E+02  0.11544584854E+03  0.80860750988E+02 0.  0.
          5    1    5    5  501    0 -0.81707265807E+02  0.46246039157E+02  0.89245788898E+02  0.12962127240E+03  0.47000000000E+01 0. -1.
        -13    1    6    6    0    0  0.53481678135E+02  0.28656569931E+02  0.54666669730E+02  0.81669661905E+02  0.00000000000E+00 0.  1.
         14    1    6    6    0    0 -0.15919478946E+02 -0.23364706865E+02  0.18479487196E+02  0.33776186639E+02  0.00000000000E+00 0. -1.
         -5    1    3    3    0  503  0.39700904890E+02  0.24544850178E+02  0.19776151067E+03  0.20324939513E+03  0.47000000000E+01 0.  1.
         11    1    4    4    0    0  0.64792889467E+00 -0.14364995857E+02  0.85591808818E+02  0.86791305178E+02  0.00000000000E+00 0. -1.
        -12    1    4    4    0    0  0.37962328335E+01 -0.61717756543E+02  0.18532648689E+02  0.64551931991E+02  0.00000000000E+00 0.  1.
</event>
<event>
12    1  0.9873238E-001  0.1828978E+03  0.7818608E-02  0.1165704E+00
         21   -1    0    0  501  502  0.00000000000E+00  0.00000000000E+00  0.30891081227E+03  0.30891081227E+03  0.00000000000E+00 0.  1.
         21   -1    0    0  502  503 -0.00000000000E+00 -0.00000000000E+00 -0.10717102519E+03  0.10717102519E+03  0.00000000000E+00 0.  1.
         -6    2    1    2    0  503  0.55124288637E+02  0.29696243287E+01  0.11501461438E+03  0.21366431507E+03  0.17139595137E+03 0.  0.
        -24    2    3    3    0    0  0.12436626334E+02  0.33687484931E+02  0.67800715725E+00  0.87724753273E+02  0.80035344240E+02 0.  0.
          6    2    1    2  501    0 -0.55124288637E+02 -0.29696243287E+01  0.86725172694E+02  0.20241752240E+03  0.17436769176E+03 0.  0.
         24    2    5    5    0    0 -0.25885931688E+01  0.43478182778E+02 -0.82913321615E+00  0.90144442071E+02  0.78919451227E+02 0.  0.
          5    1    5    5  501    0 -0.52535695468E+02 -0.46447807107E+02  0.87554305910E+02  0.11227308033E+03  0.47000000000E+01 0. -1.
        -13    1    6    6    0    0  0.66175136134E+01 -0.22459183732E+02  0.20645025319E+01  0.23504650413E+02  0.00000000000E+00 0.  1.
         14    1    6    6    0    0 -0.92061067822E+01  0.65937366510E+02 -0.28936357481E+01  0.66639791658E+02  0.00000000000E+00 0. -1.
         -5    1    3    3    0  503  0.42687662302E+02 -0.30717860602E+02  0.11433660723E+03  0.12593956179E+03  0.47000000000E+01 0.  1.
         13    1    4    4    0    0  0.12458412001E+02  0.32148364430E+02  0.37459461052E+02  0.50911104756E+02  0.00000000000E+00 0. -1.
        -14    1    4    4    0    0 -0.21785667107E-01  0.15391205011E+01 -0.36781453895E+02  0.36813648518E+02  0.00000000000E+00 0.  1.
</event>
<event>
12    1  0.9873238E-001  0.2283248E+03  0.7818608E-02  0.1127934E+00
         21   -1    0    0  503  502  0.00000000000E+00  0.00000000000E+00  0.20016829503E+03  0.20016829503E+03  0.00000000000E+00 0. -1.
         21   -1    0    0  501  503 -0.00000000000E+00 -0.00000000000E+00 -0.28268702996E+03  0.28268702996E+03  0.00000000000E+00 0. -1.
          6    2    1    2  501    0  0.11915366845E+03  0.90961720653E+02  0.27579722272E+02  0.22937181539E+03  0.17140349263E+03 0.  0.
         24    2    3    3    0    0  0.79224213884E+02  0.80291581339E+02  0.82091088535E+02  0.16080219918E+03  0.79969908997E+02 0.  0.
         -6    2    1    2    0  502 -0.11915366845E+03 -0.90961720653E+02 -0.11009845720E+03  0.25348350960E+03  0.17222249572E+03 0.  0.
        -24    2    5    5    0    0 -0.30159426397E+02 -0.16337574402E+02 -0.10620544685E+03  0.13718224627E+03  0.79767564920E+02 0.  0.
          5    1    3    3  501    0  0.39929454570E+02  0.10670139314E+02 -0.54511366264E+02  0.68569616210E+02  0.47000000000E+01 0. -1.
        -13    1    4    4    0    0  0.84919689159E+02  0.76737970802E+02  0.44798884520E+02  0.12291057653E+03  0.00000000000E+00 0.  1.
         14    1    4    4    0    0 -0.56954752751E+01  0.35536105370E+01  0.37292204016E+02  0.37891622647E+02  0.00000000000E+00 0. -1.
         -5    1    5    5    0  502 -0.88994242057E+02 -0.74624146251E+02 -0.38930103507E+01  0.11630126333E+03  0.47000000000E+01 0.  1.
         11    1    6    6    0    0 -0.25188027624E+02  0.30067545714E+02 -0.58600590553E+02  0.70516120526E+02  0.00000000000E+00 0. -1.
        -12    1    6    6    0    0 -0.49713987729E+01 -0.46405120116E+02 -0.47604856297E+02  0.66666125745E+02  0.00000000000E+00 0.  1.
</event>
<event>
12    1  0.9873238E-001  0.1872068E+03  0.7818608E-02  0.1161108E+00
         21   -1    0    0  501  502  0.00000000000E+00  0.00000000000E+00  0.18138467666E+02  0.18138467666E+02  0.00000000000E+00 0.  1.
         21   -1    0    0  502  503 -0.00000000000E+00 -0.00000000000E+00 -0.20446512152E+04  0.20446512152E+04  0.00000000000E+00 0.  1.
         -6    2    1    2    0  503 -0.73366962173E+02 -0.87271383400E+00 -0.76526028776E+03  0.78771942636E+03  0.17174141570E+03 0.  0.
        -24    2    3    3    0    0 -0.23996771200E+02  0.65450074288E+02 -0.40610490945E+03  0.41913998614E+03  0.76795659050E+02 0.  0.
          6    2    1    2  501    0  0.73366962173E+02  0.87271383400E+00 -0.12612524597E+04  0.12750702565E+04  0.17222926285E+03 0.  0.
         24    2    5    5    0    0  0.61937363883E+02 -0.31906551885E+02 -0.11987726368E+04  0.12034397165E+04  0.79731119965E+02 0.  0.
          5    1    5    5  501    0  0.11429598289E+02  0.32779265719E+02 -0.62479822949E+02  0.71630539952E+02  0.47000000000E+01 0. -1.
        -11    1    6    6    0    0 -0.51008829683E+01  0.18383262905E+02 -0.35594049098E+03  0.35645139428E+03  0.00000000000E+00 0.  1.
         12    1    6    6    0    0  0.67038246852E+02 -0.50289814790E+02 -0.84283214581E+03  0.84698832225E+03  0.00000000000E+00 0. -1.
         -5    1    3    3    0  503 -0.49370190973E+02 -0.66322788122E+02 -0.35915537831E+03  0.36857944021E+03  0.47000000000E+01 0.  1.
         13    1    4    4    0    0 -0.17710244107E+01  0.81295374975E+00 -0.23329991361E+03  0.23330805196E+03  0.00000000000E+00 0. -1.
        -14    1    4    4    0    0 -0.22225746789E+02  0.64637120538E+02 -0.17280499585E+03  0.18583193418E+03  0.00000000000E+00 0.  1.
</event>
<event>
12    1  0.9873238E-001  0.2453410E+03  0.7818608E-02  0.1116300E+00
         21   -1    0    0  501  502  0.00000000000E+00  0.00000000000E+00  0.23937226191E+03  0.23937226191E+03  0.00000000000E+00 0. -1.
         21   -1    0    0  502  503 -0.00000000000E+00 -0.00000000000E+00 -0.26711968996E+03  0.26711968996E+03  0.00000000000E+00 0. -1.
         -6    2    1    2    0  503 -0.14438359968E+03 -0.98347364846E+02  0.47628634804E+02  0.24992139287E+03  0.17225965207E+03 0.  0.
        -24    2    3    3    0    0 -0.12875024538E+03 -0.52492054757E+02  0.91772354344E+02  0.18421089747E+03  0.78609466537E+02 0.  0.
          6    2    1    2  501    0  0.14438359968E+03  0.98347364846E+02 -0.75376062862E+02  0.25657055900E+03  0.17212807111E+03 0.  0.
         24    2    5    5    0    0  0.13520436969E+03  0.94768112767E+02 -0.28985663105E+01  0.18327562865E+03  0.79500550878E+02 0.  0.
          5    1    5    5  501    0  0.91792299899E+01  0.35792520787E+01 -0.72477496552E+02  0.73294930350E+02  0.47000000000E+01 0. -1.
        -13    1    6    6    0    0  0.35579207760E+02  0.56539911607E+02  0.27622589341E+02  0.72288651055E+02  0.00000000000E+00 0.  1.
         14    1    6    6    0    0  0.99625161931E+02  0.38228201160E+02 -0.30521155652E+02  0.11098697760E+03  0.00000000000E+00 0. -1.
         -5    1    3    3    0  503 -0.15633354304E+02 -0.45855310089E+02 -0.44143719540E+02  0.65710495395E+02  0.47000000000E+01 0.  1.
         11    1    4    4    0    0 -0.80964983896E+02 -0.15181758516E+02  0.92126018489E+02  0.12358405112E+03  0.00000000000E+00 0. -1.
        -12    1    4    4    0    0 -0.47785261481E+02 -0.37310296240E+02 -0.35366414554E+00  0.60626846352E+02  0.00000000000E+00 0.  1.
</event>
<event>
12    1  0.9873238E-001  0.2690072E+03  0.7818608E-02  0.1102235E+00
         21   -1    0    0  501  502  0.00000000000E+00  0.00000000000E+00  0.86098683782E+03  0.86098683782E+03  0.00000000000E+00 0. -1.
         21   -1    0    0  502  503 -0.00000000000E+00 -0.00000000000E+00 -0.15915180660E+03  0.15915180660E+03  0.00000000000E+00 0. -1.
         -6    2    1    2    0  503 -0.14398452160E+03 -0.14500444990E+03 -0.23190432887E+01  0.26634967596E+03  0.17081843861E+03 0.  0.
        -24    2    3    3    0    0 -0.69853827094E+02 -0.58281870720E+02 -0.66064264045E+02  0.13557617414E+03  0.75763305083E+02 0.  0.
          6    2    1    2  501    0  0.14398452160E+03  0.14500444990E+03  0.70415407451E+03  0.75378896846E+03  0.17494860779E+03 0.  0.
         24    2    5    5    0    0  0.14802547392E+03  0.53139021580E+02  0.45692686473E+03  0.48997280240E+03  0.80968455824E+02 0.  0.
          5    1    5    5  501    0 -0.40409523146E+01  0.91865428324E+02  0.24722720978E+03  0.26381616605E+03  0.47000000000E+01 0. -1.
        -11    1    6    6    0    0  0.54754315477E+02 -0.15492896406E+02  0.20416809031E+03  0.21194969687E+03  0.00000000000E+00 0.  1.
         12    1    6    6    0    0  0.93271158440E+02  0.68631917986E+02  0.25275877442E+03  0.27802310553E+03  0.00000000000E+00 0. -1.
         -5    1    3    3    0  503 -0.74130694507E+02 -0.86722579184E+02  0.63745220757E+02  0.13077350182E+03  0.47000000000E+01 0.  1.
         13    1    4    4    0    0 -0.22315546349E+02  0.78885460118E+01  0.84819416503E+01  0.25142714674E+02  0.00000000000E+00 0. -1.
        -14    1    4    4    0    0 -0.47538280746E+02 -0.66170416731E+02 -0.74546205696E+02  0.11043345947E+03  0.00000000000E+00 0.  1.
</event>
<event>
12    1  0.9873238E-001  0.2529412E+03  0.7818608E-02  0.1113947E+00
         21   -1    0    0  503  502  0.00000000000E+00  0.00000000000E+00  0.20081447546E+03  0.20081447546E+03  0.00000000000E+00 0.  1.
         21   -1    0    0  501  503 -0.00000000000E+00 -0.00000000000E+00 -0.30469350118E+03  0.30469350118E+03  0.00000000000E+00 0. -1.
          6    2    1    2  501    0  0.14258248559E+03 -0.81715671231E+02 -0.83522019613E+02  0.25174889217E+03  0.17144783704E+03 0.  0.
         24    2    3    3    0    0  0.64738886163E+02 -0.63600095241E+02  0.17426904280E+02  0.12290567232E+03  0.81030931132E+02 0.  0.
         -6    2    1    2    0  502 -0.14258248559E+03  0.81715671231E+02 -0.20357006112E+02  0.25375908448E+03  0.19228117208E+03 0.  0.
        -24    2    5    5    0    0 -0.13432360412E+03  0.30536481580E+01 -0.57331820919E+02  0.16632253647E+03  0.79524166495E+02 0.  0.
          5    1    3    3  501    0  0.77843599422E+02 -0.18115575990E+02 -0.10094892389E+03  0.12884321984E+03  0.47000000000E+01 0. -1.
        -11    1    4    4    0    0  0.17031869549E+02 -0.22727361628E+02 -0.32135462117E+02  0.42887124785E+02  0.00000000000E+00 0.  1.
         12    1    4    4    0    0  0.47707016615E+02 -0.40872733613E+02  0.49562366397E+02  0.80018547538E+02  0.00000000000E+00 0. -1.
         -5    1    5    5    0  502 -0.82588814605E+01  0.78662023073E+02  0.36974814808E+02  0.87436548005E+02  0.47000000000E+01 0.  1.
         11    1    6    6    0    0 -0.12730941187E+03  0.18421080668E+02 -0.68825874312E+02  0.14589045047E+03  0.00000000000E+00 0. -1.
        -12    1    6    6    0    0 -0.70141922508E+01 -0.15367432510E+02  0.11494053393E+02  0.20432085999E+02  0.00000000000E+00 0.  1.
</event>
<event>
12    1  0.9873238E-001  0.2777025E+03  0.7818608E-02  0.1097151E+00
         21   -1    0    0  503  502  0.00000000000E+00  0.00000000000E+00  0.71113331297E+02  0.71113331297E+02  0.00000000000E+00 0. -1.
         21   -1    0    0  501  503 -0.00000000000E+00 -0.00000000000E+00 -0.13679239228E+04  0.13679239228E+04  0.00000000000E+00 0. -1.
          6    2    1    2  501    0  0.91731409521E+02  0.19784042788E+03 -0.31626888241E+03  0.41992943585E+03  0.16958549088E+03 0.  0.
         24    2    3    3    0    0  0.49023529578E+02  0.20118948238E+03 -0.20710529693E+03  0.30256693089E+03  0.75984402205E+02 0.  0.
         -6    2    1    2    0  502 -0.91731409521E+02 -0.19784042788E+03 -0.98054170909E+03  0.10191078182E+04  0.17193956946E+03 0.  0.
        -24    2    5    5    0    0 -0.12589144747E+03 -0.17955243094E+03 -0.75337409956E+03  0.78861145852E+03  0.79042815141E+02 0.  0.
          5    1    3    3  501    0  0.42707879943E+02 -0.33490545056E+01 -0.10916358548E+03  0.11736250496E+03  0.47000000000E+01 0. -1.
        -13    1    4    4    0    0  0.78318557832E+01  0.55858119250E+02 -0.15341572376E+02  0.58453667927E+02  0.00000000000E+00 0.  1.
         14    1    4    4    0    0  0.41191673794E+02  0.14533136313E+03 -0.19176372455E+03  0.24411326296E+03  0.00000000000E+00 0. -1.
         -5    1    5    5    0  502  0.34160037949E+02 -0.18287996942E+02 -0.22716760953E+03  0.23049635972E+03  0.47000000000E+01 0.  1.
         11    1    6    6    0    0 -0.71101147668E+01  0.33628875799E+01 -0.55332740459E+01  0.96166452851E+01  0.00000000000E+00 0. -1.
        -12    1    6    6    0    0 -0.11878133270E+03 -0.18291531852E+03 -0.74784082551E+03  0.77899481324E+03  0.00000000000E+00 0.  1.
</event>
<event>
12    1  0.9873238E-001  0.2014554E+03  0.7818608E-02  0.1149144E+00
         21   -1    0    0  501  502  0.00000000000E+00  0.00000000000E+00  0.22659110694E+03  0.22659110694E+03  0.00000000000E+00 0.  1.
         21   -1    0    0  502  503 -0.00000000000E+00 -0.00000000000E+00 -0.18713406292E+03  0.18713406292E+03  0.00000000000E+00 0.  1.
         -6    2    1    2    0  503  0.24192056548E+02  0.97752784816E+02 -0.29793125849E+02  0.20069967945E+03  0.17103177613E+03 0.  0.
        -24    2    3    3    0    0  0.30972118157E+01  0.71929548002E+02 -0.83553138345E+02  0.13726419272E+03  0.81712172152E+02 0.  0.
          6    2    1    2  501    0 -0.24192056548E+02 -0.97752784816E+02  0.69250169868E+02  0.21302549041E+03  0.17448040291E+03 0.  0.
         24    2    5    5    0    0 -0.12519402017E+02 -0.43396008060E+02 -0.30467154287E+02  0.98760251692E+02  0.82373484092E+02 0.  0.
          5    1    5    5  501    0 -0.11672654530E+02 -0.54356776756E+02  0.99717324154E+02  0.11426523872E+03  0.47000000000E+01 0. -1.
        -11    1    6    6    0    0  0.73316799216E+01  0.37985663645E+01  0.23177257607E+02  0.24604225391E+02  0.00000000000E+00 0.  1.
         12    1    6    6    0    0 -0.19851081939E+02 -0.47194574424E+02 -0.53644411894E+02  0.74156026301E+02  0.00000000000E+00 0. -1.
         -5    1    3    3    0  503  0.21094844732E+02  0.25823236814E+02  0.53760012497E+02  0.63435486736E+02  0.47000000000E+01 0.  1.
         11    1    4    4    0    0  0.40397896948E+02  0.38048942813E+02 -0.27649630837E+02  0.62001727496E+02  0.00000000000E+00 0. -1.
        -12    1    4    4    0    0 -0.37300685132E+02  0.33880605189E+02 -0.55903507509E+02  0.75262465221E+02  0.00000000000E+00 0.  1.
</event>
<event>
12    1  0.9873238E-001  0.2706469E+03  0.7818608E-02  0.1101172E+00
         21   -1    0    0  501  502  0.00000000000E+00  0.00000000000E+00  0.23038681442E+03  0.23038681442E+03  0.00000000000E+00 0. -1.
         21   -1    0    0  502  503 -0.00000000000E+00 -0.00000000000E+00 -0.76723647133E+03  0.76723647133E+03  0.00000000000E+00 0. -1.
         -6    2    1    2    0  503  0.19450964065E+03 -0.71055568331E+02  0.11382289286E+03  0.29360752709E+03  0.17426082441E+03 0.  0.
        -24    2    3    3    0    0  0.37371960232E+02 -0.61821300187E+02  0.82976591725E+02  0.13313601370E+03  0.74976975135E+02 0.  0.
          6    2    1    2  501    0 -0.19450964065E+03  0.71055568331E+02 -0.65067254977E+03  0.70401575867E+03  0.17140748913E+03 0.  0.
         24    2    5    5    0    0 -0.62627315612E+02 -0.80120770992E+01 -0.20342173133E+03  0.23104638882E+03  0.89530212623E+02 0.  0.
          5    1    5    5  501    0 -0.13188232504E+03  0.79067645430E+02 -0.44725081845E+03  0.47296936985E+03  0.47000000000E+01 0. -1.
        -13    1    6    6    0    0 -0.19610923629E+02  0.13748108527E+02 -0.17164627055E+03  0.17330909095E+03  0.00000000000E+00 0.  1.
         14    1    6    6    0    0 -0.43016391983E+02 -0.21760185626E+02 -0.31775460777E+02  0.57737297870E+02  0.00000000000E+00 0. -1.
         -5    1    3    3    0  503  0.15713768042E+03 -0.92342681439E+01  0.30846301139E+02  0.16047151339E+03  0.47000000000E+01 0.  1.
         13    1    4    4    0    0  0.48647985552E+02 -0.31448011480E+02  0.82409790912E+02  0.10073220718E+03  0.00000000000E+00 0. -1.
        -14    1    4    4    0    0 -0.11276025320E+02 -0.30373288707E+02  0.56680081282E+00  0.32403806521E+02  0.00000000000E+00 0.  1.
</event>
<event>
12    1  0.9873238E-001  0.2636426E+03  0.7818608E-02  0.1105060E+00
         21   -1    0    0  501  502  0.00000000000E+00  0.00000000000E+00  0.88581751902E+03  0.88581751902E+03  0.00000000000E+00 0.  1.
         21   -1    0    0  502  503 -0.00000000000E+00 -0.00000000000E+00 -0.98191331395E+02  0.98191331395E+02  0.00000000000E+00 0.  1.
         -6    2    1    2    0  503 -0.14983420880E+03 -0.13113887050E+03  0.17198465969E+03  0.31429104943E+03  0.17190825198E+03 0.  0.
        -24    2    3    3    0    0 -0.35483198897E+02 -0.11983250261E+03  0.10308977681E+03  0.18022918942E+03  0.78969440625E+02 0.  0.
          6    2    1    2  501    0  0.14983420880E+03  0.13113887050E+03  0.61564152793E+03  0.66971780098E+03  0.17279973542E+03 0.  0.
         24    2    5    5    0    0  0.29042852335E+02  0.22176118979E+02  0.12542891793E+03  0.15319681785E+03  0.80009899523E+02 0.  0.
          5    1    5    5  501    0  0.12079135646E+03  0.10896275152E+03  0.49021261000E+03  0.51652098313E+03  0.47000000000E+01 0. -1.
        -11    1    6    6    0    0 -0.28015911722E+02  0.78262949991E+01  0.43556086370E+02  0.52376281491E+02  0.00000000000E+00 0.  1.
         12    1    6    6    0    0  0.57058764057E+02  0.14349823980E+02  0.81872831559E+02  0.10082053636E+03  0.00000000000E+00 0. -1.
         -5    1    3    3    0  503 -0.11435100990E+03 -0.11306367897E+02  0.68894882880E+02  0.13406186000E+03  0.47000000000E+01 0.  1.
         13    1    4    4    0    0 -0.51699069716E+02 -0.68720047468E+02  0.91108889209E+02  0.12528395119E+03  0.00000000000E+00 0. -1.
        -14    1    4    4    0    0  0.16215870819E+02 -0.51112455139E+02  0.11980887604E+02  0.54945238233E+02  0.00000000000E+00 0.  1.
</event>
<event>
12    1  0.9873238E-001  0.5484152E+03  0.7818608E-02  0.1001890E+00
         21   -1    0    0  503  502  0.00000000000E+00  0.00000000000E+00  0.92235785243E+03  0.92235785243E+03  0.00000000000E+00 0.  1.
         21   -1    0    0  501  503 -0.00000000000E+00 -0.00000000000E+00 -0.34356023788E+03  0.34356023788E+03  0.00000000000E+00 0. -1.
          6    2    1    2  501    0 -0.31915902822E+03 -0.41138472452E+03  0.14553580971E+03  0.56739746721E+03  0.17221886373E+03 0.  0.
         24    2    3    3    0    0 -0.21621396802E+03 -0.23887661905E+03  0.15559912922E+03  0.36620081646E+03  0.77983523056E+02 0.  0.
         -6    2    1    2    0  502  0.31915902822E+03  0.41138472452E+03  0.43326180484E+03  0.69852062311E+03  0.17063233138E+03 0.  0.
        -24    2    5    5    0    0  0.24484936300E+03  0.35982801080E+03  0.28875894043E+03  0.52798268335E+03  0.77178885209E+02 0.  0.
          5    1    3    3  501    0 -0.10294506019E+03 -0.17250810547E+03 -0.10063319505E+02  0.20119665075E+03  0.47000000000E+01 0. -1.
        -11    1    4    4    0    0 -0.48861800820E+02 -0.10906277164E+03  0.62161547564E+02  0.13470791266E+03  0.00000000000E+00 0.  1.
         12    1    4    4    0    0 -0.16735216720E+03 -0.12981384741E+03  0.93437581653E+02  0.23149290381E+03  0.00000000000E+00 0. -1.
         -5    1    5    5    0  502  0.74309665220E+02  0.51556713723E+02  0.14450286441E+03  0.17053793976E+03  0.47000000000E+01 0.  1.
         11    1    6    6    0    0  0.18482326053E+03  0.22027566644E+03  0.21545261774E+03  0.35930604969E+03  0.00000000000E+00 0. -1.
        -12    1    6    6    0    0  0.60026102467E+02  0.13955234436E+03  0.73306322697E+02  0.16867663366E+03  0.00000000000E+00 0.  1.
</event>
<event>
12    1  0.9873238E-001  0.2352511E+03  0.7818608E-02  0.1123000E+00
         21   -1    0    0  501  502  0.00000000000E+00  0.00000000000E+00  0.47042068911E+03  0.47042068911E+03  0.00000000000E+00 0.  1.
         21   -1    0    0  502  503 -0.00000000000E+00 -0.00000000000E+00 -0.16683771503E+03  0.16683771503E+03  0.00000000000E+00 0. -1.
         -6    2    1    2    0  503 -0.26817020507E+02 -0.15714049383E+03 -0.21234647842E+02  0.23620747759E+03  0.17300512943E+03 0.  0.
        -24    2    3    3    0    0  0.48494525950E+02 -0.83459692431E+02 -0.42364424485E+02  0.12864704348E+03  0.73743325303E+02 0.  0.
          6    2    1    2  501    0  0.26817020507E+02  0.15714049383E+03  0.32481762192E+03  0.40105092655E+03  0.17298286268E+03 0.  0.
         24    2    5    5    0    0  0.56509380141E+02  0.35966627109E+02  0.19386539085E+03  0.22012188239E+03  0.79893335309E+02 0.  0.
          5    1    5    5  501    0 -0.29692359634E+02  0.12117386672E+03  0.13095223107E+03  0.18092904416E+03  0.47000000000E+01 0. -1.
        -13    1    6    6    0    0 -0.15017389962E+02  0.27965092374E+02  0.49370241846E+02  0.58694030128E+02  0.00000000000E+00 0.  1.
         14    1    6    6    0    0  0.71526770103E+02  0.80015347352E+01  0.14449514900E+03  0.16142785226E+03  0.00000000000E+00 0. -1.
         -5    1    3    3    0  503 -0.75311546457E+02 -0.73680801402E+02  0.21129776643E+02  0.10756043411E+03  0.47000000000E+01 0.  1.
         13    1    4    4    0    0  0.51187112177E+02 -0.76377539477E+02 -0.67009282451E+01  0.92187588259E+02  0.00000000000E+00 0. -1.
        -14    1    4    4    0    0 -0.26925862275E+01 -0.70821529536E+01 -0.35663496240E+02  0.36459455222E+02  0.00000000000E+00 0.  1.
</event>
<event>
12    1  0.9873238E-001  0.2296826E+03  0.7818608E-02  0.1128696E+00
         21   -1    0    0  503  502  0.00000000000E+00  0.00000000000E+00  0.80819355418E+02  0.80819355418E+02  0.00000000000E+00 0.  1.
         21   -1    0    0  501  503 -0.00000000000E+00 -0.00000000000E+00 -0.65019346453E+03  0.65019346453E+03  0.00000000000E+00 0.  1.
          6    2    1    2  501    0  0.14616094572E+03  0.41319538819E+02 -0.20547273713E+03  0.30068931474E+03  0.15850770314E+03 0.  0.
         24    2    3    3    0    0  0.16443195583E+03  0.15422336406E+02 -0.15269839910E+03  0.23895022131E+03  0.80651662209E+02 0.  0.
         -6    2    1    2    0  502 -0.14616094572E+03 -0.41319538819E+02 -0.36390137199E+03  0.43032350521E+03  0.17228982634E+03 0.  0.
        -24    2    5    5    0    0 -0.43523016729E+02 -0.73642308817E+02 -0.14616820990E+03  0.18740556475E+03  0.80238752972E+02 0.  0.
          5    1    3    3  501    0 -0.18271010110E+02  0.25897202413E+02 -0.52774338032E+02  0.61739093434E+02  0.47000000000E+01 0. -1.
        -11    1    4    4    0    0 -0.48406436280E+00 -0.14445327585E+02 -0.42608894428E+01  0.15068410207E+02  0.00000000000E+00 0.  1.
         12    1    4    4    0    0  0.16491602019E+03  0.29867663990E+02 -0.14843750965E+03  0.22388181110E+03  0.00000000000E+00 0. -1.
         -5    1    5    5    0  502 -0.10263792899E+03  0.32322769998E+02 -0.21773316208E+03  0.24291794046E+03  0.47000000000E+01 0.  1.
         13    1    6    6    0    0 -0.18942927660E+02 -0.77239185033E+02 -0.14122324599E+03  0.16207631357E+03  0.00000000000E+00 0. -1.
        -14    1    6    6    0    0 -0.24580089069E+02  0.35968762162E+01 -0.49449639183E+01  0.25329251179E+02  0.00000000000E+00 0.  1.
</event>
<event>
12    1  0.9873238E-001  0.1900365E+03  0.7818608E-02  0.1158906E+00
         21   -1    0    0  501  502  0.00000000000E+00  0.00000000000E+00  0.65164826687E+03  0.65164826687E+03  0.00000000000E+00 0.  1.
         21   -1    0    0  502  503 -0.00000000000E+00 -0.00000000000E+00 -0.62020015132E+02  0.62020015132E+02  0.00000000000E+00 0.  1.
         -6    2    1    2    0  503  0.78546141104E+02  0.16294608569E+02  0.41505155248E+03  0.45561613513E+03  0.16995075999E+03 0.  0.
        -24    2    3    3    0    0  0.44520692094E+02 -0.27994197131E+02  0.11195384818E+03  0.14737996294E+03  0.80133777257E+02 0.  0.
          6    2    1    2  501    0 -0.78546141104E+02 -0.16294608569E+02  0.17457669925E+03  0.25805214687E+03  0.17227558164E+03 0.  0.
         24    2    5    5    0    0 -0.12081344967E+03 -0.88105328418E+01  0.14495592446E+03  0.20568787410E+03  0.81374236752E+02 0.  0.
          5    1    5    5  501    0  0.42267308566E+02 -0.74840757273E+01  0.29620774790E+02  0.52364272763E+02  0.47000000000E+01 0. -1.
        -13    1    6    6    0    0 -0.29990101254E+02 -0.23231649751E+02  0.92128567323E+02  0.99633270750E+02  0.00000000000E+00 0.  1.
         14    1    6    6    0    0 -0.90823348415E+02  0.14421116910E+02  0.52827357139E+02  0.10605460335E+03  0.00000000000E+00 0. -1.
         -5    1    3    3    0  503  0.34025449009E+02  0.44288805700E+02  0.30309770430E+03  0.30823617219E+03  0.47000000000E+01 0.  1.
         13    1    4    4    0    0  0.47665708796E+02  0.13794739669E+02  0.82084281352E+02  0.95917380504E+02  0.00000000000E+00 0. -1.
        -14    1    4    4    0    0 -0.31450167016E+01 -0.41788936800E+02  0.29869566829E+02  0.51462582441E+02  0.00000000000E+00 0.  1.
</event>
<event>
12    1  0.9873238E-001  0.1845322E+03  0.7818608E-02  0.1163839E+00
         21   -1    0    0  501  502  0.00000000000E+00  0.00000000000E+00  0.89646055137E+02  0.89646055137E+02  0.00000000000E+00 0.  1.
         21   -1    0    0  502  503 -0.00000000000E+00 -0.00000000000E+00 -0.42443250777E+03  0.42443250777E+03  0.00000000000E+00 0.  1.
         -6    2    1    2    0  503  0.14512877047E+02 -0.64035169049E+02 -0.80659669371E+02  0.20002038381E+03  0.17085387090E+03 0.  0.
        -24    2    3    3    0    0 -0.20410216592E+02 -0.89099579323E+02 -0.15702183266E+02  0.12198569836E+03  0.79237870165E+02 0.  0.
          6    2    1    2  501    0 -0.14512877047E+02  0.64035169049E+02 -0.25412678327E+03  0.31405817910E+03  0.17245576654E+03 0.  0.
         24    2    5    5    0    0 -0.61112189720E+02  0.77565747176E+02 -0.22093992035E+03  0.25508335095E+03  0.80634500426E+02 0.  0.
          5    1    5    5  501    0  0.46599312673E+02 -0.13530578127E+02 -0.33186862917E+02  0.58974828159E+02  0.47000000000E+01 0. -1.
        -11    1    6    6    0    0  0.85442765400E+01  0.64727344395E+01 -0.89867064078E+02  0.90504089182E+02  0.00000000000E+00 0.  1.
         12    1    6    6    0    0 -0.69656466260E+02  0.71093012736E+02 -0.13107285627E+03  0.16457926176E+03  0.00000000000E+00 0. -1.
         -5    1    3    3    0  503  0.34923093640E+02  0.25064410274E+02 -0.64957486105E+02  0.78034685447E+02  0.47000000000E+01 0.  1.
         13    1    4    4    0    0  0.29623293979E+02 -0.45704788623E+02 -0.29967352489E+01  0.54547664216E+02  0.00000000000E+00 0. -1.
        -14    1    4    4    0    0 -0.50033510571E+02 -0.43394790700E+02 -0.12705448017E+02  0.67438034145E+02  0.00000000000E+00 0.  1.
</event>
<event>
12    1  0.9873238E-001  0.1904949E+03  0.7818608E-02  0.1158223E+00
         21   -1    0    0  503  502  0.00000000000E+00  0.00000000000E+00  0.71654909710E+03  0.71654909710E+03  0.00000000000E+00 0.  1.
         21   -1    0    0  501  503 -0.00000000000E+00 -0.00000000000E+00 -0.56192458452E+02  0.56192458452E+02  0.00000000000E+00 0.  1.
          6    2    1    2  501    0  0.79000654344E+02  0.24342715472E+02  0.45495722552E+03  0.49322853362E+03  0.17162353610E+03 0.  0.
         24    2    3    3    0    0  0.96992483928E+02 -0.33042817404E+02  0.32574338559E+03  0.35062730031E+03  0.79569973870E+02 0.  0.
         -6    2    1    2    0  502 -0.79000654344E+02 -0.24342715472E+02  0.20539941313E+03  0.27951302193E+03  0.17060169791E+03 0.  0.
        -24    2    5    5    0    0 -0.87127340465E+02 -0.33359763887E+02  0.22484659169E+03  0.25611146337E+03  0.79580428304E+02 0.  0.
          5    1    3    3  501    0 -0.17991829584E+02  0.57385532876E+02  0.12921383993E+03  0.14260123332E+03  0.47000000000E+01 0. -1.
        -13    1    4    4    0    0  0.86837572146E+02 -0.55320997361E+01  0.15832836862E+03  0.18066333434E+03  0.00000000000E+00 0.  1.
         14    1    4    4    0    0  0.10154911782E+02 -0.27510717668E+02  0.16741501697E+03  0.16996396597E+03  0.00000000000E+00 0. -1.
         -5    1    5    5    0  502  0.81266861207E+01  0.90170484146E+01 -0.19447178559E+02  0.23401558566E+02  0.47000000000E+01 0.  1.
         13    1    6    6    0    0 -0.18564334957E+02 -0.35639174693E+02  0.14680256554E+03  0.15220308326E+03  0.00000000000E+00 0. -1.
        -14    1    6    6    0    0 -0.68563005508E+02  0.22794108061E+01  0.78044026148E+02  0.10390838010E+03  0.00000000000E+00 0.  1.
</event>
<event>
12    1  0.9873238E-001  0.2129150E+03  0.7818608E-02  0.1139612E+00
         21   -1    0    0  501  502  0.00000000000E+00  0.00000000000E+00  0.17511119954E+03  0.17511119954E+03  0.00000000000E+00 0. -1.
         21   -1    0    0  502  503 -0.00000000000E+00 -0.00000000000E+00 -0.32289457967E+03  0.32289457967E+03  0.00000000000E+00 0. -1.
         -6    2    1    2    0  503  0.30243590063E+02 -0.11906225950E+03  0.38522284990E+02  0.21637183284E+03  0.17390315474E+03 0.  0.
        -24    2    3    3    0    0 -0.37901622406E+02 -0.21091147879E+02  0.28742069680E+02  0.96539235830E+02  0.81316345130E+02 0.  0.
          6    2    1    2  501    0 -0.30243590063E+02  0.11906225950E+03 -0.18630566513E+03  0.28163394637E+03  0.17180623538E+03 0.  0.
         24    2    5    5    0    0  0.50299713733E+02  0.73719826216E+02 -0.10298824862E+03  0.15710667251E+03  0.78174504890E+02 0.  0.
          5    1    5    5  501    0 -0.80543303796E+02  0.45342433281E+02 -0.83317416503E+02  0.12452727386E+03  0.47000000000E+01 0. -1.
        -11    1    6    6    0    0  0.12618552338E+00  0.55748878617E+02 -0.21527791152E+02  0.59761184574E+02  0.00000000000E+00 0.  1.
         12    1    6    6    0    0  0.50173528210E+02  0.17970947599E+02 -0.81460457473E+02  0.97345487940E+02  0.00000000000E+00 0. -1.
         -5    1    3    3    0  503  0.68145212470E+02 -0.97971111618E+02  0.97802153096E+01  0.11983259701E+03  0.47000000000E+01 0.  1.
         13    1    4    4    0    0  0.12286095705E+02  0.29146554587E+01 -0.19279596829E+02  0.23046609686E+02  0.00000000000E+00 0. -1.
        -14    1    4    4    0    0 -0.50187718112E+02 -0.24005803338E+02  0.48021666510E+02  0.73492626144E+02  0.00000000000E+00 0.  1.
</event>
<event>
12    1  0.9873238E-001  0.2544786E+03  0.7818608E-02  0.1110590E+00
         21   -1    0    0  503  502  0.00000000000E+00  0.00000000000E+00  0.14253524477E+04  0.14253524477E+04  0.00000000000E+00 0.  1.
         21   -1    0    0  501  503 -0.00000000000E+00 -0.00000000000E+00 -0.95418072178E+02  0.95418072178E+02  0.00000000000E+00 0.  1.
          6    2    1    2  501    0 -0.16172539969E+03 -0.93868096047E+02  0.12161742240E+04  0.12425132167E+04  0.17260656418E+03 0.  0.
         24    2    3    3    0    0 -0.16673878976E+03 -0.12133712219E+03  0.11407940785E+04  0.11619903142E+04  0.79283286712E+02 0.  0.
         -6    2    1    2    0  502  0.16172539969E+03  0.93868096047E+02  0.11376015154E+03  0.27825730327E+03  0.17181219510E+03 0.  0.
        -24    2    5    5    0    0  0.13123370773E+03 -0.12180613250E+01  0.51768212179E+02  0.16062987812E+03  0.76800001528E+02 0.  0.
          5    1    3    3  501    0  0.50133900659E+01  0.27469026141E+02  0.75380145518E+02  0.80522902428E+02  0.47000000000E+01 0. -1.
        -13    1    4    4    0    0 -0.28868633483E+02 -0.50211590316E+02  0.19028776568E+03  0.19890710287E+03  0.00000000000E+00 0.  1.
         14    1    4    4    0    0 -0.13787015628E+03 -0.71125531872E+02  0.95050631283E+03  0.96308321136E+03  0.00000000000E+00 0. -1.
         -5    1    5    5    0  502  0.30491691966E+02  0.95086157372E+02  0.61991939360E+02  0.11762742515E+03  0.47000000000E+01 0.  1.
         13    1    6    6    0    0  0.50958362995E+02  0.35009844237E+02  0.81878200267E+01  0.62365730569E+02  0.00000000000E+00 0. -1.
        -14    1    6    6    0    0  0.80275344733E+02 -0.36227905562E+02  0.43580392152E+02  0.98264147549E+02  0.00000000000E+00 0.  1.
</event>
<event>
12    1  0.9873238E-001  0.2312821E+03  0.7818608E-02  0.1125894E+00
         21   -1    0    0  503  502  0.00000000000E+00  0.00000000000E+00  0.58730563677E+03  0.58730563677E+03  0.00000000000E+00 0. -1.
         21   -1    0    0  501  503 -0.00000000000E+00 -0.00000000000E+00 -0.24061946127E+03  0.24061946127E+03  0.00000000000E+00 0. -1.
          6    2    1    2  501    0  0.71322849309E+02  0.13701484808E+03 -0.15325191727E+03  0.27744830564E+03  0.17213772024E+03 0.  0.
         24    2    3    3    0    0  0.24130762176E+02  0.55792493032E+02 -0.30615912124E+01  0.10023829439E+03  0.79644499864E+02 0.  0.
         -6    2    1    2    0  502 -0.71322849309E+02 -0.13701484808E+03  0.49993809277E+03  0.55047679239E+03  0.17095784548E+03 0.  0.
        -24    2    5    5    0    0 -0.38629525902E+02 -0.19032952749E+02  0.30612061851E+03  0.32118247421E+03  0.87142728332E+02 0.  0.
          5    1    3    3  501    0  0.47192087133E+02  0.81222355046E+02 -0.15019032606E+03  0.17721001126E+03  0.47000000000E+01 0. -1.
        -11    1    4    4    0    0 -0.14408447526E+01  0.29253585019E+02 -0.38992485707E+02  0.48767429824E+02  0.00000000000E+00 0.  1.
         12    1    4    4    0    0  0.25571606929E+02  0.26538908013E+02  0.35930894495E+02  0.51470864561E+02  0.00000000000E+00 0. -1.
         -5    1    5    5    0  502 -0.32693323407E+02 -0.11798189533E+03  0.19381747426E+03  0.22929431818E+03  0.47000000000E+01 0.  1.
         11    1    6    6    0    0 -0.37349991683E+02 -0.52000133695E+02  0.21126357143E+03  0.22075174381E+03  0.00000000000E+00 0. -1.
        -12    1    6    6    0    0 -0.12795342183E+01  0.32967180947E+02  0.94857047085E+02  0.10043073040E+03  0.00000000000E+00 0.  1.
</event>
<event>
12    1  0.9873238E-001  0.1841369E+03  0.7818608E-02  0.1163971E+00
         21   -1    0    0  501  502  0.00000000000E+00  0.00000000000E+00  0.16253692014E+04  0.16253692014E+04  0.00000000000E+00 0.  1.
         21   -1    0    0  502  503 -0.00000000000E+00 -0.00000000000E+00 -0.21121113745E+02  0.21121113745E+02  0.00000000000E+00 0.  1.
         -6    2    1    2    0  503 -0.40793713610E+02 -0.55429757579E+02  0.90153600626E+03  0.92005334694E+03  0.17027743696E+03 0.  0.
        -24    2    3    3    0    0 -0.64583732539E+02  0.11976448440E+02  0.38909999907E+03  0.40263445177E+03  0.80007491233E+02 0.  0.
          6    2    1    2  501    0  0.40793713610E+02  0.55429757579E+02  0.70271208142E+03  0.72643696823E+03  0.17079172797E+03 0.  0.
         24    2    5    5    0    0  0.70714388146E+02  0.15324159878E+02  0.62365839770E+03  0.63276050031E+03  0.78744518334E+02 0.  0.
          5    1    5    5  501    0 -0.29920674536E+02  0.40105597701E+02  0.79053683719E+02  0.93676467916E+02  0.47000000000E+01 0. -1.
        -11    1    6    6    0    0 -0.13915369508E+02 -0.81440360730E+01  0.53463716847E+02  0.55842025852E+02  0.00000000000E+00 0.  1.
         12    1    6    6    0    0  0.84629757654E+02  0.23468195951E+02  0.57019468085E+03  0.57691847446E+03  0.00000000000E+00 0. -1.
         -5    1    3    3    0  503  0.23790018928E+02 -0.67406206018E+02  0.51243600719E+03  0.51741889517E+03  0.47000000000E+01 0.  1.
         11    1    4    4    0    0 -0.60932125081E+02  0.40803953520E+02  0.30362331649E+03  0.31235365343E+03  0.00000000000E+00 0. -1.
        -12    1    4    4    0    0 -0.36516074577E+01 -0.28827505080E+02  0.85476682571E+02  0.90280798344E+02  0.00000000000E+00 0.  1.
</event>
<event>
12    1  0.9873238E-001  0.3668509E+03  0.7818608E-02  0.1055918E+00
         21   -1    0    0  503  502  0.00000000000E+00  0.00000000000E+00  0.56700784542E+03  0.56700784542E+03  0.00000000000E+00 0. -1.
         21   -1    0    0  501  503 -0.00000000000E+00 -0.00000000000E+00 -0.25006893111E+03  0.25006893111E+03  0.00000000000E+00 0. -1.
          6    2    1    2  501    0  0.52886977841E+02  0.31901915058E+03  0.66020355180E+02  0.37274420042E+03  0.17323192773E+03 0.  0.
         24    2    3    3    0    0  0.20432635362E+00  0.17495204364E+03  0.80761226383E+02  0.21856840351E+03  0.10315770452E+03 0.  0.
         -6    2    1    2    0  502 -0.52886977841E+02 -0.31901915058E+03  0.25091855912E+03  0.44433257611E+03  0.17291924133E+03 0.  0.
        -24    2    5    5    0    0 -0.38364319317E+02 -0.62178747993E+02  0.10621034495E+03  0.14913695071E+03  0.74987832298E+02 0.  0.
          5    1    3    3  501    0  0.52682651487E+02  0.14406710694E+03 -0.14740871203E+02  0.15417579691E+03  0.47000000000E+01 0. -1.
        -11    1    4    4    0    0  0.23571093012E+02  0.15633915943E+03  0.31890528849E+02  0.16129021988E+03  0.00000000000E+00 0.  1.
         12    1    4    4    0    0 -0.23366766658E+02  0.18612884210E+02  0.48870697533E+02  0.57278183631E+02  0.00000000000E+00 0. -1.
         -5    1    5    5    0  502 -0.14522658523E+02 -0.25684040258E+03  0.14470821417E+03  0.29519562541E+03  0.47000000000E+01 0.  1.
         13    1    6    6    0    0  0.36383582847E+00 -0.39390685954E+02  0.94972394592E+02  0.10281786932E+03  0.00000000000E+00 0. -1.
        -14    1    6    6    0    0 -0.38728155146E+02 -0.22788062038E+02  0.11237950359E+02  0.46319081389E+02  0.00000000000E+00 0.  1.
</event>
<event>
12    1  0.9873238E-001  0.2221827E+03  0.7818608E-02  0.1132277E+00
         21   -1    0    0  503  502  0.00000000000E+00  0.00000000000E+00  0.13097300545E+03  0.13097300545E+03  0.00000000000E+00 0. -1.
         21   -1    0    0  501  503 -0.00000000000E+00 -0.00000000000E+00 -0.68686943898E+03  0.68686943898E+03  0.00000000000E+00 0. -1.
          6    2    1    2  501    0  0.13662084963E+03  0.32374850613E+02 -0.32272062220E+01  0.22220615203E+03  0.17219689787E+03 0.  0.
         24    2    3    3    0    0  0.10793332344E+03  0.85313222299E+02  0.14994343764E+02  0.15912239629E+03  0.78531257766E+02 0.  0.
         -6    2    1    2    0  502 -0.13662084963E+03 -0.32374850613E+02 -0.55266922731E+03  0.59563629239E+03  0.17212184781E+03 0.  0.
        -24    2    5    5    0    0 -0.44107246593E+02  0.23958272249E+02 -0.38645692877E+03  0.39719031570E+03  0.76757677677E+02 0.  0.
          5    1    3    3  501    0  0.28687526184E+02 -0.52938371685E+02 -0.18221549986E+02  0.63083755747E+02  0.47000000000E+01 0. -1.
        -13    1    4    4    0    0  0.83755058128E+02  0.39270911458E+02  0.40758035101E+02  0.10108576395E+03  0.00000000000E+00 0.  1.
         14    1    4    4    0    0  0.24178265315E+02  0.46042310841E+02 -0.25763691337E+02  0.58036632332E+02  0.00000000000E+00 0. -1.
         -5    1    5    5    0  502 -0.92513603034E+02 -0.56333122862E+02 -0.16621229854E+03  0.19844597669E+03  0.47000000000E+01 0.  1.
         13    1    6    6    0    0 -0.22846836955E+02  0.50395058577E+02 -0.19273800103E+03  0.20052325783E+03  0.00000000000E+00 0. -1.
        -14    1    6    6    0    0 -0.21260409638E+02 -0.26436786328E+02 -0.19371892774E+03  0.19666705788E+03  0.00000000000E+00 0.  1.
</event>
<event>
12    1  0.9873238E-001  0.2830346E+03  0.7818608E-02  0.1094321E+00
         21   -1    0    0  503  502  0.00000000000E+00  0.00000000000E+00  0.25498758046E+03  0.25498758046E+03  0.00000000000E+00 0. -1.
         21   -1    0    0  501  503 -0.00000000000E+00 -0.00000000000E+00 -0.41444120780E+03  0.41444120780E+03  0.00000000000E+00 0. -1.
          6    2    1    2  501    0  0.32349374797E+02  0.22237701108E+03 -0.24644549226E+03  0.37529182669E+03  0.17207718449E+03 0.  0.
         24    2    3    3    0    0  0.24551032508E+02  0.13789428288E+03 -0.58139139901E+02  0.16870160949E+03  0.73908639603E+02 0.  0.
         -6    2    1    2    0  502 -0.32349374797E+02 -0.22237701108E+03  0.86991864918E+02  0.29413696156E+03  0.16867409549E+03 0.  0.
        -24    2    5    5    0    0  0.30462164066E+01 -0.11427281023E+03 -0.14791104065E+02  0.14142406462E+03  0.81941654257E+02 0.  0.
          5    1    3    3  501    0  0.77983422884E+01  0.84482728201E+02 -0.18830635236E+03  0.20659021721E+03  0.47000000000E+01 0. -1.
        -13    1    4    4    0    0  0.46849628587E+02  0.10278099489E+03 -0.25420249738E+02  0.11578000564E+03  0.00000000000E+00 0.  1.
         14    1    4    4    0    0 -0.22298596079E+02  0.35113287990E+02 -0.32718890163E+02  0.52921603850E+02  0.00000000000E+00 0. -1.
         -5    1    5    5    0  502 -0.35395591203E+02 -0.10810420085E+03  0.10178296898E+03  0.15271289695E+03  0.47000000000E+01 0.  1.
         13    1    6    6    0    0 -0.28907217512E+02 -0.96925325235E+02  0.24737693611E+01  0.10117443072E+03  0.00000000000E+00 0. -1.
        -14    1    6    6    0    0  0.31953433919E+02 -0.17347484991E+02 -0.17264873426E+02  0.40249633901E+02  0.00000000000E+00 0.  1.
</event>
<event>
12    1  0.9873238E-001  0.2136279E+03  0.7818608E-02  0.1139130E+00
         21   -1    0    0  501  502  0.00000000000E+00  0.00000000000E+00  0.10004636559E+03  0.10004636559E+03  0.00000000000E+00 0.  1.
         21   -1    0    0  502  503 -0.00000000000E+00 -0.00000000000E+00 -0.61299450381E+03  0.61299450381E+03  0.00000000000E+00 0.  1.
         -6    2    1    2    0  503 -0.12445746824E+03 -0.37536321721E+01 -0.72680069471E+02  0.22368123504E+03  0.17101798518E+03 0.  0.
        -24    2    3    3    0    0 -0.14315350436E+03 -0.23126091815E+02 -0.23534979716E+02  0.16744811485E+03  0.80356916093E+02 0.  0.
          6    2    1    2  501    0  0.12445746824E+03  0.37536321721E+01 -0.44026806876E+03  0.48935963436E+03  0.17358896343E+03 0.  0.
         24    2    5    5    0    0  0.14733577755E+03 -0.24616748794E+02 -0.40114934795E+03  0.43568785528E+03  0.81174455405E+02 0.  0.
          5    1    5    5  501    0 -0.22878309305E+02  0.28370380966E+02 -0.39118720809E+02  0.53671779088E+02  0.47000000000E+01 0. -1.
        -13    1    6    6    0    0  0.46984261927E+02 -0.40278341529E+02 -0.21382742952E+03  0.22260286449E+03  0.00000000000E+00 0.  1.
         14    1    6    6    0    0  0.10035151562E+03  0.15661592735E+02 -0.18732191843E+03  0.21308499079E+03  0.00000000000E+00 0. -1.
         -5    1    3    3    0  503  0.18696036115E+02  0.19372459643E+02 -0.49145089755E+02  0.56233120187E+02  0.47000000000E+01 0.  1.
         13    1    4    4    0    0 -0.54393698964E+02 -0.11385272949E+02  0.29977347924E+02  0.63142222924E+02  0.00000000000E+00 0. -1.
        -14    1    4    4    0    0 -0.88759805391E+02 -0.11740818866E+02 -0.53512327640E+02  0.10430589192E+03  0.00000000000E+00 0.  1.
</event>
<event>
12    1  0.9873238E-001  0.2652516E+03  0.7818608E-02  0.1104094E+00
         21   -1    0    0  503  502  0.00000000000E+00  0.00000000000E+00  0.10405918320E+04  0.10405918320E+04  0.00000000000E+00 0.  1.
         21   -1    0    0  501  503 -0.00000000000E+00 -0.00000000000E+00 -0.93252256701E+02  0.93252256701E+02  0.00000000000E+00 0. -1.
          6    2    1    2  501    0  0.12362147309E+03  0.15874213902E+03  0.17545629396E+03  0.31765649362E+03  0.17216097566E+03 0.  0.
         24    2    3    3    0    0  0.14887307076E+03  0.11267492609E+03  0.10253486548E+03  0.22765951576E+03  0.80353135031E+02 0.  0.
         -6    2    1    2    0  502 -0.12362147309E+03 -0.15874213902E+03  0.77188328131E+03  0.81618759505E+03  0.17284980485E+03 0.  0.
        -24    2    5    5    0    0 -0.14311346037E+02 -0.12758681931E+03  0.47190061229E+03  0.49535890317E+03  0.78784795358E+02 0.  0.
          5    1    3    3  501    0 -0.25251597679E+02  0.46067212936E+02  0.72921428480E+02  0.89996977864E+02  0.47000000000E+01 0. -1.
        -11    1    4    4    0    0  0.16941454739E+02  0.57947951079E+02  0.28025748498E+02  0.66561403995E+02  0.00000000000E+00 0.  1.
         12    1    4    4    0    0  0.13193161603E+03  0.54726975007E+02  0.74509116979E+02  0.16109811176E+03  0.00000000000E+00 0. -1.
         -5    1    5    5    0  502 -0.10931012705E+03 -0.31155319708E+02  0.29998266902E+03  0.32082869188E+03  0.47000000000E+01 0.  1.
         13    1    6    6    0    0 -0.37294859060E+02 -0.89003608801E+02  0.23164870665E+03  0.25094555622E+03  0.00000000000E+00 0. -1.
        -14    1    6    6    0    0  0.22983513023E+02 -0.38583210512E+02  0.24025190564E+03  0.24441334695E+03  0.00000000000E+00 0.  1.
</event>
<event>
12    1  0.9873238E-001  0.2250342E+03  0.7818608E-02  0.1130312E+00
         21   -1    0    0  501  502  0.00000000000E+00  0.00000000000E+00  0.96697290268E+02  0.96697290268E+02  0.00000000000E+00 0.  1.
         21   -1    0    0  502  503 -0.00000000000E+00 -0.00000000000E+00 -0.55978222316E+03  0.55978222316E+03  0.00000000000E+00 0.  1.
         -6    2    1    2    0  503 -0.13840534966E+03  0.36636710152E+02 -0.14667573231E+03  0.26861529711E+03  0.17361485549E+03 0.  0.
        -24    2    3    3    0    0 -0.16090330675E+03  0.10457759845E+02 -0.14844873465E+03  0.23373365366E+03  0.81210560710E+02 0.  0.
          6    2    1    2  501    0  0.13840534966E+03 -0.36636710152E+02 -0.31640920059E+03  0.38786421633E+03  0.17270083597E+03 0.  0.
         24    2    5    5    0    0  0.71962265489E+01  0.85835334968E+01 -0.15327763249E+03  0.17363372612E+03  0.80803313678E+02 0.  0.
          5    1    5    5  501    0  0.13120912311E+03 -0.45220243648E+02 -0.16313156810E+03  0.21423049021E+03  0.47000000000E+01 0. -1.
        -13    1    6    6    0    0 -0.12547987027E+02  0.61900344058E+01  0.44305037957E+01  0.14676439223E+02  0.00000000000E+00 0.  1.
         14    1    6    6    0    0  0.19744213576E+02  0.23934990910E+01 -0.15770813628E+03  0.15895728690E+03  0.00000000000E+00 0. -1.
         -5    1    3    3    0  503  0.22497957087E+02  0.26178950306E+02  0.17730023416E+01  0.34881643446E+02  0.47000000000E+01 0.  1.
         13    1    4    4    0    0 -0.41381226910E+02 -0.18031776810E+02 -0.58752354444E+01  0.45519987995E+02  0.00000000000E+00 0. -1.
        -14    1    4    4    0    0 -0.11952207984E+03  0.28489536656E+02 -0.14257349920E+03  0.18821366566E+03  0.00000000000E+00 0.  1.
</event>
<event>
12    1  0.9873238E-001  0.3061545E+03  0.7818608E-02  0.1082297E+00
         21   -1    0    0  501  502  0.00000000000E+00  0.00000000000E+00  0.80654960215E+02  0.80654960215E+02  0.00000000000E+00 0.  1.
         21   -1    0    0  502  503 -0.00000000000E+00 -0.00000000000E+00 -0.21941984901E+04  0.21941984901E+04  0.00000000000E+00 0.  1.
         -6    2    1    2    0  503  0.16801624267E+03 -0.18803862991E+03 -0.27628902743E+03  0.41239081553E+03  0.17361616837E+03 0.  0.
        -24    2    3    3    0    0  0.15028469117E+03 -0.13997917228E+03 -0.12855008789E+03  0.25595231758E+03  0.82503373894E+02 0.  0.
          6    2    1    2  501    0 -0.16801624267E+03  0.18803862991E+03 -0.18372545025E+04  0.18624626348E+04  0.17226425928E+03 0.  0.
         24    2    5    5    0    0 -0.59773089329E+02  0.15289110760E+02 -0.64379387002E+03  0.65170694192E+03  0.80279586211E+02 0.  0.
          5    1    5    5  501    0 -0.10824315334E+03  0.17274951915E+03 -0.11934606324E+04  0.12107556929E+04  0.47000000000E+01 0. -1.
        -13    1    6    6    0    0 -0.10940460718E+02 -0.17994727314E+02 -0.41065461831E+03  0.41119425997E+03  0.00000000000E+00 0.  1.
         14    1    6    6    0    0 -0.48832628610E+02  0.33283838074E+02 -0.23313925171E+03  0.24051268195E+03  0.00000000000E+00 0. -1.
         -5    1    3    3    0  503  0.17731551493E+02 -0.48059457628E+02 -0.14773893954E+03  0.15643849795E+03  0.47000000000E+01 0.  1.
         13    1    4    4    0    0  0.63975440048E+02 -0.41953283030E+02 -0.93330367359E+02  0.12067929548E+03  0.00000000000E+00 0. -1.
        -14    1    4    4    0    0  0.86309251124E+02 -0.98025889254E+02 -0.35219720532E+02  0.13527302210E+03  0.00000000000E+00 0.  1.
</event>
<event>
12    1  0.9873238E-001  0.2174790E+03  0.7818608E-02  0.1136105E+00
         21   -1    0    0  501  502  0.00000000000E+00  0.00000000000E+00  0.36456145237E+03  0.36456145237E+03  0.00000000000E+00 0. -1.
         21   -1    0    0  502  503 -0.00000000000E+00 -0.00000000000E+00 -0.13050406994E+03  0.13050406994E+03  0.00000000000E+00 0. -1.
         -6    2    1    2    0  503 -0.75189140752E+02  0.10900811974E+03  0.14560362785E+03  0.26028653349E+03  0.17033051991E+03 0.  0.
        -24    2    3    3    0    0 -0.45974783142E+02  0.13331308557E+03  0.78076359331E+02  0.18265772409E+03  0.85917791026E+02 0.  0.
          6    2    1    2  501    0  0.75189140752E+02 -0.10900811974E+03  0.88453754568E+02  0.23477898882E+03  0.17251356422E+03 0.  0.
         24    2    5    5    0    0  0.38668330624E+02 -0.13992982911E+03  0.49262986575E+02  0.17274731966E+03  0.79619078964E+02 0.  0.
          5    1    5    5  501    0  0.36520810128E+02  0.30921709371E+02  0.39190767993E+02  0.62031669160E+02  0.47000000000E+01 0. -1.
        -13    1    6    6    0    0  0.18465491117E+02 -0.80029323278E+02  0.68199830366E+02  0.10675618862E+03  0.00000000000E+00 0.  1.
         14    1    6    6    0    0  0.20202839507E+02 -0.59900505836E+02 -0.18936843791E+02  0.65991131043E+02  0.00000000000E+00 0. -1.
         -5    1    3    3    0  503 -0.29214357610E+02 -0.24304965823E+02  0.67527268524E+02  0.77628809398E+02  0.47000000000E+01 0.  1.
         11    1    4    4    0    0 -0.11700569964E+02  0.96709326870E+02  0.88303090256E+02  0.13148016196E+03  0.00000000000E+00 0. -1.
        -12    1    4    4    0    0 -0.34274213178E+02  0.36603758697E+02 -0.10226730926E+02  0.51177562126E+02  0.00000000000E+00 0.  1.
</event>
<event>
12    1  0.9873238E-001  0.2014731E+03  0.7818608E-02  0.1148974E+00
         21   -1    0    0  503  502  0.00000000000E+00  0.00000000000E+00  0.73439779272E+03  0.73439779272E+03  0.00000000000E+00 0. -1.
         21   -1    0    0  501  503 -0.00000000000E+00 -0.00000000000E+00 -0.62750313623E+02  0.62750313623E+02  0.00000000000E+00 0. -1.
          6    2    1    2  501    0  0.78944393429E+02 -0.64831297402E+02  0.47732055034E+03  0.51722959261E+03  0.17104452437E+03 0.  0.
         24    2    3    3    0    0  0.87671470294E+02  0.99678337274E+01  0.23433103514E+03  0.26279479470E+03  0.79777350674E+02 0.  0.
         -6    2    1    2    0  502 -0.78944393429E+02  0.64831297402E+02  0.19432692876E+03  0.27991851373E+03  0.17365513155E+03 0.  0.
        -24    2    5    5    0    0 -0.42072682453E+02  0.51321996854E+02  0.27546335312E+02  0.10851291108E+03  0.81315394062E+02 0.  0.
          5    1    3    3  501    0 -0.87270768648E+01 -0.74799131130E+02  0.24298951520E+03  0.25443479791E+03  0.47000000000E+01 0. -1.
        -11    1    4    4    0    0  0.68708607069E+02 -0.21361686792E+02  0.20018760742E+03  0.21272581534E+03  0.00000000000E+00 0.  1.
         12    1    4    4    0    0  0.18962863225E+02  0.31329520520E+02  0.34143427711E+02  0.50068979354E+02  0.00000000000E+00 0. -1.
         -5    1    5    5    0  502 -0.36871710976E+02  0.13509300548E+02  0.16678059344E+03  0.17140560265E+03  0.47000000000E+01 0.  1.
         11    1    6    6    0    0  0.17096883236E+02  0.20401806999E+02  0.31975191313E+02  0.41604687292E+02  0.00000000000E+00 0. -1.
        -12    1    6    6    0    0 -0.59169565690E+02  0.30920189855E+02 -0.44288560011E+01  0.66908223785E+02  0.00000000000E+00 0.  1.
</event>
<event>
12    1  0.9873238E-001  0.2587277E+03  0.7818608E-02  0.1107923E+00
         21   -1    0    0  501  502  0.00000000000E+00  0.00000000000E+00  0.26372307363E+03  0.26372307363E+03  0.00000000000E+00 0. -1.
         21   -1    0    0  502  503 -0.00000000000E+00 -0.00000000000E+00 -0.25667371666E+03  0.25667371666E+03  0.00000000000E+00 0. -1.
         -6    2    1    2    0  503 -0.16537197093E+03 -0.99628071416E+02 -0.24290882690E+02  0.25986547948E+03  0.17223930754E+03 0.  0.
        -24    2    3    3    0    0 -0.15219167250E+02 -0.32521580274E+02  0.99883926170E+00  0.93399850471E+02  0.86216345045E+02 0.  0.
          6    2    1    2  501    0  0.16537197093E+03  0.99628071416E+02  0.31340239657E+02  0.26053131080E+03  0.17210668756E+03 0.  0.
         24    2    5    5    0    0  0.71097198504E+02  0.90012907924E+02 -0.36893017544E+02  0.14366364430E+03  0.78236901287E+02 0.  0.
          5    1    5    5  501    0  0.94274772423E+02  0.96151634919E+01  0.68233257201E+02  0.11686766650E+03  0.47000000000E+01 0. -1.
        -13    1    6    6    0    0  0.79807409330E+02  0.60103586324E+02 -0.47672833932E+02  0.11069942533E+03  0.00000000000E+00 0.  1.
         14    1    6    6    0    0 -0.87102108268E+01  0.29909321601E+02  0.10779816388E+02  0.32964218975E+02  0.00000000000E+00 0. -1.
         -5    1    3    3    0  503 -0.15015280368E+03 -0.67106491142E+02 -0.25289721952E+02  0.16646562901E+03  0.47000000000E+01 0.  1.
         11    1    4    4    0    0 -0.11544161552E+02  0.26221711546E+02  0.15787510891E+02  0.32712250343E+02  0.00000000000E+00 0. -1.
        -12    1    4    4    0    0 -0.36750056976E+01 -0.58743291820E+02 -0.14788671629E+02  0.60687600128E+02  0.00000000000E+00 0.  1.
</event>
<event>
12    1  0.9873238E-001  0.3158417E+03  0.7818608E-02  0.1077685E+00
         21   -1    0    0  503  502  0.00000000000E+00  0.00000000000E+00  0.11404584382E+04  0.11404584382E+04  0.00000000000E+00 0.  1.
         21   -1    0    0  501  503 -0.00000000000E+00 -0.00000000000E+00 -0.93490945864E+02  0.93490945864E+02  0.00000000000E+00 0. -1.
          6    2    1    2  501    0  0.21630956055E+03 -0.15140899297E+03  0.36438492855E+03  0.48221611909E+03  0.17332484018E+03 0.  0.
         24    2    3    3    0    0  0.20020206383E+03 -0.11020276158E+03  0.21235640250E+03  0.32381104441E+03  0.86791910749E+02 0.  0.
         -6    2    1    2    0  502 -0.21630956055E+03  0.15140899297E+03  0.68258256374E+03  0.75173326492E+03  0.17166664246E+03 0.  0.
        -24    2    5    5    0    0 -0.23765005101E+03  0.14125731716E+03  0.65290579972E+03  0.71350665930E+03  0.79841049350E+02 0.  0.
          5    1    3    3  501    0  0.16107496718E+02 -0.41206231388E+02  0.15202852604E+03  0.15840507469E+03  0.47000000000E+01 0. -1.
        -13    1    4    4    0    0  0.26138160744E+02 -0.42902167437E+02  0.15545583367E+02  0.52587684681E+02  0.00000000000E+00 0.  1.
         14    1    4    4    0    0  0.17406390309E+03 -0.67300594142E+02  0.19681081914E+03  0.27122335972E+03  0.00000000000E+00 0. -1.
         -5    1    5    5    0  502  0.21340490460E+02  0.10151675807E+02  0.29676764025E+02  0.38226605627E+02  0.47000000000E+01 0.  1.
         13    1    6    6    0    0 -0.13030986690E+03  0.44780290036E+02  0.38948489126E+03  0.41313970555E+03  0.00000000000E+00 0. -1.
        -14    1    6    6    0    0 -0.10734018412E+03  0.96477027124E+02  0.26342090846E+03  0.30036695375E+03  0.00000000000E+00 0.  1.
</event>
<event>
12    1  0.9873238E-001  0.4385563E+03  0.7818608E-02  0.1031195E+00
         21   -1    0    0  503  502  0.00000000000E+00  0.00000000000E+00  0.10823296506E+04  0.10823296506E+04  0.00000000000E+00 0.  1.
         21   -1    0    0  501  503 -0.00000000000E+00 -0.00000000000E+00 -0.18233037642E+03  0.18233037642E+03  0.00000000000E+00 0.  1.
          6    2    1    2  501    0  0.37850853550E+03  0.14026062912E+03  0.34899809755E+03  0.56043429477E+03  0.17130432314E+03 0.  0.
         24    2    3    3    0    0  0.17538054096E+03  0.21653872810E+02  0.21554033368E+03  0.28995026650E+03  0.79914311903E+02 0.  0.
         -6    2    1    2    0  502 -0.37850853550E+03 -0.14026062912E+03  0.55100117661E+03  0.70422573222E+03  0.17143462242E+03 0.  0.
        -24    2    5    5    0    0 -0.24383025274E+03 -0.37926763429E+02  0.26141839026E+03  0.36882933977E+03  0.82485608298E+02 0.  0.
          5    1    3    3  501    0  0.20312799454E+03  0.11860675631E+03  0.13345776387E+03  0.27048402827E+03  0.47000000000E+01 0. -1.
        -13    1    4    4    0    0  0.13759574879E+02 -0.29293722845E+00 -0.58591859947E+01  0.14958000321E+02  0.00000000000E+00 0.  1.
         14    1    4    4    0    0  0.16162096608E+03  0.21946810039E+02  0.22139951967E+03  0.27499226618E+03  0.00000000000E+00 0. -1.
         -5    1    5    5    0  502 -0.13467828277E+03 -0.10233386570E+03  0.28958278635E+03  0.33539639245E+03  0.47000000000E+01 0.  1.
         13    1    6    6    0    0 -0.19451621249E+03 -0.58109851833E+02  0.17882593801E+03  0.27054025192E+03  0.00000000000E+00 0. -1.
        -14    1    6    6    0    0 -0.49314040245E+02  0.20183088404E+02  0.82592452244E+02  0.98289087851E+02  0.00000000000E+00 0.  1.
</event>
<event>
12    1  0.9873238E-001  0.1832772E+03  0.7818608E-02  0.1164777E+00
         21   -1    0    0  503  502  0.00000000000E+00  0.00000000000E+00  0.55947839828E+02  0.55947839828E+02  0.00000000000E+00 0.  1.
         21   -1    0    0  501  503 -0.00000000000E+00 -0.00000000000E+00 -0.60252432961E+03  0.60252432961E+03  0.00000000000E+00 0.  1.
          6    2    1    2  501    0 -0.63714017003E+01 -0.59967970574E+02 -0.24805395257E+03  0.30841741806E+03  0.17307162715E+03 0.  0.
         24    2    3    3    0    0  0.31178999420E+02  0.14832956326E+02 -0.18209442163E+03  0.20174989249E+03  0.79702535302E+02 0.  0.
         -6    2    1    2    0  502  0.63714017003E+01  0.59967970574E+02 -0.29852253722E+03  0.35005475138E+03  0.17258583801E+03 0.  0.
        -24    2    5    5    0    0  0.39261874877E+02 -0.23961596645E+02 -0.15544984819E+03  0.18088666980E+03  0.80247611038E+02 0.  0.
          5    1    3    3  501    0 -0.37550401120E+02 -0.74800926900E+02 -0.65959530936E+02  0.10666752557E+03  0.47000000000E+01 0. -1.
        -13    1    4    4    0    0 -0.41594539940E+01 -0.22173498621E+02 -0.11594557535E+03  0.11812003023E+03  0.00000000000E+00 0.  1.
         14    1    4    4    0    0  0.35338453414E+02  0.37006454948E+02 -0.66148846281E+02  0.83629862261E+02  0.00000000000E+00 0. -1.
         -5    1    5    5    0  502 -0.32890473177E+02  0.83929567219E+02 -0.14307268902E+03  0.16916808158E+03  0.47000000000E+01 0.  1.
         11    1    6    6    0    0  0.13315441848E+02  0.20683417784E+02 -0.10019600037E+02  0.26561196279E+02  0.00000000000E+00 0. -1.
        -12    1    6    6    0    0  0.25946433029E+02 -0.44645014429E+02 -0.14543024816E+03  0.15432547353E+03  0.00000000000E+00 0.  1.
</event>
<event>
12    1  0.9873238E-001  0.2115493E+03  0.7818608E-02  0.1140373E+00
         21   -1    0    0  501  502  0.00000000000E+00  0.00000000000E+00  0.87938674791E+03  0.87938674791E+03  0.00000000000E+00 0. -1.
         21   -1    0    0  502  503 -0.00000000000E+00 -0.00000000000E+00 -0.55356950081E+02  0.55356950081E+02  0.00000000000E+00 0. -1.
         -6    2    1    2    0  503 -0.10864956033E+03  0.56180449856E+02  0.27862834614E+03  0.34975151869E+03  0.17242795496E+03 0.  0.
        -24    2    3    3    0    0  0.13070001787E+02  0.15019097832E+02  0.13483137628E+03  0.15685370315E+03  0.77634952925E+02 0.  0.
          6    2    1    2  501    0  0.10864956033E+03 -0.56180449856E+02  0.54540145169E+03  0.58499217930E+03  0.17260398728E+03 0.  0.
         24    2    5    5    0    0  0.10014216938E+03 -0.25371290997E+02  0.16113957066E+03  0.19937467038E+03  0.55786570615E+02 0.  0.
          5    1    5    5  501    0  0.85073909443E+01 -0.30809158859E+02  0.38426188103E+03  0.38561750892E+03  0.47000000000E+01 0. -1.
        -11    1    6    6    0    0  0.82671639560E+02 -0.59258439901E+01  0.14911266791E+03  0.17059983395E+03  0.00000000000E+00 0.  1.
         12    1    6    6    0    0  0.17470529822E+02 -0.19445447007E+02  0.12026902755E+02  0.28774836428E+02  0.00000000000E+00 0. -1.
         -5    1    3    3    0  503 -0.12171956211E+03  0.41161352024E+02  0.14379696985E+03  0.19289781554E+03  0.47000000000E+01 0.  1.
         11    1    4    4    0    0 -0.57083374760E+01 -0.26498359258E+02  0.85517950152E+02  0.89711024732E+02  0.00000000000E+00 0. -1.
        -12    1    4    4    0    0  0.18778339263E+02  0.41517457090E+02  0.49313426130E+02  0.67142678419E+02  0.00000000000E+00 0.  1.
</event>
<event>
12    1  0.9873238E-001  0.1859925E+03  0.7818608E-02  0.1162254E+00
         21   -1    0    0  503  502  0.00000000000E+00  0.00000000000E+00  0.37686540600E+03  0.37686540600E+03  0.00000000000E+00 0. -1.
         21   -1    0    0  501  503 -0.00000000000E+00 -0.00000000000E+00 -0.11315150783E+03  0.11315150783E+03  0.00000000000E+00 0.  1.
          6    2    1    2  501    0 -0.57378380533E+02 -0.38347573458E+02  0.23913698199E+03  0.30295168718E+03  0.17271483336E+03 0.  0.
         24    2    3    3    0    0 -0.71602393413E+02  0.26646992194E+02  0.18964669737E+03  0.21989752185E+03  0.80944952624E+02 0.  0.
         -6    2    1    2    0  502  0.57378380533E+02  0.38347573458E+02  0.24576916178E+02  0.18706522665E+03  0.17212367434E+03 0.  0.
        -24    2    5    5    0    0  0.12943719149E+02  0.79765221374E+02 -0.15562278342E+02  0.11410561023E+03  0.79043503035E+02 0.  0.
          5    1    3    3  501    0  0.14224012880E+02 -0.64994565652E+02  0.49490284623E+02  0.83054165331E+02  0.47000000000E+01 0. -1.
        -11    1    4    4    0    0 -0.57304042377E+02  0.32502930406E+01  0.45714127441E+02  0.73376420772E+02  0.00000000000E+00 0.  1.
         12    1    4    4    0    0 -0.14298351036E+02  0.23396699153E+02  0.14393256993E+03  0.14652110107E+03  0.00000000000E+00 0. -1.
         -5    1    5    5    0  502  0.44434661384E+02 -0.41417647916E+02  0.40139194520E+02  0.72959616419E+02  0.47000000000E+01 0.  1.
         11    1    6    6    0    0 -0.15907865530E+02 -0.99103610234E+01 -0.43276111429E+01  0.19235479187E+02  0.00000000000E+00 0. -1.
        -12    1    6    6    0    0  0.28851584679E+02  0.89675582397E+02 -0.11234667199E+02  0.94870131042E+02  0.00000000000E+00 0.  1.
</event>
<event>
12    1  0.9873238E-001  0.1975459E+03  0.7818608E-02  0.1151968E+00
         21   -1    0    0  503  502  0.00000000000E+00  0.00000000000E+00  0.11786649430E+03  0.11786649430E+03  0.00000000000E+00 0. -1.
         21   -1    0    0  501  503 -0.00000000000E+00 -0.00000000000E+00 -0.33738048095E+03  0.33738048095E+03  0.00000000000E+00 0. -1.
          6    2    1    2  501    0 -0.64034979677E+02 -0.72905394963E+02 -0.76231500535E+02  0.21174427451E+03  0.17207184800E+03 0.  0.
         24    2    3    3    0    0 -0.84471083152E+02 -0.26279223372E+02  0.39280443986E+01  0.11666916290E+03  0.75962507658E+02 0.  0.
         -6    2    1    2    0  502  0.64034979677E+02  0.72905394963E+02 -0.14328248612E+03  0.24350270073E+03  0.17131263585E+03 0.  0.
        -24    2    5    5    0    0  0.82456902573E+02  0.37566488976E+02 -0.15986098673E+03  0.20008447643E+03  0.79169948544E+02 0.  0.
          5    1    3    3  501    0  0.20436103476E+02 -0.46626171591E+02 -0.80159544933E+02  0.95075111603E+02  0.47000000000E+01 0. -1.
        -11    1    4    4    0    0 -0.21113477646E+01  0.19894161962E+02 -0.79043742079E+01  0.21510801965E+02  0.00000000000E+00 0.  1.
         12    1    4    4    0    0 -0.82359735388E+02 -0.46173385334E+02  0.11832418607E+02  0.95158360938E+02  0.00000000000E+00 0. -1.
         -5    1    5    5    0  502 -0.18421922896E+02  0.35338905987E+02  0.16578500614E+02  0.43418224309E+02  0.47000000000E+01 0.  1.
         11    1    6    6    0    0  0.10842048060E+01  0.34349379939E+02 -0.74843972899E+02  0.82357001412E+02  0.00000000000E+00 0. -1.
        -12    1    6    6    0    0  0.81372697767E+02  0.32171090371E+01 -0.85017013830E+02  0.11772747501E+03  0.00000000000E+00 0.  1.
</event>
<event>
12    1  0.9873238E-001  0.2193222E+03  0.7818608E-02  0.1134423E+00
         21   -1    0    0  501  502  0.00000000000E+00  0.00000000000E+00  0.67940911124E+02  0.67940911124E+02  0.00000000000E+00 0.  1.
         21   -1    0    0  502  503 -0.00000000000E+00 -0.00000000000E+00 -0.10824957289E+04  0.10824957289E+04  0.00000000000E+00 0.  1.
         -6    2    1    2    0  503 -0.13340759730E+03  0.22361520932E+02 -0.84601025584E+03  0.87397687180E+03  0.17264007302E+03 0.  0.
        -24    2    3    3    0    0 -0.10908086289E+02 -0.19770861888E+02 -0.41312537340E+03  0.42210003092E+03  0.83582226734E+02 0.  0.
          6    2    1    2  501    0  0.13340759730E+03 -0.22361520932E+02 -0.16854456195E+03  0.27645976824E+03  0.17240971393E+03 0.  0.
         24    2    5    5    0    0  0.73503703014E+02  0.36614478122E+02 -0.38058904266E+02  0.12116893826E+03  0.80560642006E+02 0.  0.
          5    1    5    5  501    0  0.59903894283E+02 -0.58975999054E+02 -0.13048565768E+03  0.15529082998E+03  0.47000000000E+01 0. -1.
        -13    1    6    6    0    0  0.63775794794E+02  0.33994558977E+02 -0.61983330283E+02  0.95209848622E+02  0.00000000000E+00 0.  1.
         14    1    6    6    0    0  0.97279082203E+01  0.26199191452E+01  0.23924426017E+02  0.25959089640E+02  0.00000000000E+00 0. -1.
         -5    1    3    3    0  503 -0.12249951101E+03  0.42132382820E+02 -0.43288488244E+03  0.45187684088E+03  0.47000000000E+01 0.  1.
         11    1    4    4    0    0 -0.41168198605E+02 -0.30514537017E+02 -0.19486719259E+03  0.20149238272E+03  0.00000000000E+00 0. -1.
        -12    1    4    4    0    0  0.30260112315E+02  0.10743675128E+02 -0.21825818081E+03  0.22060764820E+03  0.00000000000E+00 0.  1.
</event>
<event>
12    1  0.9873238E-001  0.4275768E+03  0.7818608E-02  0.1034654E+00
         21   -1    0    0  503  502  0.00000000000E+00  0.00000000000E+00  0.21340392349E+03  0.21340392349E+03  0.00000000000E+00 0. -1.
         21   -1    0    0  501  503 -0.00000000000E+00 -0.00000000000E+00 -0.85753139771E+03  0.85753139771E+03  0.00000000000E+00 0. -1.
          6    2    1    2  501    0  0.14027852164E+03  0.36490287943E+03 -0.34433231494E+03  0.54872936097E+03  0.17235716819E+03 0.  0.
         24    2    3    3    0    0  0.14247447567E+03  0.37489913587E+03 -0.31177999202E+03  0.51428388108E+03  0.80204791760E+02 0.  0.
         -6    2    1    2    0  502 -0.14027852164E+03 -0.36490287943E+03 -0.29979515928E+03  0.52220596023E+03  0.17317549576E+03 0.  0.
        -24    2    5    5    0    0 -0.77453709122E+02 -0.14368358776E+03 -0.63151220912E+02  0.19219478522E+03  0.79414786485E+02 0.  0.
          5    1    3    3  501    0 -0.21959540317E+01 -0.99962564426E+01 -0.32552322920E+02  0.34445479885E+02  0.47000000000E+01 0. -1.
        -11    1    4    4    0    0  0.13495719099E+03  0.25878950072E+03 -0.20830289837E+03  0.35857432501E+03  0.00000000000E+00 0.  1.
         12    1    4    4    0    0  0.75172846855E+01  0.11610963514E+03 -0.10347709365E+03  0.15570955607E+03  0.00000000000E+00 0. -1.
         -5    1    5    5    0  502 -0.62824812521E+02 -0.22121929166E+03 -0.23664393837E+03  0.33001117502E+03  0.47000000000E+01 0.  1.
         13    1    6    6    0    0  0.65049950327E+01 -0.32024035291E+01 -0.22392997656E+02  0.23537559193E+02  0.00000000000E+00 0. -1.
        -14    1    6    6    0    0 -0.83958704154E+02 -0.14048118423E+03 -0.40758223256E+02  0.16865722602E+03  0.00000000000E+00 0.  1.
</event>
<event>
12    1  0.9873238E-001  0.2080655E+03  0.7818608E-02  0.1143342E+00
         21   -1    0    0  503  502  0.00000000000E+00  0.00000000000E+00  0.24400887296E+04  0.24400887296E+04  0.00000000000E+00 0. -1.
         21   -1    0    0  501  503 -0.00000000000E+00 -0.00000000000E+00 -0.20000428585E+02  0.20000428585E+02  0.00000000000E+00 0. -1.
          6    2    1    2  501    0 -0.11711039959E+03 -0.24375278342E+02  0.78467510372E+03  0.81149351676E+03  0.16881264604E+03 0.  0.
         24    2    3    3    0    0 -0.12054411694E+03  0.31416512143E+02  0.57123331593E+03  0.59080368674E+03  0.84991844729E+02 0.  0.
         -6    2    1    2    0  502  0.11711039959E+03  0.24375278342E+02  0.16354131973E+04  0.16485956414E+04  0.17024177850E+03 0.  0.
        -24    2    5    5    0    0  0.75395256852E+02 -0.39454604799E+02  0.66871722908E+03  0.67888558574E+03  0.80385293878E+02 0.  0.
          5    1    3    3  501    0  0.34337173569E+01 -0.55791790485E+02  0.21344178779E+03  0.22068983002E+03  0.47000000000E+01 0. -1.
        -13    1    4    4    0    0 -0.43846865724E+02 -0.28405835084E+02  0.23787068913E+03  0.24354035363E+03  0.00000000000E+00 0.  1.
         14    1    4    4    0    0 -0.76697251221E+02  0.59822347227E+02  0.33336262680E+03  0.34726333311E+03  0.00000000000E+00 0. -1.
         -5    1    5    5    0  502  0.41715142736E+02  0.63829883141E+02  0.96669596824E+03  0.96971005570E+03  0.47000000000E+01 0.  1.
         11    1    6    6    0    0  0.12177210752E+01 -0.81520752074E+01  0.35195761949E+03  0.35205412239E+03  0.00000000000E+00 0. -1.
        -12    1    6    6    0    0  0.74177535776E+02 -0.31302529592E+02  0.31675960958E+03  0.32683146335E+03  0.00000000000E+00 0.  1.
</event>
<event>
12    1  0.9873238E-001  0.1877844E+03  0.7818608E-02  0.1160608E+00
         21   -1    0    0  501  502  0.00000000000E+00  0.00000000000E+00  0.59637629252E+02  0.59637629252E+02  0.00000000000E+00 0.  1.
         21   -1    0    0  502  503 -0.00000000000E+00 -0.00000000000E+00 -0.64519847889E+03  0.64519847889E+03  0.00000000000E+00 0.  1.
         -6    2    1    2    0  503  0.18088180377E+02  0.73319723823E+02 -0.18878633786E+03  0.26586798805E+03  0.17129664776E+03 0.  0.
        -24    2    3    3    0    0  0.41788085347E+02  0.80500105498E+02 -0.20335088270E+03  0.23675683309E+03  0.80471768073E+02 0.  0.
          6    2    1    2  501    0 -0.18088180377E+02 -0.73319723823E+02 -0.39677451178E+03  0.43896812009E+03  0.17193031464E+03 0.  0.
         24    2    5    5    0    0  0.15765828399E+01 -0.68488746456E+02 -0.40361131071E+03  0.41708495135E+03  0.79778270905E+02 0.  0.
          5    1    5    5  501    0 -0.19664763216E+02 -0.48309773664E+01  0.68367989287E+01  0.21883168744E+02  0.47000000000E+01 0. -1.
        -13    1    6    6    0    0  0.33280450559E+02 -0.64313263560E+02 -0.30201114457E+03  0.31057127314E+03  0.00000000000E+00 0.  1.
         14    1    6    6    0    0 -0.31703867719E+02 -0.41754828962E+01 -0.10160016614E+03  0.10651367821E+03  0.00000000000E+00 0. -1.
         -5    1    3    3    0  503 -0.23699904971E+02 -0.71803816759E+01  0.14564544841E+02  0.29111154959E+02  0.47000000000E+01 0.  1.
         11    1    4    4    0    0  0.32129210977E+02  0.28888820029E+02 -0.16797843691E+03  0.17344626080E+03  0.00000000000E+00 0. -1.
        -12    1    4    4    0    0  0.96588743703E+01  0.51611285469E+02 -0.35372445796E+02  0.63310572288E+02  0.00000000000E+00 0.  1.
</event>
<event>
12    1  0.9873238E-001  0.2012510E+03  0.7818608E-02  0.1148724E+00
         21   -1    0    0  503  502  0.00000000000E+00  0.00000000000E+00  0.28729595713E+03  0.28729595713E+03  0.00000000000E+00 0.  1.
         21   -1    0    0  501  503 -0.00000000000E+00 -0.00000000000E+00 -0.15894887685E+03  0.15894887685E+03  0.00000000000E+00 0.  1.
          6    2    1    2  501    0 -0.98709644772E+02 -0.36457805583E+02 -0.11128675898E+02  0.20138685121E+03  0.17134774833E+03 0.  0.
         24    2    3    3    0    0 -0.13449574578E+03 -0.15875641916E+02  0.49585319237E+01  0.15683173094E+03  0.78933282912E+02 0.  0.
         -6    2    1    2    0  502  0.98709644772E+02  0.36457805583E+02  0.13947575618E+03  0.24485798276E+03  0.17154935034E+03 0.  0.
        -24    2    5    5    0    0  0.10517960522E+03  0.74461002230E+02  0.13953342000E+03  0.20602247493E+03  0.79802848772E+02 0.  0.
          5    1    3    3  501    0  0.35786101013E+02 -0.20582163667E+02 -0.16087207822E+02  0.44555120272E+02  0.47000000000E+01 0. -1.
        -11    1    4    4    0    0 -0.91089505208E+01  0.19256044599E+02 -0.13640123836E+02  0.25294687415E+02  0.00000000000E+00 0.  1.
         12    1    4    4    0    0 -0.12538679526E+03 -0.35131686515E+02  0.18598655760E+02  0.13153704353E+03  0.00000000000E+00 0. -1.
         -5    1    5    5    0  502 -0.64699604457E+01 -0.38003196646E+02 -0.57663821021E-01  0.38835507833E+02  0.47000000000E+01 0.  1.
         13    1    6    6    0    0  0.55386161348E+02  0.80990348744E+02  0.71242287207E+02  0.12125397703E+03  0.00000000000E+00 0. -1.
        -14    1    6    6    0    0  0.49793443870E+02 -0.65293465143E+01  0.68291132791E+02  0.84768497900E+02  0.00000000000E+00 0.  1.
</event>
<event>
12    1  0.9873238E-001  0.2626936E+03  0.7818608E-02  0.1105580E+00
         21   -1    0    0  501  502  0.00000000000E+00  0.00000000000E+00  0.45004752938E+03  0.45004752938E+03  0.00000000000E+00 0.  1.
         21   -1    0    0  502  503 -0.00000000000E+00 -0.00000000000E+00 -0.15707273426E+03  0.15707273426E+03  0.00000000000E+00 0.  1.
         -6    2    1    2    0  503 -0.29417189260E+02 -0.19636942782E+03  0.98500848385E+02  0.28027464860E+03  0.17153757113E+03 0.  0.
        -24    2    3    3    0    0 -0.72623454165E+02 -0.93182358968E+02  0.89928701075E+02  0.16798072973E+03  0.78569944418E+02 0.  0.
          6    2    1    2  501    0  0.29417189260E+02  0.19636942782E+03  0.19447394674E+03  0.32684561504E+03  0.17199307226E+03 0.  0.
         24    2    5    5    0    0 -0.28695684224E+02  0.17786869352E+03  0.17257036991E+03  0.26187454523E+03  0.79605467423E+02 0.  0.
          5    1    5    5  501    0  0.58112873484E+02  0.18500734305E+02  0.21903576832E+02  0.64971069811E+02  0.47000000000E+01 0. -1.
        -11    1    6    6    0    0 -0.86840814991E+01  0.67543471998E+02  0.17142408018E+02  0.70223899306E+02  0.00000000000E+00 0.  1.
         12    1    6    6    0    0 -0.20011602725E+02  0.11032522152E+03  0.15542796189E+03  0.19165064593E+03  0.00000000000E+00 0. -1.
         -5    1    3    3    0  503  0.43206264905E+02 -0.10318706885E+03  0.85721473101E+01  0.11229391887E+03  0.47000000000E+01 0.  1.
         11    1    4    4    0    0  0.23959157989E+01 -0.56745210875E+02  0.23953842349E+02  0.61640456950E+02  0.00000000000E+00 0. -1.
        -12    1    4    4    0    0 -0.75019369964E+02 -0.36437148093E+02  0.65974858726E+02  0.10634027278E+03  0.00000000000E+00 0.  1.
</event>
<event>
12    1  0.9873238E-001  0.5249544E+03  0.7818608E-02  0.1007485E+00
         21   -1    0    0  503  502  0.00000000000E+00  0.00000000000E+00  0.56556602509E+03  0.56556602509E+03  0.00000000000E+00 0.  1.
         21   -1    0    0  501  503 -0.00000000000E+00 -0.00000000000E+00 -0.50524839269E+03  0.50524839269E+03  0.00000000000E+00 0. -1.
          6    2    1    2  501    0 -0.29343213991E+03 -0.39974060802E+03  0.13210628592E+03  0.54097416649E+03  0.17118996350E+03 0.  0.
         24    2    3    3    0    0 -0.28444760757E+03 -0.37568765469E+03  0.15885554126E+03  0.50359932139E+03  0.79533251981E+02 0.  0.
         -6    2    1    2    0  502  0.29343213991E+03  0.39974060802E+03 -0.71788653517E+02  0.52984025128E+03  0.17228495776E+03 0.  0.
        -24    2    5    5    0    0  0.46129998601E+02  0.11286109381E+03 -0.22035104136E+02  0.14779874772E+03  0.80581143858E+02 0.  0.
          5    1    3    3  501    0 -0.89845323340E+01 -0.24052953327E+02 -0.26749255347E+02  0.37374845105E+02  0.47000000000E+01 0. -1.
        -13    1    4    4    0    0 -0.10938985813E+03 -0.20975131833E+03  0.73004371774E+02  0.24757098962E+03  0.00000000000E+00 0.  1.
         14    1    4    4    0    0 -0.17505774945E+03 -0.16593633636E+03  0.85851169488E+02  0.25602833177E+03  0.00000000000E+00 0. -1.
         -5    1    5    5    0  502  0.24730214131E+03  0.28687951421E+03 -0.49753549381E+02  0.38204150356E+03  0.47000000000E+01 0.  1.
         13    1    6    6    0    0  0.58094163155E+02  0.80366241173E+02 -0.42152138378E+02  0.10775187833E+03  0.00000000000E+00 0. -1.
        -14    1    6    6    0    0 -0.11964164553E+02  0.32494852639E+02  0.20117034242E+02  0.40046869393E+02  0.00000000000E+00 0.  1.
</event>
<event>
12    1  0.9873238E-001  0.2020120E+03  0.7818608E-02  0.1148645E+00
         21   -1    0    0  503  502  0.00000000000E+00  0.00000000000E+00  0.20132745189E+03  0.20132745189E+03  0.00000000000E+00 0.  1.
         21   -1    0    0  501  503 -0.00000000000E+00 -0.00000000000E+00 -0.22057714814E+03  0.22057714814E+03  0.00000000000E+00 0.  1.
          6    2    1    2  501    0  0.50719595226E+02 -0.88135405931E+02 -0.74190461513E+02  0.21255476617E+03  0.17127456589E+03 0.  0.
         24    2    3    3    0    0 -0.37518010474E+02 -0.30990784323E+02 -0.20230887499E+02  0.94296115463E+02  0.78194876811E+02 0.  0.
         -6    2    1    2    0  502 -0.50719595226E+02  0.88135405931E+02  0.54940765255E+02  0.20934983387E+03  0.17455239367E+03 0.  0.
        -24    2    5    5    0    0  0.23302380434E+02 -0.89190721716E-01  0.42118566229E+02  0.93378582588E+02  0.80016105729E+02 0.  0.
          5    1    3    3  501    0  0.88237605700E+02 -0.57144621608E+02 -0.53959574014E+02  0.11825865070E+03  0.47000000000E+01 0. -1.
        -13    1    4    4    0    0 -0.24463696289E+02  0.16226538767E+02 -0.32499162126E+02  0.43794617653E+02  0.00000000000E+00 0.  1.
         14    1    4    4    0    0 -0.13054314185E+02 -0.47217323091E+02  0.12268274627E+02  0.50501497810E+02  0.00000000000E+00 0. -1.
         -5    1    5    5    0  502 -0.74021975660E+02  0.88224596652E+02  0.12822199027E+02  0.11597125128E+03  0.47000000000E+01 0.  1.
         11    1    6    6    0    0 -0.82046432088E+01  0.59451249154E+01 -0.20586040867E+02  0.22944405833E+02  0.00000000000E+00 0. -1.
        -12    1    6    6    0    0  0.31507023643E+02 -0.60343156371E+01  0.62704607096E+02  0.70434176755E+02  0.00000000000E+00 0.  1.
</event>
<event>
12    1  0.9873238E-001  0.1790605E+03  0.7818608E-02  0.1168933E+00
         21   -1    0    0  503  502  0.00000000000E+00  0.00000000000E+00  0.43784437164E+03  0.43784437164E+03  0.00000000000E+00 0.  1.
         21   -1    0    0  501  503 -0.00000000000E+00 -0.00000000000E+00 -0.74887634695E+03  0.74887634695E+03  0.00000000000E+00 0.  1.
          6    2    1    2  501    0  0.62520233004E+01  0.47165291580E+02  0.40827678864E+03  0.44545979068E+03  0.17169984404E+03 0.  0.
         24    2    3    3    0    0 -0.10006844228E+02  0.13883511138E+02  0.39892226200E+03  0.40696791035E+03  0.78683035794E+02 0.  0.
         -6    2    1    2    0  502 -0.62520233004E+01 -0.47165291580E+02 -0.71930876394E+03  0.74126092791E+03  0.17262390577E+03 0.  0.
        -24    2    5    5    0    0 -0.33439343545E+02 -0.55810100821E+02 -0.24015727577E+03  0.26123788500E+03  0.79603758734E+02 0.  0.
          5    1    3    3  501    0  0.16258867528E+02  0.33281780442E+02  0.93545266400E+01  0.38491880330E+02  0.47000000000E+01 0. -1.
        -11    1    4    4    0    0  0.12639706518E+02 -0.72950854937E+01  0.34062803900E+03  0.34094052473E+03  0.00000000000E+00 0.  1.
         12    1    4    4    0    0 -0.22646550745E+02  0.21178596632E+02  0.58294223001E+02  0.66027385615E+02  0.00000000000E+00 0. -1.
         -5    1    5    5    0  502  0.27187320245E+02  0.86448092411E+01 -0.47915148817E+03  0.48002304291E+03  0.47000000000E+01 0.  1.
         11    1    6    6    0    0  0.18824399975E+02 -0.43915982499E+02 -0.13504034900E+03  0.14324408334E+03  0.00000000000E+00 0. -1.
        -12    1    6    6    0    0 -0.52263743521E+02 -0.11894118322E+02 -0.10511692677E+03  0.11799380166E+03  0.00000000000E+00 0.  1.
</event>
<event>
12    1  0.9873238E-001  0.1854482E+03  0.7818608E-02  0.1162926E+00
         21   -1    0    0  501  502  0.00000000000E+00  0.00000000000E+00  0.40679263995E+03  0.40679263995E+03  0.00000000000E+00 0.  1.
         21   -1    0    0  502  503 -0.00000000000E+00 -0.00000000000E+00 -0.84502571721E+02  0.84502571721E+02  0.00000000000E+00 0.  1.
         -6    2    1    2    0  503 -0.65097194284E+02 -0.23227058671E+02  0.14106990890E+03  0.23200429647E+03  0.17072824437E+03 0.  0.
        -24    2    3    3    0    0 -0.40087855711E+02 -0.39091028007E+01  0.16822321328E+03  0.19007528057E+03  0.78786074519E+02 0.  0.
          6    2    1    2  501    0  0.65097194284E+02  0.23227058671E+02  0.18122015933E+03  0.25929091521E+03  0.17208687225E+03 0.  0.
         24    2    5    5    0    0  0.26424061467E+02 -0.44745591425E+02  0.14511384772E+03  0.17302592751E+03  0.78610074523E+02 0.  0.
          5    1    5    5  501    0  0.38673132817E+02  0.67972650095E+02  0.36106311619E+02  0.86264987693E+02  0.47000000000E+01 0. -1.
        -13    1    6    6    0    0  0.26015500714E+01 -0.39507767960E+02  0.14318491365E+03  0.14855824208E+03  0.00000000000E+00 0.  1.
         14    1    6    6    0    0  0.23822511396E+02 -0.52378234650E+01  0.19289340625E+01  0.24467685434E+02  0.00000000000E+00 0. -1.
         -5    1    3    3    0  503 -0.25009338573E+02 -0.19317955870E+02 -0.27153304384E+02  0.41929015894E+02  0.47000000000E+01 0.  1.
         13    1    4    4    0    0 -0.35771433516E+02 -0.36637631005E+02  0.12910883551E+03  0.13889205473E+03  0.00000000000E+00 0. -1.
        -14    1    4    4    0    0 -0.43164221956E+01  0.32728528204E+02  0.39114377775E+02  0.51183225843E+02  0.00000000000E+00 0.  1.
</event>
<event>
12    1  0.9873238E-001  0.2652698E+03  0.7818608E-02  0.1105145E+00
         21   -1    0    0  503  502  0.00000000000E+00  0.00000000000E+00  0.19076712838E+03  0.19076712838E+03  0.00000000000E+00 0.  1.
         21   -1    0    0  501  503 -0.00000000000E+00 -0.00000000000E+00 -0.54775970887E+03  0.54775970887E+03  0.00000000000E+00 0.  1.
          6    2    1    2  501    0 -0.10716720035E+03 -0.16187612855E+03  0.40295531509E+02  0.26081782275E+03  0.16945063287E+03 0.  0.
         24    2    3    3    0    0 -0.27570280275E+02 -0.78643933030E+02  0.78648215114E+02  0.13934236681E+03  0.79282815867E+02 0.  0.
         -6    2    1    2    0  502  0.10716720035E+03  0.16187612855E+03 -0.39728811200E+03  0.47770901450E+03  0.18077435872E+03 0.  0.
        -24    2    5    5    0    0  0.14747331985E+03  0.12508350875E+03 -0.29351424688E+03  0.36036599075E+03  0.79490690888E+02 0.  0.
          5    1    3    3  501    0 -0.79596920071E+02 -0.83232195518E+02 -0.38352683605E+02  0.12147545594E+03  0.47000000000E+01 0. -1.
        -13    1    4    4    0    0  0.26046660634E+02 -0.16741017529E+02  0.34310021774E+02  0.46215449714E+02  0.00000000000E+00 0.  1.
         14    1    4    4    0    0 -0.53616940909E+02 -0.61902915500E+02  0.44338193339E+02  0.93126917100E+02  0.00000000000E+00 0. -1.
         -5    1    5    5    0  502 -0.40306119500E+02  0.36792619796E+02 -0.10377386512E+03  0.11734302375E+03  0.47000000000E+01 0.  1.
         13    1    6    6    0    0  0.58404460241E+02  0.10029220611E+03 -0.17641380029E+03  0.21116684521E+03  0.00000000000E+00 0. -1.
        -14    1    6    6    0    0  0.89068859605E+02  0.24791302640E+02 -0.11710044660E+03  0.14919914554E+03  0.00000000000E+00 0.  1.
</event>
<event>
12    1  0.9873238E-001  0.1747565E+03  0.7818608E-02  0.1173216E+00
         21   -1    0    0  503  502  0.00000000000E+00  0.00000000000E+00  0.24805025241E+02  0.24805025241E+02  0.00000000000E+00 0. -1.
         21   -1    0    0  501  503 -0.00000000000E+00 -0.00000000000E+00 -0.14472026085E+04  0.14472026085E+04  0.00000000000E+00 0. -1.
          6    2    1    2  501    0  0.76390853117E+01 -0.17598722066E+02 -0.99827556309E+03  0.10132927677E+04  0.17274276389E+03 0.  0.
         24    2    3    3    0    0 -0.39623567149E+02  0.40275940075E+02 -0.62559450091E+03  0.63316581657E+03  0.79613398859E+02 0.  0.
         -6    2    1    2    0  502 -0.76390853117E+01  0.17598722066E+02 -0.42412202012E+03  0.45871486603E+03  0.17370022951E+03 0.  0.
        -24    2    5    5    0    0  0.59867128810E+02  0.49633689631E+01 -0.14562872625E+03  0.17183972625E+03  0.68647341301E+02 0.  0.
          5    1    3    3  501    0  0.47262652461E+02 -0.57874662141E+02 -0.37268106219E+03  0.38012695109E+03  0.47000000000E+01 0. -1.
        -13    1    4    4    0    0 -0.51425131862E+02  0.21679727989E+02 -0.21980962754E+03  0.22678365715E+03  0.00000000000E+00 0.  1.
         14    1    4    4    0    0  0.11801564713E+02  0.18596212086E+02 -0.40578487337E+03  0.40638215942E+03  0.00000000000E+00 0. -1.
         -5    1    5    5    0  502 -0.67506214121E+02  0.12635353103E+02 -0.27849329387E+03  0.28687513978E+03  0.47000000000E+01 0.  1.
         13    1    6    6    0    0  0.16989493738E+02 -0.19242629569E+02 -0.99977478973E+01  0.27547715934E+02  0.00000000000E+00 0. -1.
        -14    1    6    6    0    0  0.42877635072E+02  0.24205998532E+02 -0.13563097835E+03  0.14429201032E+03  0.00000000000E+00 0.  1.
</event>
<event>
12    1  0.9873238E-001  0.3176143E+03  0.7818608E-02  0.1077333E+00
         21   -1    0    0  503  502  0.00000000000E+00  0.00000000000E+00  0.45884515435E+03  0.45884515435E+03  0.00000000000E+00 0. -1.
         21   -1    0    0  501  503 -0.00000000000E+00 -0.00000000000E+00 -0.46250806319E+03  0.46250806319E+03  0.00000000000E+00 0. -1.
          6    2    1    2  501    0  0.53560931635E+02  0.25624461827E+03  0.33417883438E+03  0.46103615135E+03  0.17985761511E+03 0.  0.
         24    2    3    3    0    0  0.72227861118E+01  0.43001345559E+02  0.15977332771E+03  0.18164522837E+03  0.74606892324E+02 0.  0.
         -6    2    1    2    0  502 -0.53560931635E+02 -0.25624461827E+03 -0.33784174322E+03  0.46031706620E+03  0.17095227457E+03 0.  0.
        -24    2    5    5    0    0 -0.51498260190E+01 -0.22679008169E+03 -0.20693855209E+03  0.31759726967E+03  0.81143080416E+02 0.  0.
          5    1    3    3  501    0  0.46338145524E+02  0.21324327271E+03  0.17440550667E+03  0.27939092298E+03  0.47000000000E+01 0. -1.
        -13    1    4    4    0    0  0.76316048432E+01  0.49591632770E+02  0.16547896024E+03  0.17291864479E+03  0.00000000000E+00 0.  1.
         14    1    4    4    0    0 -0.40881873142E+00 -0.65902872113E+01 -0.57056325344E+01  0.87265835755E+01  0.00000000000E+00 0. -1.
         -5    1    5    5    0  502 -0.48411105616E+02 -0.29454536579E+02 -0.13090319113E+03  0.14271979653E+03  0.47000000000E+01 0.  1.
         13    1    6    6    0    0  0.10371817976E+02 -0.18058017607E+03 -0.11736528260E+03  0.21561860809E+03  0.00000000000E+00 0. -1.
        -14    1    6    6    0    0 -0.15521643995E+02 -0.46209905626E+02 -0.89573269486E+02  0.10197866158E+03  0.00000000000E+00 0.  1.
</event>
<event>
12    1  0.9873238E-001  0.2542617E+03  0.7818608E-02  0.1110787E+00
         21   -1    0    0  501  502  0.00000000000E+00  0.00000000000E+00  0.31962707598E+03  0.31962707598E+03  0.00000000000E+00 0. -1.
         21   -1    0    0  502  503 -0.00000000000E+00 -0.00000000000E+00 -0.21591686571E+03  0.21591686571E+03  0.00000000000E+00 0. -1.
         -6    2    1    2    0  503 -0.87064627875E+02 -0.16628366951E+03  0.12111069921E+03  0.28163242580E+03  0.17151826032E+03 0.  0.
        -24    2    3    3    0    0 -0.81453932162E+02 -0.94302951507E+02  0.98412261778E+01  0.14890831608E+03  0.80926183268E+02 0.  0.
          6    2    1    2  501    0  0.87064627875E+02  0.16628366951E+03 -0.17400488935E+02  0.25391151590E+03  0.17011105995E+03 0.  0.
         24    2    5    5    0    0  0.38009018661E+02  0.17642754069E+02  0.23504697421E+02  0.92060044450E+02  0.78527884936E+02 0.  0.
          5    1    5    5  501    0  0.49055609214E+02  0.14864091545E+03 -0.40905186356E+02  0.16185147145E+03  0.47000000000E+01 0. -1.
        -11    1    6    6    0    0  0.27846367789E+02  0.46522030865E+02  0.12903501802E+01  0.54234532896E+02  0.00000000000E+00 0.  1.
         12    1    6    6    0    0  0.10162650873E+02 -0.28879276796E+02  0.22214347240E+02  0.37825511554E+02  0.00000000000E+00 0. -1.
         -5    1    3    3    0  503 -0.56106957130E+01 -0.71980718008E+02  0.11126947303E+03  0.13272410971E+03  0.47000000000E+01 0.  1.
         11    1    4    4    0    0 -0.87342701264E+02 -0.44100043009E+02  0.10063347891E+02  0.98360725029E+02  0.00000000000E+00 0. -1.
        -12    1    4    4    0    0  0.58887691022E+01 -0.50202908499E+02 -0.22212171315E+00  0.50547591053E+02  0.00000000000E+00 0.  1.
</event>
<event>
12    1  0.9873238E-001  0.2350292E+03  0.7818608E-02  0.1123360E+00
         21   -1    0    0  503  502  0.00000000000E+00  0.00000000000E+00  0.30764118617E+03  0.30764118617E+03  0.00000000000E+00 0.  1.
         21   -1    0    0  501  503 -0.00000000000E+00 -0.00000000000E+00 -0.22471928932E+03  0.22471928932E+03  0.00000000000E+00 0.  1.
          6    2    1    2  501    0  0.67534542612E+02 -0.14282694754E+03  0.16210849586E+03  0.28551339967E+03  0.17400656761E+03 0.  0.
         24    2    3    3    0    0  0.13129963274E+02 -0.11445360400E+03  0.17320244649E+03  0.22298284220E+03  0.80313367775E+02 0.  0.
         -6    2    1    2    0  502 -0.67534542612E+02  0.14282694754E+03 -0.79186599007E+02  0.24684707582E+03  0.17234416146E+03 0.  0.
        -24    2    5    5    0    0 -0.42465910162E+02  0.25473467615E+01 -0.41616452782E+02  0.99400785212E+02  0.79616232372E+02 0.  0.
          5    1    3    3  501    0  0.54404579337E+02 -0.28373343545E+02 -0.11093950628E+02  0.62530557468E+02  0.47000000000E+01 0. -1.
        -13    1    4    4    0    0  0.11745245539E+02  0.83141927608E+01  0.61100975142E+01  0.15633613967E+02  0.00000000000E+00 0.  1.
         14    1    4    4    0    0  0.13847177355E+01 -0.12276779676E+03  0.16709234897E+03  0.20734922823E+03  0.00000000000E+00 0. -1.
         -5    1    5    5    0  502 -0.25068632450E+02  0.14027960078E+03 -0.37570146225E+02  0.14744629061E+03  0.47000000000E+01 0.  1.
         11    1    6    6    0    0 -0.37156118858E+02  0.37380151950E+02 -0.13726666200E+02  0.54463513414E+02  0.00000000000E+00 0. -1.
        -12    1    6    6    0    0 -0.53097913038E+01 -0.34832805189E+02 -0.27889786582E+02  0.44937271798E+02  0.00000000000E+00 0.  1.
</event>
<event>
12    1  0.9873238E-001  0.1899605E+03  0.7818608E-02  0.1158665E+00
         21   -1    0    0  501  502  0.00000000000E+00  0.00000000000E+00  0.10340859322E+03  0.10340859322E+03  0.00000000000E+00 0.  1.
         21   -1    0    0  502  503 -0.00000000000E+00 -0.00000000000E+00 -0.43264875149E+03  0.43264875149E+03  0.00000000000E+00 0.  1.
         -6    2    1    2    0  503  0.71768315676E+02 -0.38838799631E+02 -0.45517724821E+02  0.19461419439E+03  0.17071519526E+03 0.  0.
        -24    2    3    3    0    0  0.74160256294E+02  0.35507467358E+02 -0.10651796932E+02  0.11232925213E+03  0.75788364899E+02 0.  0.
          6    2    1    2  501    0 -0.71768315676E+02  0.38838799631E+02 -0.28372243345E+03  0.34144315032E+03  0.17153968101E+03 0.  0.
         24    2    5    5    0    0 -0.56978323328E+02 -0.11974748879E+02 -0.69262075935E+02  0.12049950245E+03  0.79579965997E+02 0.  0.
          5    1    5    5  501    0 -0.14789992348E+02  0.50813548510E+02 -0.21446035752E+03  0.22094364787E+03  0.47000000000E+01 0. -1.
        -13    1    6    6    0    0  0.40434571264E-01 -0.62475663957E+01  0.16335989976E+02  0.17489948237E+02  0.00000000000E+00 0.  1.
         14    1    6    6    0    0 -0.57018757899E+02 -0.57271824831E+01 -0.85598065912E+02  0.10300955421E+03  0.00000000000E+00 0. -1.
         -5    1    3    3    0  503 -0.23919406174E+01 -0.74346266989E+02 -0.34865927889E+02  0.82284942260E+02  0.47000000000E+01 0.  1.
         11    1    4    4    0    0 -0.28531545163E+00  0.10498565909E+02  0.24221625193E+02  0.26400538215E+02  0.00000000000E+00 0. -1.
        -12    1    4    4    0    0  0.74445571745E+02  0.25008901450E+02 -0.34873422125E+02  0.85928713914E+02  0.00000000000E+00 0.  1.
</event>
<event>
12    1  0.9873238E-001  0.2207194E+03  0.7818608E-02  0.1134369E+00
         21   -1    0    0  503  502  0.00000000000E+00  0.00000000000E+00  0.80187294218E+03  0.80187294218E+03  0.00000000000E+00 0.  1.
         21   -1    0    0  501  503 -0.00000000000E+00 -0.00000000000E+00 -0.84826512029E+02  0.84826512029E+02  0.00000000000E+00 0.  1.
          6    2    1    2  501    0  0.13444457758E+03  0.10162593867E+02  0.11830137109E+03  0.25042419663E+03  0.17475251387E+03 0.  0.
         24    2    3    3    0    0  0.53623886908E+02 -0.58081464548E+02  0.69365210476E+02  0.13377912231E+03  0.82682182907E+02 0.  0.
         -6    2    1    2    0  502 -0.13444457758E+03 -0.10162593867E+02  0.59874505907E+03  0.63627525758E+03  0.16784497280E+03 0.  0.
        -24    2    5    5    0    0 -0.14368164059E+03  0.32390685243E+02  0.41280071431E+03  0.44524255294E+03  0.78376851662E+02 0.  0.
          5    1    3    3  501    0  0.80820690669E+02  0.68244058415E+02  0.48936160610E+02  0.11664507433E+03  0.47000000000E+01 0. -1.
        -11    1    4    4    0    0 -0.14144101178E+02 -0.15844845743E+02 -0.79037645866E+01  0.22662396815E+02  0.00000000000E+00 0.  1.
         12    1    4    4    0    0  0.67767988086E+02 -0.42236618805E+02  0.77268975062E+02  0.11111672549E+03  0.00000000000E+00 0. -1.
         -5    1    5    5    0  502  0.92370630097E+01 -0.42553279110E+02  0.18594434475E+03  0.19103270464E+03  0.47000000000E+01 0.  1.
         11    1    6    6    0    0 -0.93089382359E+02 -0.16878814966E+02  0.20519617020E+03  0.22595573851E+03  0.00000000000E+00 0. -1.
        -12    1    6    6    0    0 -0.50592258228E+02  0.49269500210E+02  0.20760454411E+03  0.21928681442E+03  0.00000000000E+00 0.  1.
</event>
<event>
12    1  0.9873238E-001  0.1924441E+03  0.7818608E-02  0.1156848E+00
         21   -1    0    0  503  502  0.00000000000E+00  0.00000000000E+00  0.38850209772E+03  0.38850209772E+03  0.00000000000E+00 0.  1.
         21   -1    0    0  501  503 -0.00000000000E+00 -0.00000000000E+00 -0.17423901795E+03  0.17423901795E+03  0.00000000000E+00 0.  1.
          6    2    1    2  501    0 -0.76292088953E+02  0.32137565142E+02 -0.83346112743E+02  0.20971724476E+03  0.17372807002E+03 0.  0.
         24    2    3    3    0    0 -0.60065911342E+01  0.11727575427E+02  0.19027821101E+02  0.83784202180E+02  0.80524029933E+02 0.  0.
         -6    2    1    2    0  502  0.76292088953E+02 -0.32137565142E+02  0.29760919251E+03  0.35302387090E+03  0.17088392562E+03 0.  0.
        -24    2    5    5    0    0  0.86642099771E+02 -0.76932536357E+02  0.24955320744E+03  0.28635168877E+03  0.79341147668E+02 0.  0.
          5    1    3    3  501    0 -0.70285497818E+02  0.20409989715E+02 -0.10237393384E+03  0.12593304258E+03  0.47000000000E+01 0. -1.
        -11    1    4    4    0    0 -0.24969434408E+02 -0.13081231353E+02 -0.19437028507E+02  0.34240171518E+02  0.00000000000E+00 0.  1.
         12    1    4    4    0    0  0.18962843274E+02  0.24808806780E+02  0.38464849608E+02  0.49544030662E+02  0.00000000000E+00 0. -1.
         -5    1    5    5    0  502 -0.10350010819E+02  0.44794971216E+02  0.48055985067E+02  0.66672182137E+02  0.47000000000E+01 0.  1.
         13    1    6    6    0    0 -0.89426052742E+01  0.70510644656E+01  0.36085757439E+02  0.37840052711E+02  0.00000000000E+00 0. -1.
        -14    1    6    6    0    0  0.95584705046E+02 -0.83983600823E+02  0.21346745000E+03  0.24851163606E+03  0.00000000000E+00 0.  1.
</event>
<event>
12    1  0.9873238E-001  0.2160576E+03  0.7818608E-02  0.1136868E+00
         21   -1    0    0  501  502  0.00000000000E+00  0.00000000000E+00  0.12655345043E+03  0.12655345043E+03  0.00000000000E+00 0.  1.
         21   -1    0    0  502  503 -0.00000000000E+00 -0.00000000000E+00 -0.39846475024E+03  0.39846475024E+03  0.00000000000E+00 0. -1.
         -6    2    1    2    0  503 -0.12234162903E+03 -0.47227053882E+02 -0.64306922236E+02  0.22542466559E+03  0.17170623401E+03 0.  0.
        -24    2    3    3    0    0 -0.12849549904E+03  0.12196646582E+02 -0.30070926987E+02  0.15640843805E+03  0.83063152974E+02 0.  0.
          6    2    1    2  501    0  0.12234162903E+03  0.47227053882E+02 -0.20760437757E+03  0.29959353509E+03  0.17163577676E+03 0.  0.
         24    2    5    5    0    0  0.11956362262E+03  0.91108701403E+02 -0.14794969634E+03  0.22533663438E+03  0.79317279474E+02 0.  0.
          5    1    5    5  501    0  0.27780064144E+01 -0.43881647521E+02 -0.59654681239E+02  0.74256900707E+02  0.47000000000E+01 0. -1.
        -13    1    6    6    0    0 -0.33867285439E+01  0.32878178915E+02 -0.20329339795E+02  0.38803693580E+02  0.00000000000E+00 0.  1.
         14    1    6    6    0    0  0.12295035116E+03  0.58230522489E+02 -0.12762035654E+03  0.18653294080E+03  0.00000000000E+00 0. -1.
         -5    1    3    3    0  503  0.61538700098E+01 -0.59423700464E+02 -0.34235995249E+02  0.69016227539E+02  0.47000000000E+01 0.  1.
         13    1    4    4    0    0 -0.99831306680E+02  0.25645195757E+01 -0.57795900977E+02  0.11538298282E+03  0.00000000000E+00 0. -1.
        -14    1    4    4    0    0 -0.28664192360E+02  0.96321270064E+01  0.27724973990E+02  0.41025455233E+02  0.00000000000E+00 0.  1.
</event>
<event>
12    1  0.9873238E-001  0.1927431E+03  0.7818608E-02  0.1156262E+00
         21   -1    0    0  503  502  0.00000000000E+00  0.00000000000E+00  0.66417360267E+02  0.66417360267E+02  0.00000000000E+00 0.  1.
         21   -1    0    0  501  503 -0.00000000000E+00 -0.00000000000E+00 -0.56998797354E+03  0.56998797354E+03  0.00000000000E+00 0.  1.
          6    2    1    2  501    0 -0.63334223960E+02  0.54668731465E+02 -0.20129808355E+03  0.27791041962E+03  0.17237571977E+03 0.  0.
         24    2    3    3    0    0 -0.74488169596E+02 -0.21958123821E+02 -0.98196288775E+02  0.14888268794E+03  0.80578514685E+02 0.  0.
         -6    2    1    2    0  502  0.63334223960E+02 -0.54668731465E+02 -0.30227252972E+03  0.35849491419E+03  0.17363763173E+03 0.  0.
        -24    2    5    5    0    0  0.28934114550E+02  0.35658619101E+02 -0.11675735956E+03  0.14925733118E+03  0.80850168807E+02 0.  0.
          5    1    3    3  501    0  0.11153945636E+02  0.76626855286E+02 -0.10310179478E+03  0.12902773167E+03  0.47000000000E+01 0. -1.
        -13    1    4    4    0    0 -0.41161147610E+02 -0.45405242129E+02 -0.87368592171E+02  0.10671994651E+03  0.00000000000E+00 0.  1.
         14    1    4    4    0    0 -0.33327021986E+02  0.23447118308E+02 -0.10827696604E+02  0.42162741433E+02  0.00000000000E+00 0. -1.
         -5    1    5    5    0  502  0.34400109410E+02 -0.90327350566E+02 -0.18551517015E+03  0.20923758301E+03  0.47000000000E+01 0.  1.
         13    1    6    6    0    0  0.52498063147E+02  0.18556472444E+02 -0.10292828430E+03  0.11702401896E+03  0.00000000000E+00 0. -1.
        -14    1    6    6    0    0 -0.23563948598E+02  0.17102146657E+02 -0.13829075260E+02  0.32233312215E+02  0.00000000000E+00 0.  1.
</event>
<event>
12    1  0.1325419E+000  0.2860152E+03  0.7818608E-02  0.1092809E+00
         21   -1    0    0  501  502  0.00000000000E+00  0.00000000000E+00  0.10018305868E+04  0.10018305868E+04  0.00000000000E+00 0. -1.
         21   -1    0    0  502  503 -0.00000000000E+00 -0.00000000000E+00 -0.35423287989E+03  0.35423287989E+03  0.00000000000E+00 0.  1.
         -6    2    1    2    0  503  0.12462493807E+03 -0.19037730859E+03  0.91975954410E+03  0.96320420292E+03  0.17329115021E+03 0.  0.
        -24    2    3    3    0    0  0.37783325261E+02 -0.16129358429E+03  0.72415915489E+03  0.74717427213E+03  0.80123101107E+02 0.  0.
          6    2    1    2  501    0 -0.12462493807E+03  0.19037730859E+03 -0.27216183718E+03  0.39285926378E+03  0.16879407782E+03 0.  0.
         24    2    5    5    0    0 -0.12611103537E+03  0.15595730380E+03 -0.28351660621E+03  0.35628104630E+03  0.79547747309E+02 0.  0.
          5    1    5    5  501    0  0.14860973021E+01  0.34420004792E+02  0.11354769024E+02  0.36578217489E+02  0.47000000000E+01 0. -1.
        -11    1    6    6    0    0 -0.40239285343E+02  0.22503621003E+02 -0.11937694563E+03  0.12797057549E+03  0.00000000000E+00 0.  1.
         12    1    6    6    0    0 -0.85871750031E+02  0.13345368279E+03 -0.16413966058E+03  0.22831047081E+03  0.00000000000E+00 0. -1.
         -5    1    3    3    0  503  0.86841612811E+02 -0.29083724297E+02  0.19560038921E+03  0.21602993079E+03  0.47000000000E+01 0.  1.
         13    1    4    4    0    0 -0.21684900677E+02 -0.18207463833E+02  0.13839863777E+03  0.14126545789E+03  0.00000000000E+00 0. -1.
        -14    1    4    4    0    0  0.59468225938E+02 -0.14308612046E+03  0.58576051712E+03  0.60590881425E+03  0.00000000000E+00 0.  1.
</event>
<event>
12    1  0.9873238E-001  0.1890239E+03  0.7818608E-02  0.1159956E+00
         21   -1    0    0  503  502  0.00000000000E+00  0.00000000000E+00  0.44573307007E+02  0.44573307007E+02  0.00000000000E+00 0.  1.
         21   -1    0    0  501  503 -0.00000000000E+00 -0.00000000000E+00 -0.98328690240E+03  0.98328690240E+03  0.00000000000E+00 0.  1.
          6    2    1    2  501    0 -0.59406686871E+02 -0.41175220273E+02 -0.24437219186E+03  0.30894630754E+03  0.17465823649E+03 0.  0.
         24    2    3    3    0    0 -0.84194606526E+02 -0.57800869491E+02 -0.10677332929E+03  0.16806909094E+03  0.80106199521E+02 0.  0.
         -6    2    1    2    0  502  0.59406686871E+02  0.41175220273E+02 -0.69434140353E+03  0.71891390188E+03  0.17176338503E+03 0.  0.
        -24    2    5    5    0    0  0.73477964160E+02 -0.27799574879E+02 -0.49642410553E+03  0.50879757681E+03  0.79159674288E+02 0.  0.
          5    1    3    3  501    0  0.24787919655E+02  0.16625649218E+02 -0.13759886258E+03  0.14087721659E+03  0.47000000000E+01 0. -1.
        -13    1    4    4    0    0  0.12043191862E+02 -0.24720963406E+02 -0.29198002200E+02  0.40108450911E+02  0.00000000000E+00 0.  1.
         14    1    4    4    0    0 -0.96237798388E+02 -0.33079906085E+02 -0.77575327087E+02  0.12796064003E+03  0.00000000000E+00 0. -1.
         -5    1    5    5    0  502 -0.14071277288E+02  0.68974795152E+02 -0.19791729800E+03  0.21011632507E+03  0.47000000000E+01 0.  1.
         11    1    6    6    0    0 -0.13618822259E+02 -0.15697323098E+02 -0.14784004050E+03  0.14929352246E+03  0.00000000000E+00 0. -1.
        -12    1    6    6    0    0  0.87096786418E+02 -0.12102251781E+02 -0.34858406503E+03  0.35950405435E+03  0.00000000000E+00 0.  1.
</event>
<event>
12    1  0.9873238E-001  0.2590976E+03  0.7818608E-02  0.1107861E+00
         21   -1    0    0  503  502  0.00000000000E+00  0.00000000000E+00  0.12133793876E+03  0.12133793876E+03  0.00000000000E+00 0. -1.
         21   -1    0    0  501  503 -0.00000000000E+00 -0.00000000000E+00 -0.80216268806E+03  0.80216268806E+03  0.00000000000E+00 0. -1.
          6    2    1    2  501    0  0.11019191771E+03  0.15804072486E+03 -0.81415094291E+02  0.27048954209E+03  0.17151398007E+03 0.  0.
         24    2    3    3    0    0  0.52096665311E+02  0.17108809776E+03 -0.45686430745E+02  0.20089126848E+03  0.79277058880E+02 0.  0.
         -6    2    1    2    0  502 -0.11019191771E+03 -0.15804072486E+03 -0.59940965500E+03  0.65301108473E+03  0.17324090978E+03 0.  0.
        -24    2    5    5    0    0 -0.13806376935E+03 -0.16448999458E+03 -0.51255449831E+03  0.56144503514E+03  0.79936543660E+02 0.  0.
          5    1    3    3  501    0  0.58095252400E+02 -0.13047372902E+02 -0.35728663546E+02  0.69598273613E+02  0.47000000000E+01 0. -1.
        -13    1    4    4    0    0  0.19959811649E+02  0.12465344668E+03 -0.63983649863E+02  0.14153014979E+03  0.00000000000E+00 0.  1.
         14    1    4    4    0    0  0.32136853662E+02  0.46434651081E+02  0.18297219118E+02  0.59361118686E+02  0.00000000000E+00 0. -1.
         -5    1    5    5    0  502  0.27871851642E+02  0.64492697258E+01 -0.86855156692E+02  0.91566049593E+02  0.47000000000E+01 0.  1.
         13    1    6    6    0    0 -0.99432796979E+01  0.35210631885E+01 -0.50095985701E+01  0.11677447279E+02  0.00000000000E+00 0. -1.
        -14    1    6    6    0    0 -0.12812048966E+03 -0.16801105777E+03 -0.50754489974E+03  0.54976758786E+03  0.00000000000E+00 0.  1.
</event>
<event>
12    1  0.9873238E-001  0.1890464E+03  0.7818608E-02  0.1159593E+00
         21   -1    0    0  503  502  0.00000000000E+00  0.00000000000E+00  0.81414393310E+02  0.81414393310E+02  0.00000000000E+00 0.  1.
         21   -1    0    0  501  503 -0.00000000000E+00 -0.00000000000E+00 -0.48547243808E+03  0.48547243808E+03  0.00000000000E+00 0.  1.
          6    2    1    2  501    0 -0.41603870485E+02  0.63154564446E+02 -0.11119593472E+03  0.21830865974E+03  0.17197311990E+03 0.  0.
         24    2    3    3    0    0  0.25778841079E+02  0.17688880412E+02 -0.10590931454E+03  0.13671456316E+03  0.80601760135E+02 0.  0.
         -6    2    1    2    0  502  0.41603870485E+02 -0.63154564446E+02 -0.29286211005E+03  0.34857817166E+03  0.17326033938E+03 0.  0.
        -24    2    5    5    0    0  0.63366844927E+02  0.15648073718E+02 -0.12680058170E+03  0.16342417079E+03  0.79805092775E+02 0.  0.
          5    1    3    3  501    0 -0.67382711564E+02  0.45465684034E+02 -0.52866201814E+01  0.81594096572E+02  0.47000000000E+01 0. -1.
        -11    1    4    4    0    0  0.36146510377E+02  0.41566723559E+00 -0.83550585854E+01  0.37101886685E+02  0.00000000000E+00 0.  1.
         12    1    4    4    0    0 -0.10367669298E+02  0.17273213176E+02 -0.97554255956E+02  0.99612676478E+02  0.00000000000E+00 0. -1.
         -5    1    5    5    0  502 -0.21762974443E+02 -0.78802638163E+02 -0.16606152835E+03  0.18515400087E+03  0.47000000000E+01 0.  1.
         11    1    6    6    0    0  0.53834214975E+02  0.24532720730E+01 -0.13488301742E+03  0.14525002456E+03  0.00000000000E+00 0. -1.
        -12    1    6    6    0    0  0.95326299521E+01  0.13194801645E+02  0.80824357192E+01  0.18174146236E+02  0.00000000000E+00 0.  1.
</event>
<event>
12    1  0.9873238E-001  0.1894613E+03  0.7818608E-02  0.1159043E+00
         21   -1    0    0  501  502  0.00000000000E+00  0.00000000000E+00  0.17177316334E+04  0.17177316334E+04  0.00000000000E+00 0. -1.
         21   -1    0    0  502  503 -0.00000000000E+00 -0.00000000000E+00 -0.29506850035E+02  0.29506850035E+02  0.00000000000E+00 0. -1.
         -6    2    1    2    0  503  0.46660396210E+02  0.63638106213E+02  0.13179509336E+04  0.13314992428E+04  0.17224566442E+03 0.  0.
        -24    2    3    3    0    0  0.13089791675E+02 -0.11441431728E+02  0.33832660167E+03  0.34841743322E+03  0.81409884953E+02 0.  0.
          6    2    1    2  501    0 -0.46660396210E+02 -0.63638106213E+02  0.37027384978E+03  0.41573924070E+03  0.17178297731E+03 0.  0.
         24    2    5    5    0    0  0.18470506867E+02 -0.42013463989E+02  0.94419642371E+02  0.13143782771E+03  0.79085668153E+02 0.  0.
          5    1    5    5  501    0 -0.65130903077E+02 -0.21624642224E+02  0.27585420740E+03  0.28430141299E+03  0.47000000000E+01 0. -1.
        -11    1    6    6    0    0  0.27330622457E+02  0.11807384088E+02  0.59889688466E+02  0.66881626980E+02  0.00000000000E+00 0.  1.
         12    1    6    6    0    0 -0.88601155902E+01 -0.53820848077E+02  0.34529953905E+02  0.64556200730E+02  0.00000000000E+00 0. -1.
         -5    1    3    3    0  503  0.33570604535E+02  0.75079537941E+02  0.97962433193E+03  0.98308180953E+03  0.47000000000E+01 0.  1.
         13    1    4    4    0    0  0.28670986374E+02  0.25425057338E+02  0.10702465409E+03  0.11367821068E+03  0.00000000000E+00 0. -1.
        -14    1    4    4    0    0 -0.15581194700E+02 -0.36866489067E+02  0.23130194758E+03  0.23473922254E+03  0.00000000000E+00 0.  1.
</event>
<event>
12    1  0.9873238E-001  0.2080056E+03  0.7818608E-02  0.1143304E+00
         21   -1    0    0  503  502  0.00000000000E+00  0.00000000000E+00  0.60304953353E+03  0.60304953353E+03  0.00000000000E+00 0. -1.
         21   -1    0    0  501  503 -0.00000000000E+00 -0.00000000000E+00 -0.81047321640E+02  0.81047321640E+02  0.00000000000E+00 0. -1.
          6    2    1    2  501    0  0.38456152736E+02 -0.11129987885E+03  0.37887458335E+03  0.43221786594E+03  0.17146368425E+03 0.  0.
         24    2    3    3    0    0  0.77792060394E+02 -0.10907369263E+03  0.20825590160E+03  0.25704625267E+03  0.68946213632E+02 0.  0.
         -6    2    1    2    0  502 -0.38456152736E+02  0.11129987885E+03  0.14312762854E+03  0.25187898923E+03  0.17056074709E+03 0.  0.
        -24    2    5    5    0    0 -0.10222520559E+02 -0.10800257226E+02  0.64618316421E+02  0.10392161934E+03  0.80018939418E+02 0.  0.
          5    1    3    3  501    0 -0.39335907658E+02 -0.22261862233E+01  0.17061868175E+03  0.17517161327E+03  0.47000000000E+01 0. -1.
        -11    1    4    4    0    0  0.41148142947E+02 -0.10426240088E+03  0.13916736993E+03  0.17869352187E+03  0.00000000000E+00 0.  1.
         12    1    4    4    0    0  0.36643917447E+02 -0.48112917410E+01  0.69088531672E+02  0.78352730793E+02  0.00000000000E+00 0. -1.
         -5    1    5    5    0  502 -0.28233632177E+02  0.12210013608E+03  0.78509312118E+02  0.14795736989E+03  0.47000000000E+01 0.  1.
         11    1    6    6    0    0 -0.44805683778E+02 -0.12880234599E+02  0.39881378688E+02  0.61351235588E+02  0.00000000000E+00 0. -1.
        -12    1    6    6    0    0  0.34583163219E+02  0.20799773726E+01  0.24736937734E+02  0.42570383749E+02  0.00000000000E+00 0.  1.
</event>
<event>
12    1  0.9873238E-001  0.5619250E+03  0.7818608E-02  0.9987901E-01
         21   -1    0    0  503  502  0.00000000000E+00  0.00000000000E+00  0.25897770293E+03  0.25897770293E+03  0.00000000000E+00 0. -1.
         21   -1    0    0  501  503 -0.00000000000E+00 -0.00000000000E+00 -0.14536495259E+04  0.14536495259E+04  0.00000000000E+00 0. -1.
          6    2    1    2  501    0  0.39869318592E+03 -0.35542235180E+03 -0.25278393466E+03  0.61585354210E+03  0.17347784596E+03 0.  0.
         24    2    3    3    0    0  0.40987177498E+03 -0.32507783472E+03 -0.23681969564E+03  0.57948463370E+03  0.77771472340E+02 0.  0.
         -6    2    1    2    0  502 -0.39869318592E+03  0.35542235180E+03 -0.94188788834E+03  0.10967736868E+04  0.17458070081E+03 0.  0.
        -24    2    5    5    0    0 -0.29895700677E+03  0.21797343324E+03 -0.75250471636E+03  0.84235751888E+03  0.80094519020E+02 0.  0.
          5    1    3    3  501    0 -0.11178589058E+02 -0.30344517089E+02 -0.15964239020E+02  0.36368908399E+02  0.47000000000E+01 0. -1.
        -11    1    4    4    0    0  0.36135728168E+03 -0.25804417716E+03 -0.18012229813E+03  0.47917629811E+03  0.00000000000E+00 0.  1.
         12    1    4    4    0    0  0.48514493302E+02 -0.67033657552E+02 -0.56697397507E+02  0.10030833559E+03  0.00000000000E+00 0. -1.
         -5    1    5    5    0  502 -0.99736179147E+02  0.13744891856E+03 -0.18938317197E+03  0.25441616787E+03  0.47000000000E+01 0.  1.
         11    1    6    6    0    0 -0.45954335359E+02  0.33927611592E+01 -0.75732229013E+02  0.88649209122E+02  0.00000000000E+00 0. -1.
        -12    1    6    6    0    0 -0.25300267141E+03  0.21458067208E+03 -0.67677248735E+03  0.75370830976E+03  0.00000000000E+00 0.  1.
</event>
<event>
12    1  0.9873238E-001  0.2588011E+03  0.7818608E-02  0.1108057E+00
         21   -1    0    0  503  502  0.00000000000E+00  0.00000000000E+00  0.24159447589E+03  0.24159447589E+03  0.00000000000E+00 0.  1.
         21   -1    0    0  501  503 -0.00000000000E+00 -0.00000000000E+00 -0.29437816867E+03  0.29437816867E+03  0.00000000000E+00 0.  1.
          6    2    1    2  501    0 -0.15166787386E+03  0.11739714104E+03  0.40838773297E+02  0.26075786267E+03  0.17187677230E+03 0.  0.
         24    2    3    3    0    0 -0.85556605695E+02  0.11046561876E+02 -0.23737570342E+02  0.11978502974E+03  0.79643090072E+02 0.  0.
         -6    2    1    2    0  502  0.15166787386E+03 -0.11739714104E+03 -0.93622466076E+02  0.27521478189E+03  0.17376068983E+03 0.  0.
        -24    2    5    5    0    0  0.17362366725E+03 -0.68279236160E+02 -0.60939704436E+02  0.21208888901E+03  0.80379209666E+02 0.  0.
          5    1    3    3  501    0 -0.66111268163E+02  0.10635057917E+03  0.64576343639E+02  0.14097283293E+03  0.47000000000E+01 0. -1.
        -11    1    4    4    0    0 -0.27869852862E+01  0.31207467264E+02  0.68148727641E-01  0.31331740205E+02  0.00000000000E+00 0.  1.
         12    1    4    4    0    0 -0.82769620409E+02 -0.20160905389E+02 -0.23805719070E+02  0.88453289533E+02  0.00000000000E+00 0. -1.
         -5    1    5    5    0  502 -0.21955793389E+02 -0.49117904883E+02 -0.32682761640E+02  0.63125892879E+02  0.47000000000E+01 0. -1.
         13    1    6    6    0    0  0.44996231723E+02  0.55765714352E+01  0.11856162278E+02  0.46864993356E+02  0.00000000000E+00 0. -1.
        -14    1    6    6    0    0  0.12862743552E+03 -0.73855807596E+02 -0.72795866714E+02  0.16522389566E+03  0.00000000000E+00 0.  1.
</event>
<event>
12    1  0.9873238E-001  0.1849951E+03  0.7818608E-02  0.1163189E+00
         21   -1    0    0  503  502  0.00000000000E+00  0.00000000000E+00  0.11305980262E+04  0.11305980262E+04  0.00000000000E+00 0.  1.
         21   -1    0    0  501  503 -0.00000000000E+00 -0.00000000000E+00 -0.40085149700E+02  0.40085149700E+02  0.00000000000E+00 0.  1.
          6    2    1    2  501    0  0.33151744438E+02 -0.57929709850E+02  0.25486451943E+03  0.31492717489E+03  0.17253496102E+03 0.  0.
         24    2    3    3    0    0  0.14646231010E+02 -0.96344961645E+02  0.23821856217E+03  0.26891235672E+03  0.77903199664E+02 0.  0.
         -6    2    1    2    0  502 -0.33151744438E+02  0.57929709850E+02  0.83564835708E+03  0.85575600102E+03  0.17191645400E+03 0.  0.
        -24    2    5    5    0    0  0.31582879644E+02  0.40091552079E+02  0.28481844493E+03  0.30082857014E+03  0.82288949479E+02 0.  0.
          5    1    3    3  501    0  0.18505513428E+02  0.38415251795E+02  0.16645957264E+02  0.46014818167E+02  0.47000000000E+01 0. -1.
        -11    1    4    4    0    0 -0.27737527135E+02 -0.39507733192E+02  0.59338463098E+02  0.76493689912E+02  0.00000000000E+00 0.  1.
         12    1    4    4    0    0  0.42383758145E+02 -0.56837228453E+02  0.17888009907E+03  0.19241866681E+03  0.00000000000E+00 0. -1.
         -5    1    5    5    0  502 -0.64734624082E+02  0.17838157771E+02  0.55082991215E+03  0.55492743088E+03  0.47000000000E+01 0.  1.
         11    1    6    6    0    0  0.76836791787E+01 -0.22812964907E+02  0.37846596375E+02  0.44853485380E+02  0.00000000000E+00 0. -1.
        -12    1    6    6    0    0  0.23899200465E+02  0.62904516986E+02  0.24697184855E+03  0.25597508476E+03  0.00000000000E+00 0.  1.
</event>
<event>
12    1  0.9873238E-001  0.2182611E+03  0.7818608E-02  0.1137972E+00
         21   -1    0    0  503  502  0.00000000000E+00  0.00000000000E+00  0.78827324526E+02  0.78827324526E+02  0.00000000000E+00 0.  1.
         21   -1    0    0  501  503 -0.00000000000E+00 -0.00000000000E+00 -0.72711510503E+03  0.72711510503E+03  0.00000000000E+00 0.  1.
          6    2    1    2  501    0 -0.68222039388E+02  0.84396095284E+02 -0.14274832196E+03  0.26079684768E+03  0.18936991520E+03 0.  0.
         24    2    3    3    0    0 -0.34295025440E+02 -0.34399408916E+02 -0.80487108319E+02  0.12237010598E+03  0.78337731196E+02 0.  0.
         -6    2    1    2    0  502  0.68222039388E+02 -0.84396095284E+02 -0.50553945854E+03  0.54514558187E+03  0.17273278130E+03 0.  0.
        -24    2    5    5    0    0  0.12600982636E+02  0.19205999425E+02 -0.24105877151E+03  0.25566463294E+03  0.82020839041E+02 0.  0.
          5    1    3    3  501    0 -0.33927013948E+02  0.11879550420E+03 -0.62261213645E+02  0.13842674170E+03  0.47000000000E+01 0. -1.
        -13    1    4    4    0    0  0.20923112946E+02 -0.26792543688E+02 -0.17407723384E+02  0.38192222847E+02  0.00000000000E+00 0.  1.
         14    1    4    4    0    0 -0.55218138385E+02 -0.76068652277E+01 -0.63079384935E+02  0.84177883135E+02  0.00000000000E+00 0. -1.
         -5    1    5    5    0  502  0.55621056752E+02 -0.10360209471E+03 -0.26448068703E+03  0.28948094893E+03  0.47000000000E+01 0.  1.
         13    1    6    6    0    0  0.43977548600E+02  0.92597160561E+01 -0.84760035564E+02  0.95937639908E+02  0.00000000000E+00 0. -1.
        -14    1    6    6    0    0 -0.31376565964E+02  0.99462833684E+01 -0.15629873595E+03  0.15972699303E+03  0.00000000000E+00 0.  1.
</event>
<event>
12    1  0.9873238E-001  0.2179819E+03  0.7818608E-02  0.1135662E+00
         21   -1    0    0  501  502  0.00000000000E+00  0.00000000000E+00  0.19261587303E+03  0.19261587303E+03  0.00000000000E+00 0. -1.
         21   -1    0    0  502  503 -0.00000000000E+00 -0.00000000000E+00 -0.25676491700E+03  0.25676491700E+03  0.00000000000E+00 0. -1.
         -6    2    1    2    0  503  0.32275963757E+02  0.12856649784E+03  0.15909298855E+02  0.21716228487E+03  0.17127542140E+03 0.  0.
        -24    2    3    3    0    0  0.51139735851E+02  0.10874874540E+03 -0.44105832752E+02  0.15103746932E+03  0.80158782719E+02 0.  0.
          6    2    1    2  501    0 -0.32275963757E+02 -0.12856649784E+03 -0.80058342832E+02  0.23221850516E+03  0.17304627612E+03 0.  0.
         24    2    5    5    0    0 -0.13081125591E+02 -0.13493886882E+03 -0.73682631351E+01  0.15662097471E+03  0.78078321262E+02 0.  0.
          5    1    5    5  501    0 -0.19194838166E+02  0.63723709823E+01 -0.72690079697E+02  0.75597530452E+02  0.47000000000E+01 0. -1.
        -11    1    6    6    0    0 -0.30914623580E+02 -0.27882792250E+02  0.17691022697E+02  0.45234238568E+02  0.00000000000E+00 0.  1.
         12    1    6    6    0    0  0.17833497989E+02 -0.10705607657E+03 -0.25059285832E+02  0.11138673614E+03  0.00000000000E+00 0. -1.
         -5    1    3    3    0  503 -0.18863772094E+02  0.19817752437E+02  0.60015131607E+02  0.66124815547E+02  0.47000000000E+01 0.  1.
         13    1    4    4    0    0  0.98042913584E+01 -0.10839526669E+01 -0.31500664378E+02  0.33008952402E+02  0.00000000000E+00 0. -1.
        -14    1    4    4    0    0  0.41335444492E+02  0.10983269807E+03 -0.12605168374E+02  0.11802851692E+03  0.00000000000E+00 0.  1.
</event>
<event>
12    1  0.9873238E-001  0.1998511E+03  0.7818608E-02  0.1152185E+00
         21   -1    0    0  503  502  0.00000000000E+00  0.00000000000E+00  0.31804809504E+03  0.31804809504E+03  0.00000000000E+00 0.  1.
         21   -1    0    0  501  503 -0.00000000000E+00 -0.00000000000E+00 -0.25230679727E+03  0.25230679727E+03  0.00000000000E+00 0.  1.
          6    2    1    2  501    0  0.77377752410E+02 -0.97462455662E+01  0.24057714639E+03  0.31275842811E+03  0.18400588338E+03 0.  0.
         24    2    3    3    0    0  0.93077019394E+02 -0.64162491266E+02  0.20834596561E+03  0.24742441098E+03  0.70927011352E+02 0.  0.
         -6    2    1    2    0  502 -0.77377752410E+02  0.97462455662E+01 -0.17483584862E+03  0.25759646421E+03  0.17235445611E+03 0.  0.
        -24    2    5    5    0    0 -0.15956531451E+02  0.18638957476E+02 -0.17849403155E+03  0.19524969996E+03  0.75234994550E+02 0.  0.
          5    1    3    3  501    0 -0.15699266984E+02  0.54416245700E+02  0.32231180780E+02  0.65334017130E+02  0.47000000000E+01 0. -1.
        -11    1    4    4    0    0  0.10421244861E+01 -0.34200564885E+02  0.77075666214E+02  0.84329253431E+02  0.00000000000E+00 0.  1.
         12    1    4    4    0    0  0.92034894908E+02 -0.29961926380E+02  0.13127029939E+03  0.16309515755E+03  0.00000000000E+00 0. -1.
         -5    1    5    5    0  502 -0.61421220959E+02 -0.88927119096E+01  0.36581829358E+01  0.62346764243E+02  0.47000000000E+01 0.  1.
         13    1    6    6    0    0  0.19402323083E+02 -0.50047592195E+00 -0.96327409792E+01  0.21667725214E+02  0.00000000000E+00 0. -1.
        -14    1    6    6    0    0 -0.35358854534E+02  0.19139433398E+02 -0.16886129057E+03  0.17358197475E+03  0.00000000000E+00 0.  1.
</event>
<event>
12    1  0.9873238E-001  0.2014710E+03  0.7818608E-02  0.1148940E+00
         21   -1    0    0  503  502  0.00000000000E+00  0.00000000000E+00  0.16568043409E+03  0.16568043409E+03  0.00000000000E+00 0.  1.
         21   -1    0    0  501  503 -0.00000000000E+00 -0.00000000000E+00 -0.34299975556E+03  0.34299975556E+03  0.00000000000E+00 0.  1.
          6    2    1    2  501    0  0.63216465855E+02 -0.77276453500E+02  0.48706525158E+02  0.20727489464E+03  0.17499309854E+03 0.  0.
         24    2    3    3    0    0  0.21796161554E+02 -0.11160202884E+03  0.69979929958E+01  0.13904309571E+03  0.79711511457E+02 0.  0.
         -6    2    1    2    0  502 -0.63216465855E+02  0.77276453500E+02 -0.22602584663E+03  0.30140529500E+03  0.17259634031E+03 0.  0.
        -24    2    5    5    0    0 -0.91480641419E+02  0.28058662448E+02 -0.20430821245E+03  0.24045449344E+03  0.83189671529E+02 0.  0.
          5    1    3    3  501    0  0.41420304301E+02  0.34325575340E+02  0.41708532162E+02  0.68231798935E+02  0.47000000000E+01 0. -1.
        -13    1    4    4    0    0 -0.40190961169E+01 -0.47333918656E+02 -0.34129319315E+02  0.58493276757E+02  0.00000000000E+00 0.  1.
         14    1    4    4    0    0  0.25815257671E+02 -0.64268110183E+02  0.41127312311E+02  0.80549818951E+02  0.00000000000E+00 0. -1.
         -5    1    5    5    0  502  0.28264175564E+02  0.49217791051E+02 -0.21717634181E+02  0.60950801559E+02  0.47000000000E+01 0.  1.
         13    1    6    6    0    0 -0.14403052237E+02 -0.96220861069E+00  0.51969172725E+01  0.15342154617E+02  0.00000000000E+00 0. -1.
        -14    1    6    6    0    0 -0.77077589182E+02  0.29020871059E+02 -0.20950512973E+03  0.22511233883E+03  0.00000000000E+00 0.  1.
</event>
<event>
12    1  0.9873238E-001  0.1914976E+03  0.7818608E-02  0.1157817E+00
         21   -1    0    0  503  502  0.00000000000E+00  0.00000000000E+00  0.23717854195E+03  0.23717854195E+03  0.00000000000E+00 0. -1.
         21   -1    0    0  501  503 -0.00000000000E+00 -0.00000000000E+00 -0.15300391615E+03  0.15300391615E+03  0.00000000000E+00 0. -1.
          6    2    1    2  501    0  0.81739027930E+02 -0.19702617393E+02  0.27568857929E+02  0.19347192118E+03  0.17205197046E+03 0.  0.
         24    2    3    3    0    0  0.10085488886E+03 -0.42149358244E+02  0.62906958255E+02  0.14721023456E+03  0.75929511751E+02 0.  0.
         -6    2    1    2    0  502 -0.81739027930E+02  0.19702617393E+02  0.56605767870E+02  0.19671053692E+03  0.16858635936E+03 0.  0.
        -24    2    5    5    0    0 -0.76046241004E+02  0.14130412357E+02  0.10166051379E+03  0.15071621747E+03  0.79986366456E+02 0.  0.
          5    1    3    3  501    0 -0.19115860933E+02  0.22446740851E+02 -0.35338100326E+02  0.46261686617E+02  0.47000000000E+01 0. -1.
        -13    1    4    4    0    0  0.10298758812E+03 -0.45239191999E+02  0.33222399311E+02  0.11728919650E+03  0.00000000000E+00 0.  1.
         14    1    4    4    0    0 -0.21326992617E+01  0.30898337550E+01  0.29684558944E+02  0.29921038058E+02  0.00000000000E+00 0. -1.
         -5    1    5    5    0  502 -0.56927869263E+01  0.55722050360E+01 -0.45054745922E+02  0.45994319455E+02  0.47000000000E+01 0.  1.
         13    1    6    6    0    0  0.14223449592E+02  0.23665799772E+01  0.35096831322E+02  0.37943310186E+02  0.00000000000E+00 0. -1.
        -14    1    6    6    0    0 -0.90269690596E+02  0.11763832380E+02  0.66563682471E+02  0.11277290728E+03  0.00000000000E+00 0.  1.
</event>
<event>
12    1  0.9873238E-001  0.2777255E+03  0.7818608E-02  0.1097029E+00
         21   -1    0    0  501  502  0.00000000000E+00  0.00000000000E+00  0.21061717414E+03  0.21061717414E+03  0.00000000000E+00 0. -1.
         21   -1    0    0  502  503 -0.00000000000E+00 -0.00000000000E+00 -0.48523369453E+03  0.48523369453E+03  0.00000000000E+00 0.  1.
         -6    2    1    2    0  503 -0.21070882923E+02  0.21615538426E+03  0.35758439725E+02  0.27936068320E+03  0.17203660383E+03 0.  0.
        -24    2    3    3    0    0 -0.79862002251E+02  0.13181232496E+03  0.32891842591E+02  0.17640217339E+03  0.79268058215E+02 0.  0.
          6    2    1    2  501    0  0.21070882923E+02 -0.21615538426E+03 -0.31037496011E+03  0.41649018547E+03  0.17310206953E+03 0.  0.
         24    2    5    5    0    0 -0.30792356437E+02 -0.20192640967E+03 -0.21829491713E+03  0.30975179673E+03  0.81062078647E+02 0.  0.
          5    1    5    5  501    0  0.51863239360E+02 -0.14228974584E+02 -0.92080042980E+02  0.10673838874E+03  0.47000000000E+01 0. -1.
        -13    1    6    6    0    0  0.21977642961E+02 -0.79361049834E+02 -0.11272086259E+03  0.13959651101E+03  0.00000000000E+00 0.  1.
         14    1    6    6    0    0 -0.52769999399E+02 -0.12256535984E+03 -0.10557405454E+03  0.17015528573E+03  0.00000000000E+00 0. -1.
         -5    1    3    3    0  503  0.58791119328E+02  0.84343059302E+02  0.28665971343E+01  0.10295850981E+03  0.47000000000E+01 0.  1.
         11    1    4    4    0    0 -0.47706836001E+02  0.13169897113E+02  0.17620765189E+02  0.52534557741E+02  0.00000000000E+00 0. -1.
        -12    1    4    4    0    0 -0.32155166251E+02  0.11864242784E+03  0.15271077402E+02  0.12386761565E+03  0.00000000000E+00 0.  1.
</event>
<event>
12    1  0.9873238E-001  0.2543165E+03  0.7818608E-02  0.1110688E+00
         21   -1    0    0  503  502  0.00000000000E+00  0.00000000000E+00  0.22046212333E+03  0.22046212333E+03  0.00000000000E+00 0.  1.
         21   -1    0    0  501  503 -0.00000000000E+00 -0.00000000000E+00 -0.58876114164E+03  0.58876114164E+03  0.00000000000E+00 0.  1.
          6    2    1    2  501    0  0.48259737118E+02  0.18005833210E+03  0.10264342477E+03  0.27424906766E+03  0.17299385329E+03 0.  0.
         24    2    3    3    0    0 -0.28953012366E+02  0.62044779345E+02  0.76622209907E+02  0.13076317657E+03  0.80871587885E+02 0.  0.
         -6    2    1    2    0  502 -0.48259737118E+02 -0.18005833210E+03 -0.47094244308E+03  0.53497419731E+03  0.17222253601E+03 0.  0.
        -24    2    5    5    0    0  0.15095108671E+02 -0.16768762701E+03 -0.37749552032E+03  0.42130235294E+03  0.81521789560E+02 0.  0.
          5    1    3    3  501    0  0.77212749484E+02  0.11801355276E+03  0.26021214862E+02  0.14348589109E+03  0.47000000000E+01 0. -1.
        -11    1    4    4    0    0  0.20627125557E+02  0.50822585881E+02  0.35019512159E+02  0.65075185565E+02  0.00000000000E+00 0.  1.
         12    1    4    4    0    0 -0.49580137923E+02  0.11222193463E+02  0.41602697748E+02  0.65687991007E+02  0.00000000000E+00 0. -1.
         -5    1    5    5    0  502 -0.63354845789E+02 -0.12370705090E+02 -0.93446922765E+02  0.11367184438E+03  0.47000000000E+01 0.  1.
         13    1    6    6    0    0 -0.41017980065E+00 -0.27278201660E+02 -0.12664589148E+02  0.30077572235E+02  0.00000000000E+00 0. -1.
        -14    1    6    6    0    0  0.15505288472E+02 -0.14040942535E+03 -0.36483093117E+03  0.39122478070E+03  0.00000000000E+00 0.  1.
</event>
<event>
12    1  0.9873238E-001  0.3678382E+03  0.7818608E-02  0.1055534E+00
         21   -1    0    0  503  502  0.00000000000E+00  0.00000000000E+00  0.58675433937E+03  0.58675433937E+03  0.00000000000E+00 0. -1.
         21   -1    0    0  501  503 -0.00000000000E+00 -0.00000000000E+00 -0.28472228818E+03  0.28472228818E+03  0.00000000000E+00 0. -1.
          6    2    1    2  501    0 -0.17255943365E+03 -0.27532645333E+03 -0.39112381881E+02  0.36979502270E+03  0.17215448397E+03 0.  0.
         24    2    3    3    0    0 -0.21191654085E+02 -0.53525365421E+02  0.37388724528E+01  0.97827658321E+02  0.79007725059E+02 0.  0.
         -6    2    1    2    0  502  0.17255943365E+03  0.27532645333E+03  0.34114443307E+03  0.50168160485E+03  0.17240503002E+03 0.  0.
        -24    2    5    5    0    0  0.10649244658E+02  0.89085587441E+02  0.97708500604E+02  0.15500637838E+03  0.80189637399E+02 0.  0.
          5    1    3    3  501    0 -0.15136777957E+03 -0.22180108791E+03 -0.42851254333E+02  0.27196736438E+03  0.47000000000E+01 0. -1.
        -11    1    4    4    0    0 -0.45275769638E+02 -0.42390735790E+02 -0.16817765089E+02  0.64262796545E+02  0.00000000000E+00 0.  1.
         12    1    4    4    0    0  0.24084115554E+02 -0.11134629631E+02  0.20556637542E+02  0.33564861776E+02  0.00000000000E+00 0. -1.
         -5    1    5    5    0  502  0.16191018900E+03  0.18624086589E+03  0.24343593247E+03  0.34667522647E+03  0.47000000000E+01 0.  1.
         11    1    6    6    0    0  0.22623075108E+02  0.15514770661E+02 -0.52183038658E+01  0.27923866695E+02  0.00000000000E+00 0. -1.
        -12    1    6    6    0    0 -0.11973830450E+02  0.73570816780E+02  0.10292680447E+03  0.12708251168E+03  0.00000000000E+00 0.  1.
</event>
<event>
12    1  0.9873238E-001  0.3059142E+03  0.7818608E-02  0.1082515E+00
         21   -1    0    0  501  502  0.00000000000E+00  0.00000000000E+00  0.33957425240E+03  0.33957425240E+03  0.00000000000E+00 0.  1.
         21   -1    0    0  502  503 -0.00000000000E+00 -0.00000000000E+00 -0.28549591756E+03  0.28549591756E+03  0.00000000000E+00 0.  1.
         -6    2    1    2    0  503  0.11802281143E+03 -0.22205498386E+03 -0.35302407142E+02  0.30636587733E+03  0.17139425593E+03 0.  0.
        -24    2    3    3    0    0  0.69267445926E+02 -0.11235838426E+03 -0.85481623049E+02  0.17617189384E+03  0.79416891904E+02 0.  0.
          6    2    1    2  501    0 -0.11802281143E+03  0.22205498386E+03  0.89380741987E+02  0.31870429263E+03  0.17420019871E+03 0.  0.
         24    2    5    5    0    0 -0.28244387643E+02  0.18086483700E+03  0.91588469762E+02  0.21979141361E+03  0.80062369473E+02 0.  0.
          5    1    5    5  501    0 -0.89778423784E+02  0.41190146858E+02 -0.22077277747E+01  0.98912879026E+02  0.47000000000E+01 0. -1.
        -11    1    6    6    0    0 -0.41245608359E+02  0.46617125926E+02  0.46080129420E+02  0.77445044811E+02  0.00000000000E+00 0.  1.
         12    1    6    6    0    0  0.13001220715E+02  0.13424771107E+03  0.45508340342E+02  0.14234636880E+03  0.00000000000E+00 0. -1.
         -5    1    3    3    0  503  0.48755365501E+02 -0.10969659960E+03  0.50179215907E+02  0.13019398349E+03  0.47000000000E+01 0.  1.
         11    1    4    4    0    0  0.35834284793E+02 -0.34294514512E+02  0.75918956276E+01  0.50178148346E+02  0.00000000000E+00 0. -1.
        -12    1    4    4    0    0  0.33433161133E+02 -0.78063869750E+02 -0.93073518677E+02  0.12599374549E+03  0.00000000000E+00 0.  1.
</event>
<event>
12    1  0.9873238E-001  0.3085858E+03  0.7818608E-02  0.1081031E+00
         21   -1    0    0  501  502  0.00000000000E+00  0.00000000000E+00  0.54026950105E+03  0.54026950105E+03  0.00000000000E+00 0.  1.
         21   -1    0    0  502  503 -0.00000000000E+00 -0.00000000000E+00 -0.19942797147E+03  0.19942797147E+03  0.00000000000E+00 0.  1.
         -6    2    1    2    0  503  0.65474541846E+02  0.24710497805E+03  0.29656903670E+03  0.42799346256E+03  0.17285087406E+03 0.  0.
        -24    2    3    3    0    0  0.99910794008E+02  0.19175525736E+03  0.17525721011E+03  0.29019616101E+03  0.82136938639E+02 0.  0.
          6    2    1    2  501    0 -0.65474541846E+02 -0.24710497805E+03  0.44272492882E+02  0.31170400997E+03  0.17277601222E+03 0.  0.
         24    2    5    5    0    0 -0.40760515215E+02 -0.40101104511E+02 -0.11561577376E+02  0.95831547218E+02  0.76029581001E+02 0.  0.
          5    1    5    5  501    0 -0.24714026631E+02 -0.20700387354E+03  0.55834070258E+02  0.21587246275E+03  0.47000000000E+01 0. -1.
        -13    1    6    6    0    0 -0.52649783326E+02 -0.46726856410E+01 -0.21657544977E+02  0.57121650272E+02  0.00000000000E+00 0.  1.
         14    1    6    6    0    0  0.11889268111E+02 -0.35428418870E+02  0.10095967600E+02  0.38709896946E+02  0.00000000000E+00 0. -1.
         -5    1    3    3    0  503 -0.34436252162E+02  0.55349720691E+02  0.12131182659E+03  0.13779730155E+03  0.47000000000E+01 0.  1.
         11    1    4    4    0    0  0.31831791684E+02  0.14397516678E+03  0.10128377324E+03  0.17888687580E+03  0.00000000000E+00 0. -1.
        -12    1    4    4    0    0  0.68079002324E+02  0.47780090575E+02  0.73973436870E+02  0.11130928522E+03  0.00000000000E+00 0.  1.
</event>
<event>
12    1  0.9873238E-001  0.3154386E+03  0.7818608E-02  0.1077815E+00
         21   -1    0    0  501  502  0.00000000000E+00  0.00000000000E+00  0.13239029982E+03  0.13239029982E+03  0.00000000000E+00 0. -1.
         21   -1    0    0  502  503 -0.00000000000E+00 -0.00000000000E+00 -0.14550423964E+04  0.14550423964E+04  0.00000000000E+00 0. -1.
         -6    2    1    2    0  503 -0.25943117037E+03  0.47019428944E+02 -0.12138007798E+04  0.12541187499E+04  0.17316508534E+03 0.  0.
        -24    2    3    3    0    0 -0.23738303470E+03  0.80162219523E+02 -0.90004424298E+03  0.93781222247E+03  0.81458202129E+02 0.  0.
          6    2    1    2  501    0  0.25943117037E+03 -0.47019428944E+02 -0.10885131670E+03  0.33331394631E+03  0.17243612962E+03 0.  0.
         24    2    5    5    0    0  0.17572335805E+03 -0.97356575215E+02 -0.86176457023E+02  0.23292935885E+03  0.80453111605E+02 0.  0.
          5    1    5    5  501    0  0.83707812322E+02  0.50337146270E+02 -0.22674859677E+02  0.10038458746E+03  0.47000000000E+01 0. -1.
        -13    1    6    6    0    0  0.14344156211E+03 -0.68546838359E+02 -0.29610290095E+02  0.16171246108E+03  0.00000000000E+00 0.  1.
         14    1    6    6    0    0  0.32281795942E+02 -0.28809736855E+02 -0.56566166928E+02  0.71216897770E+02  0.00000000000E+00 0. -1.
         -5    1    3    3    0  503 -0.22048135674E+02 -0.33142790578E+02 -0.31375653686E+03  0.31630652740E+03  0.47000000000E+01 0.  1.
         11    1    4    4    0    0 -0.18247028617E+02 -0.43987528151E+01 -0.22123212995E+02  0.29012749489E+02  0.00000000000E+00 0. -1.
        -12    1    4    4    0    0 -0.21913600608E+03  0.84560972338E+02 -0.87792102998E+03  0.90879947298E+03  0.00000000000E+00 0.  1.
</event>
<event>
12    1  0.9873238E-001  0.2680000E+03  0.7818608E-02  0.1102512E+00
         21   -1    0    0  503  502  0.00000000000E+00  0.00000000000E+00  0.46241330072E+03  0.46241330072E+03  0.00000000000E+00 0.  1.
         21   -1    0    0  501  503 -0.00000000000E+00 -0.00000000000E+00 -0.36610735860E+03  0.36610735860E+03  0.00000000000E+00 0.  1.
          6    2    1    2  501    0  0.85843007500E+02  0.18650787036E+03  0.36274978550E+03  0.45101155168E+03  0.17224925319E+03 0.  0.
         24    2    3    3    0    0  0.88428283950E+02  0.15851031032E+03  0.18541876245E+03  0.27140384372E+03  0.79591764882E+02 0.  0.
         -6    2    1    2    0  502 -0.85843007500E+02 -0.18650787036E+03 -0.26644384338E+03  0.37750910764E+03  0.17136684929E+03 0.  0.
        -24    2    5    5    0    0 -0.18326757072E+02 -0.16142354880E+02 -0.83814962755E+02  0.11874618338E+03  0.80493865847E+02 0.  0.
          5    1    3    3  501    0 -0.25852764506E+01  0.27997560041E+02  0.17733102305E+03  0.17960770796E+03  0.47000000000E+01 0. -1.
        -11    1    4    4    0    0  0.71438650420E+02  0.60743304101E+02  0.59390331698E+02  0.11099748315E+03  0.00000000000E+00 0.  1.
         12    1    4    4    0    0  0.16989633530E+02  0.97767006216E+02  0.12602843075E+03  0.16040636057E+03  0.00000000000E+00 0. -1.
         -5    1    5    5    0  502 -0.67516250427E+02 -0.17036551548E+03 -0.18262888062E+03  0.25876292426E+03  0.47000000000E+01 0.  1.
         11    1    6    6    0    0 -0.31476120001E+00 -0.47616475733E+02 -0.51952454856E+02  0.70473295662E+02  0.00000000000E+00 0. -1.
        -12    1    6    6    0    0 -0.18011995872E+02  0.31474120852E+02 -0.31862507899E+02  0.48272887715E+02  0.00000000000E+00 0.  1.
</event>
<event>
12    1  0.9873238E-001  0.1810844E+03  0.7818608E-02  0.1167201E+00
         21   -1    0    0  503  502  0.00000000000E+00  0.00000000000E+00  0.37844288957E+03  0.37844288957E+03  0.00000000000E+00 0. -1.
         21   -1    0    0  501  503 -0.00000000000E+00 -0.00000000000E+00 -0.86371244313E+02  0.86371244313E+02  0.00000000000E+00 0. -1.
          6    2    1    2  501    0  0.25991349482E+02  0.43180113658E+02  0.16465140303E+03  0.24339260135E+03  0.17201686374E+03 0.  0.
         24    2    3    3    0    0  0.23579813913E+02  0.35772140523E+02  0.12892801471E+02  0.91361496915E+02  0.79655791548E+02 0.  0.
         -6    2    1    2    0  502 -0.25991349482E+02 -0.43180113658E+02  0.12742024223E+03  0.22142153253E+03  0.17392959632E+03 0.  0.
        -24    2    5    5    0    0 -0.12295522566E+02 -0.26523797317E+02  0.16042095100E+03  0.18172083570E+03  0.80205292274E+02 0.  0.
          5    1    3    3  501    0  0.24115355691E+01  0.74079731352E+01  0.15175860156E+03  0.15203110444E+03  0.47000000000E+01 0. -1.
        -11    1    4    4    0    0 -0.21086985602E+02  0.27797815553E+02  0.26699260170E+02  0.43934382947E+02  0.00000000000E+00 0.  1.
         12    1    4    4    0    0  0.44666799515E+02  0.79743249695E+01 -0.13806458699E+02  0.47427113969E+02  0.00000000000E+00 0. -1.
         -5    1    5    5    0  502 -0.13695826916E+02 -0.16656316341E+02 -0.33000708774E+02  0.39700696827E+02  0.47000000000E+01 0.  1.
         13    1    6    6    0    0  0.31877561476E+02 -0.23029504608E+02  0.93790905514E+02  0.10170187297E+03  0.00000000000E+00 0. -1.
        -14    1    6    6    0    0 -0.44173084042E+02 -0.34942927086E+01  0.66630045489E+02  0.80018962735E+02  0.00000000000E+00 0.  1.
</event>
<event>
12    1  0.9873238E-001  0.1719513E+03  0.7818608E-02  0.1175871E+00
         21   -1    0    0  501  502  0.00000000000E+00  0.00000000000E+00  0.66694285767E+02  0.66694285767E+02  0.00000000000E+00 0. -1.
         21   -1    0    0  502  503 -0.00000000000E+00 -0.00000000000E+00 -0.47841926858E+03  0.47841926858E+03  0.00000000000E+00 0. -1.
         -6    2    1    2    0  503 -0.75213178525E+01 -0.62131567605E+01 -0.28003702778E+03  0.32852881111E+03  0.17150880228E+03 0.  0.
        -24    2    3    3    0    0  0.19912419145E+01  0.39462356952E+02 -0.26630710577E+03  0.27966837614E+03  0.75721089354E+02 0.  0.
          6    2    1    2  501    0  0.75213178525E+01  0.62131567605E+01 -0.13168795503E+03  0.21658474324E+03  0.17167428452E+03 0.  0.
         24    2    5    5    0    0  0.95204116817E+01  0.65841436230E+02 -0.37469575510E+02  0.10496610175E+03  0.72029025152E+02 0.  0.
          5    1    5    5  501    0 -0.19990938292E+01 -0.59628279469E+02 -0.94218379520E+02  0.11161864149E+03  0.47000000000E+01 0. -1.
        -11    1    6    6    0    0  0.40349681391E+02  0.27412035420E+02 -0.19053644195E+02  0.52369436042E+02  0.00000000000E+00 0.  1.
         12    1    6    6    0    0 -0.30829269709E+02  0.38429400809E+02 -0.18415931315E+02  0.52596665708E+02  0.00000000000E+00 0. -1.
         -5    1    3    3    0  503 -0.95125597670E+01 -0.45675513713E+02 -0.13729922018E+02  0.48860434964E+02  0.47000000000E+01 0.  1.
         13    1    4    4    0    0 -0.27142896912E+02 -0.64719006552E+01 -0.12891840193E+03  0.13190366449E+03  0.00000000000E+00 0. -1.
        -14    1    4    4    0    0  0.29134138827E+02  0.45934257608E+02 -0.13738870384E+03  0.14776471165E+03  0.00000000000E+00 0.  1.
</event>
<event>
12    1  0.9873238E-001  0.2082114E+03  0.7818608E-02  0.1143098E+00
         21   -1    0    0  501  502  0.00000000000E+00  0.00000000000E+00  0.13853512964E+03  0.13853512964E+03  0.00000000000E+00 0.  1.
         21   -1    0    0  502  503 -0.00000000000E+00 -0.00000000000E+00 -0.31596903823E+03  0.31596903823E+03  0.00000000000E+00 0.  1.
         -6    2    1    2    0  503  0.80637316270E+02 -0.85301927117E+02 -0.63762529212E+02  0.21775597734E+03  0.17196863084E+03 0.  0.
        -24    2    3    3    0    0  0.10475675183E+03 -0.71410801071E+02 -0.21992246893E+01  0.15002975629E+03  0.80191094382E+02 0.  0.
          6    2    1    2  501    0 -0.80637316270E+02  0.85301927117E+02 -0.11367137938E+03  0.23674819053E+03  0.17131762223E+03 0.  0.
         24    2    5    5    0    0 -0.54271036045E+02 -0.19665890717E+02 -0.61943870950E+02  0.11670133034E+03  0.80312295099E+02 0.  0.
          5    1    5    5  501    0 -0.26366280225E+02  0.10496781783E+03 -0.51727508431E+02  0.12004686019E+03  0.47000000000E+01 0. -1.
        -13    1    6    6    0    0  0.18710758922E+02 -0.44832501818E+01  0.81308730500E+00  0.19257547679E+02  0.00000000000E+00 0.  1.
         14    1    6    6    0    0 -0.72981794967E+02 -0.15182640535E+02 -0.62756958255E+02  0.97443782663E+02  0.00000000000E+00 0. -1.
         -5    1    3    3    0  503 -0.24119435563E+02 -0.13891126046E+02 -0.61563304522E+02  0.67726221055E+02  0.47000000000E+01 0.  1.
         13    1    4    4    0    0  0.39163132602E+02  0.82435020688E+01  0.19605037308E+02  0.44565275376E+02  0.00000000000E+00 0. -1.
        -14    1    4    4    0    0  0.65593619231E+02 -0.79654303140E+02 -0.21804261997E+02  0.10546448091E+03  0.00000000000E+00 0.  1.
</event>
<event>
12    1  0.9873238E-001  0.2554002E+03  0.7818608E-02  0.1109978E+00
         21   -1    0    0  503  502  0.00000000000E+00  0.00000000000E+00  0.16305670151E+04  0.16305670151E+04  0.00000000000E+00 0. -1.
         21   -1    0    0  501  503 -0.00000000000E+00 -0.00000000000E+00 -0.40014490097E+02  0.40014490097E+02  0.00000000000E+00 0. -1.
          6    2    1    2  501    0  0.52604243525E+02  0.18101806471E+03  0.76617975866E+03  0.80762656912E+03  0.17232094007E+03 0.  0.
         24    2    3    3    0    0  0.96543824335E+02  0.15602791411E+03  0.53385872977E+03  0.56982340503E+03  0.77641158988E+02 0.  0.
         -6    2    1    2    0  502 -0.52604243525E+02 -0.18101806471E+03  0.82437276639E+03  0.86295493612E+03  0.17194771770E+03 0.  0.
        -24    2    5    5    0    0 -0.34233714463E+02 -0.11213705357E+03  0.73067380438E+03  0.74512601134E+03  0.87074097051E+02 0.  0.
          5    1    3    3  501    0 -0.43939580810E+02  0.24990150597E+02  0.23232102889E+03  0.23780316409E+03  0.47000000000E+01 0. -1.
        -11    1    4    4    0    0  0.51907160839E+02  0.14375379503E+03  0.41726196767E+03  0.44437265510E+03  0.00000000000E+00 0.  1.
         12    1    4    4    0    0  0.44636663496E+02  0.12274119084E+02  0.11659676209E+03  0.12545074993E+03  0.00000000000E+00 0. -1.
         -5    1    5    5    0  502 -0.18370529062E+02 -0.68881011135E+02  0.93698962005E+02  0.11782892478E+03  0.47000000000E+01 0.  1.
         11    1    6    6    0    0  0.13446955139E+02 -0.28274313274E+02  0.38417303508E+03  0.38544672560E+03  0.00000000000E+00 0. -1.
        -12    1    6    6    0    0 -0.47680669602E+02 -0.83862740298E+02  0.34650076930E+03  0.35967928574E+03  0.00000000000E+00 0.  1.
</event>
<event>
12    1  0.9873238E-001  0.2257932E+03  0.7818608E-02  0.1129921E+00
         21   -1    0    0  501  502  0.00000000000E+00  0.00000000000E+00  0.22008894414E+03  0.22008894414E+03  0.00000000000E+00 0.  1.
         21   -1    0    0  502  503 -0.00000000000E+00 -0.00000000000E+00 -0.27062057527E+03  0.27062057527E+03  0.00000000000E+00 0.  1.
         -6    2    1    2    0  503  0.65086907595E+02  0.12898780460E+03  0.69825802034E+02  0.23484146869E+03  0.17146636263E+03 0.  0.
        -24    2    3    3    0    0  0.54693814349E+02  0.16252554996E+03  0.54976331322E+02  0.19643061695E+03  0.78464148200E+02 0.  0.
          6    2    1    2  501    0 -0.65086907595E+02 -0.12898780460E+03 -0.12035743317E+03  0.25586805071E+03  0.17351768896E+03 0.  0.
         24    2    5    5    0    0 -0.80328090672E+02 -0.21201883440E+02 -0.49020570822E+02  0.12563312302E+03  0.80489398209E+02 0.  0.
          5    1    5    5  501    0  0.15241183077E+02 -0.10778592116E+03 -0.71336862350E+02  0.13023492769E+03  0.47000000000E+01 0. -1.
        -13    1    6    6    0    0 -0.45217621531E+01  0.18716168113E+02 -0.33391380364E+02  0.38545110772E+02  0.00000000000E+00 0.  1.
         14    1    6    6    0    0 -0.75806328519E+02 -0.39918051553E+02 -0.15629190459E+02  0.87088012250E+02  0.00000000000E+00 0. -1.
         -5    1    3    3    0  503  0.10393093246E+02 -0.33537745363E+02  0.14849470712E+02  0.38410851743E+02  0.47000000000E+01 0.  1.
         11    1    4    4    0    0  0.24094749397E+02  0.83048962100E+01 -0.85112036300E+01  0.26869477792E+02  0.00000000000E+00 0. -1.
        -12    1    4    4    0    0  0.30599064952E+02  0.15422065375E+03  0.63487534952E+02  0.16956113916E+03  0.00000000000E+00 0.  1.
</event>
<event>
12    1  0.9873238E-001  0.2607295E+03  0.7818608E-02  0.1107023E+00
         21   -1    0    0  501  502  0.00000000000E+00  0.00000000000E+00  0.30765503138E+03  0.30765503138E+03  0.00000000000E+00 0. -1.
         21   -1    0    0  502  503 -0.00000000000E+00 -0.00000000000E+00 -0.30746259009E+03  0.30746259009E+03  0.00000000000E+00 0. -1.
         -6    2    1    2    0  503  0.19614726659E+03 -0.36297578295E+01  0.16490344744E+03  0.30850123773E+03  0.17173509068E+03 0.  0.
        -24    2    3    3    0    0  0.15946008120E+03  0.52995468678E+02  0.14740481530E+03  0.23863953166E+03  0.83573975009E+02 0.  0.
          6    2    1    2  501    0 -0.19614726659E+03  0.36297578295E+01 -0.16471100615E+03  0.30661638374E+03  0.16851399317E+03 0.  0.
         24    2    5    5    0    0 -0.35700254965E+02  0.15720682698E+02 -0.22633093888E+02  0.91912734124E+02  0.80087737426E+02 0.  0.
          5    1    5    5  501    0 -0.16044701163E+03 -0.12090924869E+02 -0.14207791227E+03  0.21470364962E+03  0.47000000000E+01 0. -1.
        -13    1    6    6    0    0 -0.50310712294E+02  0.37307349246E+02 -0.19820419135E+02  0.65695167965E+02  0.00000000000E+00 0.  1.
         14    1    6    6    0    0  0.14610457330E+02 -0.21586666547E+02 -0.28126747529E+01  0.26217566158E+02  0.00000000000E+00 0. -1.
         -5    1    3    3    0  503  0.36687185398E+02 -0.56625226507E+02  0.17498632139E+02  0.69861706078E+02  0.47000000000E+01 0.  1.
         11    1    4    4    0    0  0.44352433578E+02  0.31825292221E+02  0.57524719958E+01  0.54891515950E+02  0.00000000000E+00 0. -1.
        -12    1    4    4    0    0  0.11510764762E+03  0.21170176457E+02  0.14165234331E+03  0.18374801571E+03  0.00000000000E+00 0.  1.
</event>
<event>
12    1  0.9873238E-001  0.3891337E+03  0.7818608E-02  0.1047666E+00
         21   -1    0    0  503  502  0.00000000000E+00  0.00000000000E+00  0.30407909056E+03  0.30407909056E+03  0.00000000000E+00 0. -1.
         21   -1    0    0  501  503 -0.00000000000E+00 -0.00000000000E+00 -0.50286922609E+03  0.50286922609E+03  0.00000000000E+00 0.  1.
          6    2    1    2  501    0  0.28949101516E+03  0.19533099485E+03 -0.56506704008E+02  0.39321496316E+03  0.17165591818E+03 0.  0.
         24    2    3    3    0    0  0.12758512374E+03  0.22833552597E+02 -0.35094976933E+02  0.15562405989E+03  0.78662924472E+02 0.  0.
         -6    2    1    2    0  502 -0.28949101516E+03 -0.19533099485E+03 -0.14228343152E+03  0.41373335349E+03  0.17021006875E+03 0.  0.
        -24    2    5    5    0    0 -0.22577861607E+03 -0.21481117283E+03 -0.11979591790E+03  0.34325977404E+03  0.79726953300E+02 0.  0.
          5    1    3    3  501    0  0.16190589142E+03  0.17249744225E+03 -0.21411727074E+02  0.23759090326E+03  0.47000000000E+01 0. -1.
        -13    1    4    4    0    0  0.68329577719E+02  0.85495066271E+01 -0.58475790701E+02  0.90340707065E+02  0.00000000000E+00 0.  1.
         14    1    4    4    0    0  0.59255546024E+02  0.14284045970E+02  0.23380813768E+02  0.65283352827E+02  0.00000000000E+00 0. -1.
         -5    1    5    5    0  502 -0.63712399091E+02  0.19480177985E+02 -0.22487513620E+02  0.70473579454E+02  0.47000000000E+01 0.  1.
         11    1    6    6    0    0 -0.17373717829E+03 -0.11276724671E+03 -0.77885824027E+02  0.22128547317E+03  0.00000000000E+00 0. -1.
        -12    1    6    6    0    0 -0.52041437772E+02 -0.10204392613E+03 -0.41910093872E+02  0.12197430087E+03  0.00000000000E+00 0.  1.
</event>
<event>
12    1  0.9873238E-001  0.1865765E+03  0.7818608E-02  0.1162370E+00
         21   -1    0    0  501  502  0.00000000000E+00  0.00000000000E+00  0.15432273150E+03  0.15432273150E+03  0.00000000000E+00 0. -1.
         21   -1    0    0  502  503 -0.00000000000E+00 -0.00000000000E+00 -0.22872986592E+03  0.22872986592E+03  0.00000000000E+00 0. -1.
         -6    2    1    2    0  503 -0.29552239169E+02 -0.49830395028E+02 -0.28815108741E+01  0.18323587777E+03  0.17381219948E+03 0.  0.
        -24    2    3    3    0    0 -0.16554354514E+02 -0.95979003486E+02  0.31196634297E+02  0.12422698821E+03  0.70520201680E+02 0.  0.
          6    2    1    2  501    0  0.29552239169E+02  0.49830395028E+02 -0.71525623545E+02  0.19981671966E+03  0.17735389345E+03 0.  0.
         24    2    5    5    0    0  0.22840858543E+02 -0.41064848617E+02 -0.57827946988E+02  0.10753072781E+03  0.77529087190E+02 0.  0.
          5    1    5    5  501    0  0.67113806255E+01  0.90895243645E+02 -0.13697676557E+02  0.92285991842E+02  0.47000000000E+01 0. -1.
        -13    1    6    6    0    0  0.48431207359E+02 -0.39646683441E+02 -0.51694689355E+02  0.81177473856E+02  0.00000000000E+00 0.  1.
         14    1    6    6    0    0 -0.25590348816E+02 -0.14181651765E+01 -0.61332576328E+01  0.26353253958E+02  0.00000000000E+00 0. -1.
         -5    1    3    3    0  503 -0.12997884655E+02  0.46148608458E+02 -0.34078145171E+02  0.59008889554E+02  0.47000000000E+01 0.  1.
         11    1    4    4    0    0  0.26853297043E+02 -0.38214528011E+02  0.34736674037E+01  0.46834987759E+02  0.00000000000E+00 0. -1.
        -12    1    4    4    0    0 -0.43407651557E+02 -0.57764475475E+02  0.27722966893E+02  0.77392000452E+02  0.00000000000E+00 0.  1.
</event>
<event>
12    1  0.9873238E-001  0.6302258E+03  0.7818608E-02  0.9845508E-01
         21   -1    0    0  503  502  0.00000000000E+00  0.00000000000E+00  0.19778933371E+03  0.19778933371E+03  0.00000000000E+00 0. -1.
         21   -1    0    0  501  503 -0.00000000000E+00 -0.00000000000E+00 -0.22086466419E+04  0.22086466419E+04  0.00000000000E+00 0. -1.
          6    2    1    2  501    0 -0.50519523567E+03  0.33355498498E+03 -0.13719077275E+04  0.15089722274E+04  0.16847912711E+03 0.  0.
         24    2    3    3    0    0 -0.51311344683E+03  0.31382680343E+03 -0.13339994738E+04  0.14652569565E+04  0.75171008960E+02 0.  0.
         -6    2    1    2    0  502  0.50519523567E+03 -0.33355498498E+03 -0.63894958069E+03  0.89746374817E+03  0.17522402368E+03 0.  0.
        -24    2    5    5    0    0  0.29204991830E+03 -0.12509302011E+03 -0.38840709248E+03  0.50800136808E+03  0.79144816761E+02 0.  0.
          5    1    3    3  501    0  0.79182111653E+01  0.19728181541E+02 -0.37908253644E+02  0.43715270893E+02  0.47000000000E+01 0. -1.
        -11    1    4    4    0    0 -0.42831405298E+03  0.29097415405E+03 -0.11612720495E+04  0.12714840382E+04  0.00000000000E+00 0.  1.
         12    1    4    4    0    0 -0.84799393848E+02  0.22852649386E+02 -0.17272742430E+03  0.19377291835E+03  0.00000000000E+00 0. -1.
         -5    1    5    5    0  502  0.21314531736E+03 -0.20846196486E+03 -0.25054248821E+03  0.38946238009E+03  0.47000000000E+01 0.  1.
         13    1    6    6    0    0  0.79146974752E+02 -0.59306712420E+02 -0.78349280053E+02  0.12617503491E+03  0.00000000000E+00 0. -1.
        -14    1    6    6    0    0  0.21290294355E+03 -0.65786307693E+02 -0.31005781243E+03  0.38182633317E+03  0.00000000000E+00 0.  1.
</event>
<event>
12    1  0.9873238E-001  0.2705805E+03  0.7818608E-02  0.1101204E+00
         21   -1    0    0  501  502  0.00000000000E+00  0.00000000000E+00  0.24621909722E+03  0.24621909722E+03  0.00000000000E+00 0. -1.
         21   -1    0    0  502  503 -0.00000000000E+00 -0.00000000000E+00 -0.31963095846E+03  0.31963095846E+03  0.00000000000E+00 0. -1.
         -6    2    1    2    0  503  0.11915509653E+03  0.17058149170E+03  0.41316614414E+02  0.27195142720E+03  0.17016031790E+03 0.  0.
        -24    2    3    3    0    0  0.55002512886E+02  0.22524140207E+02 -0.16187319439E+02  0.10058828726E+03  0.79519563053E+02 0.  0.
          6    2    1    2  501    0 -0.11915509653E+03 -0.17058149170E+03 -0.11472847565E+03  0.29389862849E+03  0.17296762229E+03 0.  0.
         24    2    5    5    0    0 -0.10537768360E+03 -0.19668286605E+03 -0.11559909700E+03  0.26399968483E+03  0.80895465666E+02 0.  0.
          5    1    5    5  501    0 -0.13777412935E+02  0.26101374351E+02  0.87062135113E+00  0.29898943655E+02  0.47000000000E+01 0. -1.
        -11    1    6    6    0    0 -0.92415666872E+02 -0.90616075144E+02 -0.75676799022E+02  0.14992967174E+03  0.00000000000E+00 0.  1.
         12    1    6    6    0    0 -0.12962016726E+02 -0.10606679090E+03 -0.39922297980E+02  0.11407001309E+03  0.00000000000E+00 0. -1.
         -5    1    3    3    0  503  0.64152583647E+02  0.14805735149E+03  0.57503933853E+02  0.17136313993E+03  0.47000000000E+01 0.  1.
         11    1    4    4    0    0  0.89012513323E+01  0.41502653564E+02 -0.26000496641E+02  0.49776785289E+02  0.00000000000E+00 0. -1.
        -12    1    4    4    0    0  0.46101261554E+02 -0.18978513357E+02  0.98131772021E+01  0.50811501975E+02  0.00000000000E+00 0.  1.
</event>
<event>
12    1  0.9873238E-001  0.2350846E+03  0.7818608E-02  0.1123139E+00
         21   -1    0    0  501  502  0.00000000000E+00  0.00000000000E+00  0.83736964032E+02  0.83736964032E+02  0.00000000000E+00 0.  1.
         21   -1    0    0  502  503 -0.00000000000E+00 -0.00000000000E+00 -0.72376786491E+03  0.72376786491E+03  0.00000000000E+00 0.  1.
         -6    2    1    2    0  503  0.15996856645E+03 -0.74662058899E+00 -0.44020063764E+03  0.49896484669E+03  0.17204306777E+03 0.  0.
        -24    2    3    3    0    0  0.88546638537E+02 -0.52730734979E+02 -0.16255551424E+03  0.20756761870E+03  0.77710897022E+02 0.  0.
          6    2    1    2  501    0 -0.15996856645E+03  0.74662058899E+00 -0.19983026324E+03  0.30853998225E+03  0.17226226181E+03 0.  0.
         24    2    5    5    0    0 -0.67385765146E+02 -0.49088882307E+02 -0.49982826297E+02  0.12542390757E+03  0.79261049423E+02 0.  0.
          5    1    5    5  501    0 -0.92582801302E+02  0.49835502896E+02 -0.14984743694E+03  0.18311607467E+03  0.47000000000E+01 0. -1.
        -11    1    6    6    0    0  0.16422091700E+02 -0.91457641864E+01 -0.20958699724E+02  0.28153102715E+02  0.00000000000E+00 0.  1.
         12    1    6    6    0    0 -0.83807856846E+02 -0.39943118121E+02 -0.29024126574E+02  0.97270804858E+02  0.00000000000E+00 0. -1.
         -5    1    3    3    0  503  0.71421927910E+02  0.51984114390E+02 -0.27764512340E+03  0.29139722799E+03  0.47000000000E+01 0.  1.
         13    1    4    4    0    0  0.82611412588E+02 -0.12880591384E+02 -0.80058902147E+02  0.11575829533E+03  0.00000000000E+00 0. -1.
        -14    1    4    4    0    0  0.59352259492E+01 -0.39850143595E+02 -0.82496612090E+02  0.91809323372E+02  0.00000000000E+00 0.  1.
</event>
<event>
12    1  0.9873238E-001  0.2062888E+03  0.7818608E-02  0.1144711E+00
         21   -1    0    0  503  502  0.00000000000E+00  0.00000000000E+00  0.68911318610E+03  0.68911318610E+03  0.00000000000E+00 0.  1.
         21   -1    0    0  501  503 -0.00000000000E+00 -0.00000000000E+00 -0.65678246386E+02  0.65678246386E+02  0.00000000000E+00 0.  1.
          6    2    1    2  501    0 -0.22467356044E+02 -0.11120093852E+03  0.40630714330E+03  0.45529257911E+03  0.17127582164E+03 0.  0.
         24    2    3    3    0    0 -0.62944419275E+02 -0.44183123556E+02  0.31683581460E+03  0.33630943395E+03  0.82492142836E+02 0.  0.
         -6    2    1    2    0  502  0.22467356044E+02  0.11120093852E+03  0.21712779642E+03  0.29949885338E+03  0.17229234569E+03 0.  0.
        -24    2    5    5    0    0 -0.34632816056E+02  0.11232230933E+03  0.18809569585E+03  0.23525992446E+03  0.78431550642E+02 0.  0.
          5    1    3    3  501    0  0.40477063231E+02 -0.67017814965E+02  0.89471328701E+02  0.11898314515E+03  0.47000000000E+01 0. -1.
        -13    1    4    4    0    0 -0.63423425392E+02 -0.65619740771E+02  0.25156013200E+03  0.26760228191E+03  0.00000000000E+00 0.  1.
         14    1    4    4    0    0  0.47900611750E+00  0.21436617215E+02  0.65275682595E+02  0.68707152049E+02  0.00000000000E+00 0. -1.
         -5    1    5    5    0  502  0.57100172100E+02 -0.11213708064E+01  0.29032100562E+02  0.64238928925E+02  0.47000000000E+01 0.  1.
         13    1    6    6    0    0 -0.18331779169E+02 -0.60465249374E+00  0.41561360381E+01  0.18806732808E+02  0.00000000000E+00 0. -1.
        -14    1    6    6    0    0 -0.16301036887E+02  0.11292696182E+03  0.18393955982E+03  0.21645319165E+03  0.00000000000E+00 0.  1.
</event>
<event>
12    1  0.9873238E-001  0.2003004E+03  0.7818608E-02  0.1150764E+00
         21   -1    0    0  501  502  0.00000000000E+00  0.00000000000E+00  0.12582774989E+02  0.12582774989E+02  0.00000000000E+00 0.  1.
         21   -1    0    0  502  503 -0.00000000000E+00 -0.00000000000E+00 -0.32798344593E+04  0.32798344593E+04  0.00000000000E+00 0.  1.
         -6    2    1    2    0  503  0.49213151295E+02  0.76236328112E+02 -0.12186013328E+04  0.12339982991E+04  0.17183911610E+03 0.  0.
        -24    2    3    3    0    0  0.74487954592E+02  0.26911002453E+02 -0.10615388028E+04  0.10673773767E+04  0.78467681648E+02 0.  0.
          6    2    1    2  501    0 -0.49213151295E+02 -0.76236328112E+02 -0.20486503515E+04  0.20584189352E+04  0.17856746102E+03 0.  0.
         24    2    5    5    0    0 -0.40950311626E+02 -0.44770296302E+02 -0.52142857432E+03  0.53084346003E+03  0.78903190583E+02 0.  0.
          5    1    5    5  501    0 -0.82628396694E+01 -0.31466031810E+02 -0.15272217771E+04  0.15275754751E+04  0.47000000000E+01 0. -1.
        -11    1    6    6    0    0 -0.32142364205E+02  0.12941374311E+02 -0.29427101919E+03  0.29630397142E+03  0.00000000000E+00 0.  1.
         12    1    6    6    0    0 -0.88079474210E+01 -0.57711670613E+02 -0.22715755513E+03  0.23453948861E+03  0.00000000000E+00 0. -1.
         -5    1    3    3    0  503 -0.25274803297E+02  0.49325325659E+02 -0.15706252999E+03  0.16662092234E+03  0.47000000000E+01 0.  1.
         13    1    4    4    0    0  0.28529453622E+02  0.51406160212E+02 -0.50653041277E+03  0.50993095816E+03  0.00000000000E+00 0. -1.
        -14    1    4    4    0    0  0.45958500970E+02 -0.24495157758E+02 -0.55500839005E+03  0.55744641858E+03  0.00000000000E+00 0.  1.
</event>
<event>
12    1  0.9873238E-001  0.1953530E+03  0.7818608E-02  0.1153733E+00
         21   -1    0    0  503  502  0.00000000000E+00  0.00000000000E+00  0.70027051945E+02  0.70027051945E+02  0.00000000000E+00 0.  1.
         21   -1    0    0  501  503 -0.00000000000E+00 -0.00000000000E+00 -0.54937731124E+03  0.54937731124E+03  0.00000000000E+00 0.  1.
          6    2    1    2  501    0 -0.81918680918E+02  0.46195284230E+02 -0.26797778546E+03  0.33162460650E+03  0.17122532396E+03 0.  0.
         24    2    3    3    0    0 -0.30226617878E+02  0.68164917118E+02 -0.81022971470E+02  0.13635830980E+03  0.80428616752E+02 0.  0.
         -6    2    1    2    0  502  0.81918680918E+02 -0.46195284230E+02 -0.21137247384E+03  0.28777975669E+03  0.17115545885E+03 0.  0.
        -24    2    5    5    0    0  0.88527232114E+02 -0.46391430127E+02 -0.70062364971E+02  0.14623701300E+03  0.80543735772E+02 0.  0.
          5    1    3    3  501    0 -0.51692063040E+02 -0.21969632888E+02 -0.18695481399E+03  0.19526629669E+03  0.47000000000E+01 0. -1.
        -13    1    4    4    0    0  0.15649988778E+02  0.49463795597E+02 -0.67252737164E+02  0.84938329861E+02  0.00000000000E+00 0.  1.
         14    1    4    4    0    0 -0.45876606656E+02  0.18701121521E+02 -0.13770234306E+02  0.51419979943E+02  0.00000000000E+00 0. -1.
         -5    1    5    5    0  502 -0.66085511954E+01  0.19614589655E+00 -0.14131010887E+03  0.14154274369E+03  0.47000000000E+01 0.  1.
         11    1    6    6    0    0  0.31539733889E+02 -0.38518973302E+02 -0.73310648856E+02  0.88616687783E+02  0.00000000000E+00 0. -1.
        -12    1    6    6    0    0  0.56987498225E+02 -0.78724568249E+01  0.32482838847E+01  0.57620325221E+02  0.00000000000E+00 0.  1.
</event>
<event>
12    1  0.9873238E-001  0.2203096E+03  0.7818608E-02  0.1134918E+00
         21   -1    0    0  501  502  0.00000000000E+00  0.00000000000E+00  0.28871550832E+03  0.28871550832E+03  0.00000000000E+00 0. -1.
         21   -1    0    0  502  503 -0.00000000000E+00 -0.00000000000E+00 -0.18122355024E+03  0.18122355024E+03  0.00000000000E+00 0. -1.
         -6    2    1    2    0  503  0.13416130207E+03 -0.28840973812E+02 -0.19918380392E+02  0.22120823386E+03  0.17235220946E+03 0.  0.
        -24    2    3    3    0    0  0.12563203781E+03 -0.18232640191E+02 -0.72700551479E+02  0.16649687603E+03  0.79498436772E+02 0.  0.
          6    2    1    2  501    0 -0.13416130207E+03  0.28840973812E+02  0.12741033848E+03  0.24873082470E+03  0.16371491093E+03 0.  0.
         24    2    5    5    0    0 -0.57386331589E+02  0.71614938926E+02  0.95613421527E+02  0.15515122162E+03  0.80672700861E+02 0.  0.
          5    1    5    5  501    0 -0.76774970485E+02 -0.42773965114E+02  0.31796916950E+02  0.93579603077E+02  0.47000000000E+01 0. -1.
        -13    1    6    6    0    0 -0.72749855980E+02  0.40996209530E+02  0.47443945818E+02  0.96042484015E+02  0.00000000000E+00 0.  1.
         14    1    6    6    0    0  0.15363524391E+02  0.30618729396E+02  0.48169475708E+02  0.59108737608E+02  0.00000000000E+00 0. -1.
         -5    1    3    3    0  503  0.85292642622E+01 -0.10608333621E+02  0.52782171087E+02  0.54711357831E+02  0.47000000000E+01 0.  1.
         13    1    4    4    0    0  0.58812586065E+02 -0.59156975611E+00 -0.77419746124E+02  0.97226988662E+02  0.00000000000E+00 0. -1.
        -14    1    4    4    0    0  0.66819451746E+02 -0.17641070435E+02  0.47191946452E+01  0.69269887367E+02  0.00000000000E+00 0.  1.
</event>
<event>
12    1  0.9873238E-001  0.1977241E+03  0.7818608E-02  0.1152796E+00
         21   -1    0    0  501  502  0.00000000000E+00  0.00000000000E+00  0.59850669352E+02  0.59850669352E+02  0.00000000000E+00 0.  1.
         21   -1    0    0  502  503 -0.00000000000E+00 -0.00000000000E+00 -0.64229566526E+03  0.64229566526E+03  0.00000000000E+00 0.  1.
         -6    2    1    2    0  503 -0.85933127823E+02  0.12894804527E+02 -0.26094646586E+03  0.32739561431E+03  0.17760645197E+03 0.  0.
        -24    2    3    3    0    0 -0.13656784003E+02 -0.31376928568E+02 -0.21273574647E+03  0.22977277020E+03  0.79799803908E+02 0.  0.
          6    2    1    2  501    0  0.85933127823E+02 -0.12894804527E+02 -0.32149853005E+03  0.37475072030E+03  0.17183136822E+03 0.  0.
         24    2    5    5    0    0 -0.51331344483E+01  0.11085547814E+02 -0.23032000383E+03  0.24358771078E+03  0.78348134897E+02 0.  0.
          5    1    5    5  501    0  0.91066262271E+02 -0.23980352341E+02 -0.91178526220E+02  0.13116300952E+03  0.47000000000E+01 0. -1.
        -13    1    6    6    0    0  0.32732600341E+02  0.35771262869E+01 -0.16015156465E+03  0.16350150647E+03  0.00000000000E+00 0.  1.
         14    1    6    6    0    0 -0.37865734789E+02  0.75084215269E+01 -0.70168439177E+02  0.80086204315E+02  0.00000000000E+00 0. -1.
         -5    1    3    3    0  503 -0.72276343820E+02  0.44271733096E+02 -0.48210719383E+02  0.97622844103E+02  0.47000000000E+01 0.  1.
         13    1    4    4    0    0  0.15867149564E+02 -0.42288635592E+02 -0.67860785804E+02  0.81517981976E+02  0.00000000000E+00 0. -1.
        -14    1    4    4    0    0 -0.29523933567E+02  0.10911707024E+02 -0.14487496067E+03  0.14825478823E+03  0.00000000000E+00 0.  1.
</event>
<event>
12    1  0.9873238E-001  0.1905409E+03  0.7818608E-02  0.1158185E+00
         21   -1    0    0  503  502  0.00000000000E+00  0.00000000000E+00  0.33123906669E+03  0.33123906669E+03  0.00000000000E+00 0. -1.
         21   -1    0    0  501  503 -0.00000000000E+00 -0.00000000000E+00 -0.11654067867E+03  0.11654067867E+03  0.00000000000E+00 0. -1.
          6    2    1    2  501    0  0.51642239059E+01 -0.82344252196E+02  0.50909797789E+02  0.19722486774E+03  0.17175155273E+03 0.  0.
         24    2    3    3    0    0  0.30406484939E+02 -0.11616988114E+03  0.20970146293E+02  0.14526509823E+03  0.79007633282E+02 0.  0.
         -6    2    1    2    0  502 -0.51642239059E+01  0.82344252196E+02  0.16378859023E+03  0.25055487762E+03  0.17071555094E+03 0.  0.
        -24    2    5    5    0    0  0.28646327379E+02 -0.11083269100E+02  0.46324485545E+02  0.96633595782E+02  0.79048358278E+02 0.  0.
          5    1    3    3  501    0 -0.25242261033E+02  0.33825628947E+02  0.29939651496E+02  0.51959769509E+02  0.47000000000E+01 0. -1.
        -13    1    4    4    0    0 -0.26374057898E+02 -0.48565783834E+02  0.44187777590E+01  0.55441427528E+02  0.00000000000E+00 0.  1.
         14    1    4    4    0    0  0.56780542837E+02 -0.67604097310E+02  0.16551368534E+02  0.89823670702E+02  0.00000000000E+00 0. -1.
         -5    1    5    5    0  502 -0.33810551285E+02  0.93427521297E+02  0.11746410468E+03  0.15392128184E+03  0.47000000000E+01 0.  1.
         13    1    6    6    0    0  0.15505608187E+02 -0.45147206445E+02  0.31701678684E+02  0.57303495238E+02  0.00000000000E+00 0. -1.
        -14    1    6    6    0    0  0.13140719192E+02  0.34063937345E+02  0.14622806861E+02  0.39330100544E+02  0.00000000000E+00 0.  1.
</event>
<event>
12    1  0.9873238E-001  0.1759601E+03  0.7818608E-02  0.1172315E+00
         21   -1    0    0  501  502  0.00000000000E+00  0.00000000000E+00  0.40547899654E+03  0.40547899654E+03  0.00000000000E+00 0.  1.
         21   -1    0    0  502  503 -0.00000000000E+00 -0.00000000000E+00 -0.10232925390E+03  0.10232925390E+03  0.00000000000E+00 0.  1.
         -6    2    1    2    0  503 -0.17497410700E+02 -0.27845426229E+02  0.20684175822E+02  0.17501889597E+03  0.17065242944E+03 0.  0.
        -24    2    3    3    0    0 -0.63798011489E+02 -0.58891997441E+02  0.24663005365E+02  0.11893363675E+03  0.77449935337E+02 0.  0.
          6    2    1    2  501    0  0.17497410700E+02  0.27845426229E+02  0.28246556682E+03  0.33278935448E+03  0.17285956981E+03 0.  0.
         24    2    5    5    0    0 -0.56623299290E+02  0.23174968602E+02  0.17910511701E+03  0.20542701543E+03  0.79864501105E+02 0.  0.
          5    1    5    5  501    0  0.74120709990E+02  0.46704576278E+01  0.10336044981E+03  0.12736233905E+03  0.47000000000E+01 0. -1.
        -11    1    6    6    0    0 -0.59736271918E+02 -0.49384019894E+01  0.67404294533E+02  0.90200603758E+02  0.00000000000E+00 0.  1.
         12    1    6    6    0    0  0.31129726273E+01  0.28113370591E+02  0.11170082248E+03  0.11522641167E+03  0.00000000000E+00 0. -1.
         -5    1    3    3    0  503  0.46300600789E+02  0.31046571212E+02 -0.39788295426E+01  0.56085259222E+02  0.47000000000E+01 0.  1.
         13    1    4    4    0    0 -0.52586392587E+02 -0.43033357500E+02  0.51884627573E+02  0.85493936167E+02  0.00000000000E+00 0. -1.
        -14    1    4    4    0    0 -0.11211618902E+02 -0.15858639941E+02 -0.27221622208E+02  0.33439700579E+02  0.00000000000E+00 0.  1.
</event>
<event>
12    1  0.9873238E-001  0.1962725E+03  0.7818608E-02  0.1153677E+00
         21   -1    0    0  503  502  0.00000000000E+00  0.00000000000E+00  0.66145850088E+02  0.66145850088E+02  0.00000000000E+00 0.  1.
         21   -1    0    0  501  503 -0.00000000000E+00 -0.00000000000E+00 -0.72810722732E+03  0.72810722732E+03  0.00000000000E+00 0.  1.
          6    2    1    2  501    0 -0.87093441572E+02 -0.23274245316E+02 -0.51244066964E+03  0.54751568165E+03  0.17044360854E+03 0.  0.
         24    2    3    3    0    0 -0.11891922834E+02 -0.42065101059E+02 -0.40330788336E+03  0.41357382963E+03  0.80468461048E+02 0.  0.
         -6    2    1    2    0  502  0.87093441572E+02  0.23274245316E+02 -0.14952070759E+03  0.24673739575E+03  0.17434432140E+03 0.  0.
        -24    2    5    5    0    0  0.48922518918E+02  0.56768416546E+02 -0.17727231078E+02  0.10542041414E+03  0.71994048510E+02 0.  0.
          5    1    3    3  501    0 -0.75201518738E+02  0.18790855743E+02 -0.10913278629E+03  0.13394185202E+03  0.47000000000E+01 0. -1.
        -13    1    4    4    0    0  0.15850336287E+02 -0.44162252661E+02 -0.11912639818E+03  0.12803373174E+03  0.00000000000E+00 0.  1.
         14    1    4    4    0    0 -0.27742259121E+02  0.20971516018E+01 -0.28418148518E+03  0.28554009789E+03  0.00000000000E+00 0. -1.
         -5    1    5    5    0  502  0.38170922654E+02 -0.33494171230E+02 -0.13179347651E+03  0.14131698162E+03  0.47000000000E+01 0.  1.
         11    1    6    6    0    0  0.66538312948E+02  0.36849202900E+02 -0.20249332125E+02  0.78709886900E+02  0.00000000000E+00 0. -1.
        -12    1    6    6    0    0 -0.17615794030E+02  0.19919213647E+02  0.25221010470E+01  0.26710527238E+02  0.00000000000E+00 0.  1.
</event>
<event>
12    1  0.9873238E-001  0.2035807E+03  0.7818608E-02  0.1146884E+00
         21   -1    0    0  503  502  0.00000000000E+00  0.00000000000E+00  0.38362229151E+03  0.38362229151E+03  0.00000000000E+00 0. -1.
         21   -1    0    0  501  503 -0.00000000000E+00 -0.00000000000E+00 -0.34252099339E+03  0.34252099339E+03  0.00000000000E+00 0. -1.
          6    2    1    2  501    0 -0.10705176207E+03 -0.11828423964E+02  0.32116030953E+03  0.37990901687E+03  0.17200850357E+03 0.  0.
         24    2    3    3    0    0 -0.19106420271E+02  0.33742024308E+02  0.86010255642E+02  0.12470579050E+03  0.81548700845E+02 0.  0.
         -6    2    1    2    0  502  0.10705176207E+03  0.11828423964E+02 -0.28005901141E+03  0.34623426804E+03  0.17275742275E+03 0.  0.
        -24    2    5    5    0    0  0.98351740220E+02 -0.39427185928E+01 -0.29573269958E+03  0.32189964623E+03  0.80454600932E+02 0.  0.
          5    1    3    3  501    0 -0.87945341800E+02 -0.45570448272E+02  0.23515005389E+03  0.25520322636E+03  0.47000000000E+01 0. -1.
        -11    1    4    4    0    0  0.22964043073E+01  0.36816909858E+01 -0.15815417647E+02  0.16399870628E+02  0.00000000000E+00 0.  1.
         12    1    4    4    0    0 -0.21402824578E+02  0.30060333322E+02  0.10182567329E+03  0.10830591988E+03  0.00000000000E+00 0. -1.
         -5    1    5    5    0  502  0.87000218508E+01  0.15771142557E+02  0.15673688166E+02  0.24334621807E+02  0.47000000000E+01 0.  1.
         11    1    6    6    0    0  0.22576995091E+02  0.29834618234E+02 -0.49383351492E+02  0.61955956591E+02  0.00000000000E+00 0. -1.
        -12    1    6    6    0    0  0.75774745129E+02 -0.33777336827E+02 -0.24634934808E+03  0.25994368964E+03  0.00000000000E+00 0.  1.
</event>
<event>
12    1  0.9873238E-001  0.2411656E+03  0.7818608E-02  0.1120342E+00
         21   -1    0    0  501  502  0.00000000000E+00  0.00000000000E+00  0.43729075453E+03  0.43729075453E+03  0.00000000000E+00 0. -1.
         21   -1    0    0  502  503 -0.00000000000E+00 -0.00000000000E+00 -0.13346117180E+03  0.13346117180E+03  0.00000000000E+00 0. -1.
         -6    2    1    2    0  503  0.59516892683E+02  0.15482910653E+03  0.20334719744E+03  0.30949042435E+03  0.16407293291E+03 0.  0.
        -24    2    3    3    0    0  0.58004225441E+01  0.11408265762E+02  0.63633333922E+02  0.10213312308E+03  0.78855438710E+02 0.  0.
          6    2    1    2  501    0 -0.59516892683E+02 -0.15482910653E+03  0.10048238529E+03  0.26126150198E+03  0.17506156037E+03 0.  0.
         24    2    5    5    0    0 -0.44403964852E+02 -0.11753623463E+02  0.16996551660E+02  0.94855465854E+02  0.81233102089E+02 0.  0.
          5    1    5    5  501    0 -0.15112927831E+02 -0.14307548307E+03  0.83485833630E+02  0.16640603613E+03  0.47000000000E+01 0. -1.
        -13    1    6    6    0    0 -0.23026860882E+02 -0.53370391576E+01 -0.32716494818E+02  0.40361978918E+02  0.00000000000E+00 0.  1.
         14    1    6    6    0    0 -0.21377103970E+02 -0.64165843057E+01  0.49713046478E+02  0.54493486936E+02  0.00000000000E+00 0. -1.
         -5    1    3    3    0  503  0.53716470139E+02  0.14342084077E+03  0.13971386351E+03  0.20735730127E+03  0.47000000000E+01 0.  1.
         13    1    4    4    0    0  0.25285467244E+02 -0.23000216418E+01  0.72418938991E+02  0.76740782364E+02  0.00000000000E+00 0. -1.
        -14    1    4    4    0    0 -0.19485044700E+02  0.13708287404E+02 -0.87856050686E+01  0.25392340714E+02  0.00000000000E+00 0.  1.
</event>
<event>
12    1  0.9873238E-001  0.2244965E+03  0.7818608E-02  0.1130675E+00
         21   -1    0    0  503  502  0.00000000000E+00  0.00000000000E+00  0.23838470080E+03  0.23838470080E+03  0.00000000000E+00 0.  1.
         21   -1    0    0  501  503 -0.00000000000E+00 -0.00000000000E+00 -0.23066870598E+03  0.23066870598E+03  0.00000000000E+00 0.  1.
          6    2    1    2  501    0  0.14018961729E+03 -0.29748440320E+02 -0.64805440627E+02  0.23313385715E+03  0.17208588471E+03 0.  0.
         24    2    3    3    0    0  0.79872004642E+02  0.41722517411E+02 -0.33179032841E+01  0.12111100482E+03  0.80849003845E+02 0.  0.
         -6    2    1    2    0  502 -0.14018961729E+03  0.29748440320E+02  0.72521435451E+02  0.23591954963E+03  0.17280213193E+03 0.  0.
        -24    2    5    5    0    0 -0.16780851174E+03  0.30171102935E+02  0.38668510426E+02  0.19197535198E+03  0.79305044005E+02 0.  0.
          5    1    3    3  501    0  0.60317612653E+02 -0.71470957731E+02 -0.61487537343E+02  0.11202285233E+03  0.47000000000E+01 0. -1.
        -13    1    4    4    0    0  0.66788980970E+01  0.45913535577E+02 -0.10105262718E+02  0.47484489716E+02  0.00000000000E+00 0.  1.
         14    1    4    4    0    0  0.73193106545E+02 -0.41910181659E+01  0.67873594335E+01  0.73626515108E+02  0.00000000000E+00 0. -1.
         -5    1    5    5    0  502  0.27618894450E+02 -0.42266261490E+00  0.33852925025E+02  0.43944197650E+02  0.47000000000E+01 0.  1.
         11    1    6    6    0    0 -0.13551118949E+03  0.38288774604E+02 -0.16697488917E+00  0.14081669154E+03  0.00000000000E+00 0. -1.
        -12    1    6    6    0    0 -0.32297322259E+02 -0.81176716694E+01  0.38835485315E+02  0.51158660441E+02  0.00000000000E+00 0.  1.
</event>
<event>
12    1  0.9873238E-001  0.1789852E+03  0.7818608E-02  0.1169503E+00
         21   -1    0    0  503  502  0.00000000000E+00  0.00000000000E+00  0.24942153371E+03  0.24942153371E+03  0.00000000000E+00 0.  1.
         21   -1    0    0  501  503 -0.00000000000E+00 -0.00000000000E+00 -0.12667084145E+03  0.12667084145E+03  0.00000000000E+00 0.  1.
          6    2    1    2  501    0  0.36042592070E+02  0.32566600000E+02  0.52606648705E+02  0.18655607236E+03  0.17226739903E+03 0.  0.
         24    2    3    3    0    0  0.53710767647E+02 -0.16770384777E+02 -0.20518258952E+02  0.96469199760E+02  0.75625492957E+02 0.  0.
         -6    2    1    2    0  502 -0.36042592070E+02 -0.32566600000E+02  0.70144043559E+02  0.18953630280E+03  0.16924589021E+03 0.  0.
        -24    2    5    5    0    0 -0.50594987764E+02 -0.21473985803E+02  0.10952615683E+03  0.14585725570E+03  0.79103572342E+02 0.  0.
          5    1    3    3  501    0 -0.17668175577E+02  0.49336984777E+02  0.73124907657E+02  0.90086872601E+02  0.47000000000E+01 0. -1.
        -11    1    4    4    0    0 -0.42432044554E-02 -0.34478233262E+02  0.42230137291E+01  0.34735895437E+02  0.00000000000E+00 0.  1.
         12    1    4    4    0    0  0.53715010851E+02  0.17707848484E+02 -0.24741272681E+02  0.61733304323E+02  0.00000000000E+00 0. -1.
         -5    1    5    5    0  502  0.14552395694E+02 -0.11092614197E+02 -0.39382113266E+02  0.43679047099E+02  0.47000000000E+01 0.  1.
         11    1    6    6    0    0  0.10057317149E+01  0.27970954202E+01 -0.11602498021E+02  0.11977194973E+02  0.00000000000E+00 0. -1.
        -12    1    6    6    0    0 -0.51600719479E+02 -0.24271081223E+02  0.12112865485E+03  0.13388006072E+03  0.00000000000E+00 0.  1.
</event>
<event>
12    1  0.9873238E-001  0.3959032E+03  0.7818608E-02  0.1045230E+00
         21   -1    0    0  503  502  0.00000000000E+00  0.00000000000E+00  0.25416714641E+04  0.25416714641E+04  0.00000000000E+00 0.  1.
         21   -1    0    0  501  503 -0.00000000000E+00 -0.00000000000E+00 -0.11656362368E+03  0.11656362368E+03  0.00000000000E+00 0.  1.
          6    2    1    2  501    0 -0.26080489831E+03 -0.24268821949E+03  0.29989218971E+03  0.49645782570E+03  0.17209962344E+03 0.  0.
         24    2    3    3    0    0 -0.48506279640E+02 -0.42752150670E+02  0.10382048567E+03  0.14501602650E+03  0.77912445372E+02 0.  0.
         -6    2    1    2    0  502  0.26080489831E+03  0.24268821949E+03  0.21252156507E+04  0.21617772621E+04  0.17269221736E+03 0.  0.
        -24    2    5    5    0    0  0.20964547943E+03  0.16401463812E+03  0.11905761907E+04  0.12224265135E+04  0.77478297616E+02 0.  0.
          5    1    3    3  501    0 -0.21229861867E+03 -0.19993606882E+03  0.19607170403E+03  0.35144179920E+03  0.47000000000E+01 0. -1.
        -11    1    4    4    0    0 -0.20969682622E+02  0.37632983108E+01  0.85231677681E+02  0.87854020305E+02  0.00000000000E+00 0.  1.
         12    1    4    4    0    0 -0.27536597018E+02 -0.46515448981E+02  0.18588807992E+02  0.57162006191E+02  0.00000000000E+00 0. -1.
         -5    1    5    5    0  502  0.51159418884E+02  0.78673581363E+02  0.93463946008E+03  0.93935074859E+03  0.47000000000E+01 0.  1.
         11    1    6    6    0    0  0.83171712115E+02  0.10329625038E+03  0.47168492563E+03  0.48997379328E+03  0.00000000000E+00 0. -1.
        -12    1    6    6    0    0  0.12647376732E+03  0.60718387739E+02  0.71889126502E+03  0.73245272022E+03  0.00000000000E+00 0.  1.
</event>
<event>
12    1  0.9873238E-001  0.1888521E+03  0.7818608E-02  0.1160028E+00
         21   -1    0    0  501  502  0.00000000000E+00  0.00000000000E+00  0.48849150663E+02  0.48849150663E+02  0.00000000000E+00 0. -1.
         21   -1    0    0  502  503 -0.00000000000E+00 -0.00000000000E+00 -0.72499102621E+03  0.72499102621E+03  0.00000000000E+00 0. -1.
         -6    2    1    2    0  503 -0.52990468724E+02  0.51376553395E+02 -0.36803872313E+03  0.41366365758E+03  0.17383204497E+03 0.  0.
        -24    2    3    3    0    0 -0.40140024771E+02 -0.29673188704E+02 -0.26683794733E+03  0.28328773331E+03  0.80979812267E+02 0.  0.
          6    2    1    2  501    0  0.52990468724E+02 -0.51376553395E+02 -0.30810315241E+03  0.36017651929E+03  0.17132434885E+03 0.  0.
         24    2    5    5    0    0  0.63816556718E+02 -0.92891416357E+00 -0.98222528788E+02  0.14399572769E+03  0.83747767964E+02 0.  0.
          5    1    5    5  501    0 -0.10826087994E+02 -0.50447639231E+02 -0.20988062362E+03  0.21618079160E+03  0.47000000000E+01 0. -1.
        -11    1    6    6    0    0 -0.46010994571E+01  0.11319637349E+02 -0.66464958112E+02  0.67578805574E+02  0.00000000000E+00 0.  1.
         12    1    6    6    0    0  0.68417656175E+02 -0.12248551512E+02 -0.31757570676E+02  0.76416922118E+02  0.00000000000E+00 0. -1.
         -5    1    3    3    0  503 -0.12850443954E+02  0.81049742099E+02 -0.10120077580E+03  0.13037592426E+03  0.47000000000E+01 0.  1.
         13    1    4    4    0    0 -0.27871279020E+02 -0.18396969285E+02 -0.27199215072E+02  0.43070337515E+02  0.00000000000E+00 0. -1.
        -14    1    4    4    0    0 -0.12268745751E+02 -0.11276219419E+02 -0.23963873226E+03  0.24021739580E+03  0.00000000000E+00 0.  1.
</event>
<event>
12    1  0.9873238E-001  0.2474673E+03  0.7818608E-02  0.1115063E+00
         21   -1    0    0  503  502  0.00000000000E+00  0.00000000000E+00  0.73280288237E+03  0.73280288237E+03  0.00000000000E+00 0. -1.
         21   -1    0    0  501  503 -0.00000000000E+00 -0.00000000000E+00 -0.13549954323E+03  0.13549954323E+03  0.00000000000E+00 0. -1.
          6    2    1    2  501    0  0.16080085570E+03 -0.72259248204E+02  0.29424582883E+02  0.24921045160E+03  0.17367132454E+03 0.  0.
         24    2    3    3    0    0  0.79310655465E+02 -0.37961730211E+02  0.82660262027E+02  0.14589975512E+03  0.81992356923E+02 0.  0.
         -6    2    1    2    0  502 -0.16080085570E+03  0.72259248204E+02  0.56787875626E+03  0.61909197400E+03  0.17236669144E+03 0.  0.
        -24    2    5    5    0    0 -0.76289963153E+02 -0.63806165372E+01  0.18319678739E+03  0.21743462444E+03  0.88633414968E+02 0.  0.
          5    1    3    3  501    0  0.81490200234E+02 -0.34297517993E+02 -0.53235679144E+02  0.10331069649E+03  0.47000000000E+01 0. -1.
        -11    1    4    4    0    0  0.92031745058E+02 -0.43613727083E+02  0.83862586337E+02  0.13192775552E+03  0.00000000000E+00 0.  1.
         12    1    4    4    0    0 -0.12721089593E+02  0.56519968724E+01 -0.12023243099E+01  0.13971999600E+02  0.00000000000E+00 0. -1.
         -5    1    5    5    0  502 -0.84510892547E+02  0.78639864742E+02  0.38468196887E+03  0.40165734956E+03  0.47000000000E+01 0.  1.
         11    1    6    6    0    0 -0.20779504173E+02  0.37062810310E+02  0.98289802834E+02  0.10708092754E+03  0.00000000000E+00 0. -1.
        -12    1    6    6    0    0 -0.55510458979E+02 -0.43443426847E+02  0.84906984556E+02  0.11035369690E+03  0.00000000000E+00 0.  1.
</event>
<event>
12    1  0.9873238E-001  0.2666865E+03  0.7818608E-02  0.1103199E+00
         21   -1    0    0  503  502  0.00000000000E+00  0.00000000000E+00  0.41265370041E+03  0.41265370041E+03  0.00000000000E+00 0. -1.
         21   -1    0    0  501  503 -0.00000000000E+00 -0.00000000000E+00 -0.21439213511E+03  0.21439213511E+03  0.00000000000E+00 0. -1.
          6    2    1    2  501    0  0.70938666356E+02 -0.19136567960E+03 -0.39772464499E+02  0.26957990663E+03  0.17157610385E+03 0.  0.
         24    2    3    3    0    0  0.95376549482E+02 -0.19776963407E+03 -0.18228057235E+02  0.23604675514E+03  0.84713010729E+02 0.  0.
         -6    2    1    2    0  502 -0.70938666356E+02  0.19136567960E+03  0.23803402980E+03  0.35746592889E+03  0.17166412923E+03 0.  0.
        -24    2    5    5    0    0 -0.10317825720E+03  0.13934486764E+03  0.12807220673E+03  0.23153242014E+03  0.84510511431E+02 0.  0.
          5    1    3    3  501    0 -0.24437883126E+02  0.64039544737E+01 -0.21544407263E+02  0.33533151491E+02  0.47000000000E+01 0. -1.
        -11    1    4    4    0    0  0.23609900914E+02  0.83157454920E-01  0.55137048915E+01  0.24245314557E+02  0.00000000000E+00 0.  1.
         12    1    4    4    0    0  0.71766648568E+02 -0.19785279153E+03 -0.23741762127E+02  0.21180144058E+03  0.00000000000E+00 0. -1.
         -5    1    5    5    0  502  0.32239590843E+02  0.52020811963E+02  0.10996182307E+03  0.12593350876E+03  0.47000000000E+01 0.  1.
         11    1    6    6    0    0 -0.44506444785E+02  0.52549072706E+02  0.10284628990E+03  0.12377232331E+03  0.00000000000E+00 0. -1.
        -12    1    6    6    0    0 -0.58671812414E+02  0.86795794931E+02  0.25225916832E+02  0.10776009683E+03  0.00000000000E+00 0.  1.
</event>
<event>
12    1  0.9873238E-001  0.2135514E+03  0.7818608E-02  0.1138887E+00
         21   -1    0    0  501  502  0.00000000000E+00  0.00000000000E+00  0.71302125848E+03  0.71302125848E+03  0.00000000000E+00 0. -1.
         21   -1    0    0  502  503 -0.00000000000E+00 -0.00000000000E+00 -0.69746348857E+02  0.69746348857E+02  0.00000000000E+00 0. -1.
         -6    2    1    2    0  503 -0.75243407514E+02  0.10172919988E+03  0.43627443457E+03  0.48573614525E+03  0.17202854433E+03 0.  0.
        -24    2    3    3    0    0 -0.78708859213E+02  0.10295332579E+03  0.44868822493E+03  0.47196298182E+03  0.68069532171E+02 0.  0.
          6    2    1    2  501    0  0.75243407514E+02 -0.10172919988E+03  0.20700047505E+03  0.29703146209E+03  0.17137121204E+03 0.  0.
         24    2    5    5    0    0 -0.20237874320E+02 -0.60782871634E+02  0.13982251307E+03  0.17322417008E+03  0.79700369499E+02 0.  0.
          5    1    5    5  501    0  0.95481281834E+02 -0.40946328242E+02  0.67177961983E+02  0.12380729200E+03  0.47000000000E+01 0. -1.
        -11    1    6    6    0    0 -0.33301508746E+01 -0.76945224174E+02  0.91953407992E+02  0.11994618239E+03  0.00000000000E+00 0.  1.
         12    1    6    6    0    0 -0.16907723446E+02  0.16162352540E+02  0.47869105080E+02  0.53277987696E+02  0.00000000000E+00 0. -1.
         -5    1    3    3    0  503  0.34654516989E+01 -0.12241259152E+01 -0.12413790360E+02  0.13773163429E+02  0.47000000000E+01 0.  1.
         11    1    4    4    0    0 -0.60174376956E+00  0.25853031919E+02  0.17804872323E+03  0.17991689526E+03  0.00000000000E+00 0. -1.
        -12    1    4    4    0    0 -0.78107115443E+02  0.77100293872E+02  0.27063950170E+03  0.29204608656E+03  0.00000000000E+00 0.  1.
</event>
<event>
12    1  0.9873238E-001  0.1809394E+03  0.7818608E-02  0.1168017E+00
         21   -1    0    0  501  502  0.00000000000E+00  0.00000000000E+00  0.10047652549E+03  0.10047652549E+03  0.00000000000E+00 0. -1.
         21   -1    0    0  502  503 -0.00000000000E+00 -0.00000000000E+00 -0.36656862783E+03  0.36656862783E+03  0.00000000000E+00 0. -1.
         -6    2    1    2    0  503  0.36752223717E+02 -0.33825994733E+02 -0.21986015270E+03  0.28474118765E+03  0.17390840500E+03 0.  0.
        -24    2    3    3    0    0 -0.19879080437E+02 -0.70852386046E+02 -0.10443761383E+03  0.15086620588E+03  0.80238135866E+02 0.  0.
          6    2    1    2  501    0 -0.36752223717E+02  0.33825994733E+02 -0.46231949638E+02  0.18230396566E+03  0.16912249661E+03 0.  0.
         24    2    5    5    0    0  0.29821161750E+02 -0.24619585642E+02 -0.32879982003E+02  0.92591834055E+02  0.77438548746E+02 0.  0.
          5    1    5    5  501    0 -0.66573385466E+02  0.58445580375E+02 -0.13351967635E+02  0.89712131607E+02  0.47000000000E+01 0. -1.
        -13    1    6    6    0    0 -0.15531519159E+02 -0.12441978367E+02  0.15458544489E+02  0.25199156946E+02  0.00000000000E+00 0.  1.
         14    1    6    6    0    0  0.45352680908E+02 -0.12177607275E+02 -0.48338526493E+02  0.67392677109E+02  0.00000000000E+00 0. -1.
         -5    1    3    3    0  503  0.56631304153E+02  0.37026391313E+02 -0.11542253887E+03  0.13387498177E+03  0.47000000000E+01 0.  1.
         11    1    4    4    0    0 -0.10363300920E+01 -0.67848319571E+02 -0.11149637072E+03  0.13052168070E+03  0.00000000000E+00 0. -1.
        -12    1    4    4    0    0 -0.18842750345E+02 -0.30040664751E+01  0.70587568933E+01  0.20344525180E+02  0.00000000000E+00 0.  1.
</event>
<event>
12    1  0.9873238E-001  0.1945318E+03  0.7818608E-02  0.1154477E+00
         21   -1    0    0  503  502  0.00000000000E+00  0.00000000000E+00  0.74800532167E+02  0.74800532167E+02  0.00000000000E+00 0. -1.
         21   -1    0    0  501  503 -0.00000000000E+00 -0.00000000000E+00 -0.62250076839E+03  0.62250076839E+03  0.00000000000E+00 0. -1.
          6    2    1    2  501    0  0.14698938811E+02  0.87733700823E+02 -0.42514998724E+03  0.46754158173E+03  0.17300103449E+03 0.  0.
         24    2    3    3    0    0  0.61987440161E+02  0.76874625502E+02 -0.38175363082E+03  0.40227707662E+03  0.79616963942E+02 0.  0.
         -6    2    1    2    0  502 -0.14698938811E+02 -0.87733700823E+02 -0.12255024898E+03  0.22975971882E+03  0.17279381877E+03 0.  0.
        -24    2    5    5    0    0  0.47596242468E+02 -0.16470675005E+02 -0.90053841202E+02  0.12957381673E+03  0.78377255853E+02 0.  0.
          5    1    3    3  501    0 -0.47288501350E+02  0.10859075320E+02 -0.43396356423E+02  0.65264505112E+02  0.47000000000E+01 0. -1.
        -13    1    4    4    0    0  0.67401929806E+02  0.52168059307E+02 -0.18246912161E+03  0.20139390978E+03  0.00000000000E+00 0.  1.
         14    1    4    4    0    0 -0.54144896453E+01  0.24706566196E+02 -0.19928450921E+03  0.20088316684E+03  0.00000000000E+00 0. -1.
         -5    1    5    5    0  502 -0.62295181278E+02 -0.71263025818E+02 -0.32496407778E+02  0.10018590209E+03  0.47000000000E+01 0.  1.
         11    1    6    6    0    0  0.32806760805E+02  0.14063920829E+02 -0.26225387282E+01  0.35790433540E+02  0.00000000000E+00 0. -1.
        -12    1    6    6    0    0  0.14789481662E+02 -0.30534595834E+02 -0.87431302474E+02  0.93783383191E+02  0.00000000000E+00 0.  1.
</event>
<event>
12    1  0.9873238E-001  0.1786671E+03  0.7818608E-02  0.1169461E+00
         21   -1    0    0  503  502  0.00000000000E+00  0.00000000000E+00  0.71495839237E+02  0.71495839237E+02  0.00000000000E+00 0.  1.
         21   -1    0    0  501  503 -0.00000000000E+00 -0.00000000000E+00 -0.44486487807E+03  0.44486487807E+03  0.00000000000E+00 0.  1.
          6    2    1    2  501    0  0.40867668547E+02  0.13861493040E+02 -0.20500043269E+03  0.27193218593E+03  0.17337712946E+03 0.  0.
         24    2    3    3    0    0  0.59601566891E+02 -0.35141259799E+02 -0.18975986810E+03  0.21709977268E+03  0.79600558062E+02 0.  0.
         -6    2    1    2    0  502 -0.40867668547E+02 -0.13861493040E+02 -0.16836860614E+03  0.24442853138E+03  0.17185753430E+03 0.  0.
        -24    2    5    5    0    0  0.21529713576E+02  0.26365512660E+02 -0.63374251199E+02  0.11575238808E+03  0.90684347091E+02 0.  0.
          5    1    3    3  501    0 -0.18733898344E+02  0.49002752839E+02 -0.15240564596E+02  0.54832413244E+02  0.47000000000E+01 0. -1.
        -13    1    4    4    0    0 -0.14377323015E+02  0.11132231309E+02 -0.34568426610E+02  0.39059059247E+02  0.00000000000E+00 0.  1.
         14    1    4    4    0    0  0.73978889905E+02 -0.46273491108E+02 -0.15519144149E+03  0.17804071344E+03  0.00000000000E+00 0. -1.
         -5    1    5    5    0  502 -0.62397382123E+02 -0.40227005701E+02 -0.10499435494E+03  0.12867614329E+03  0.47000000000E+01 0.  1.
         13    1    6    6    0    0 -0.24897437675E+02  0.56719638092E+01  0.92051546592E+01  0.27143847343E+02  0.00000000000E+00 0. -1.
        -14    1    6    6    0    0  0.46427151252E+02  0.20693548851E+02 -0.72579405858E+02  0.88608540740E+02  0.00000000000E+00 0.  1.
</event>
<event>
12    1  0.9873238E-001  0.2570548E+03  0.7818608E-02  0.1109062E+00
         21   -1    0    0  503  502  0.00000000000E+00  0.00000000000E+00  0.56505702677E+03  0.56505702677E+03  0.00000000000E+00 0. -1.
         21   -1    0    0  501  503 -0.00000000000E+00 -0.00000000000E+00 -0.17107789819E+03  0.17107789819E+03  0.00000000000E+00 0. -1.
          6    2    1    2  501    0 -0.18973807390E+03  0.20127234881E+02  0.40504852914E+03  0.47973066054E+03  0.17225432775E+03 0.  0.
         24    2    3    3    0    0 -0.85928937775E+02 -0.12226180369E+02  0.10349460020E+03  0.15913755038E+03  0.84144909747E+02 0.  0.
         -6    2    1    2    0  502  0.18973807390E+03 -0.20127234881E+02 -0.11069400566E+02  0.25640426442E+03  0.17092388047E+03 0.  0.
        -24    2    5    5    0    0  0.20311059425E+03 -0.14515576862E+02 -0.41667202524E+02  0.22221902651E+03  0.78616311981E+02 0.  0.
          5    1    3    3  501    0 -0.10380913612E+03  0.32353415250E+02  0.30155392894E+03  0.32059311016E+03  0.47000000000E+01 0. -1.
        -13    1    4    4    0    0 -0.17046777896E+02 -0.28213653746E+02  0.76761271445E+02  0.83539785062E+02  0.00000000000E+00 0.  1.
         14    1    4    4    0    0 -0.68882159879E+02  0.15987473377E+02  0.26733328754E+02  0.75597765316E+02  0.00000000000E+00 0. -1.
         -5    1    5    5    0  502 -0.13372520353E+02 -0.56116580190E+01  0.30597801958E+02  0.34185237910E+02  0.47000000000E+01 0.  1.
         11    1    6    6    0    0  0.25007438341E+02  0.24902129441E+02 -0.12772991167E+02  0.37531817521E+02  0.00000000000E+00 0. -1.
        -12    1    6    6    0    0  0.17810315591E+03 -0.39417706303E+02 -0.28894211357E+02  0.18468720899E+03  0.00000000000E+00 0.  1.
</event>
<event>
12    1  0.9873238E-001  0.2393329E+03  0.7818608E-02  0.1120406E+00
         21   -1    0    0  503  502  0.00000000000E+00  0.00000000000E+00  0.41446304837E+03  0.41446304837E+03  0.00000000000E+00 0. -1.
         21   -1    0    0  501  503 -0.00000000000E+00 -0.00000000000E+00 -0.15441389124E+03  0.15441389124E+03  0.00000000000E+00 0. -1.
          6    2    1    2  501    0  0.16064576277E+03  0.43768646058E+02  0.22357136958E+03  0.32678010038E+03  0.17052366768E+03 0.  0.
         24    2    3    3    0    0  0.58204121708E+02  0.90881331485E+01  0.28117557410E+02  0.10334932701E+03  0.80125978377E+02 0.  0.
         -6    2    1    2    0  502 -0.16064576277E+03 -0.43768646058E+02  0.36477787549E+02  0.24209683923E+03  0.17192293363E+03 0.  0.
        -24    2    5    5    0    0 -0.13212793640E+03 -0.85314044703E+02 -0.34849133827E+01  0.17761122816E+03  0.82445897091E+02 0.  0.
          5    1    3    3  501    0  0.10244164106E+03  0.34680512910E+02  0.19545381217E+03  0.22343077337E+03  0.47000000000E+01 0. -1.
        -13    1    4    4    0    0  0.28992299197E+02 -0.34203502451E+02  0.24263527748E+02  0.50981876891E+02  0.00000000000E+00 0.  1.
         14    1    4    4    0    0  0.29211822512E+02  0.43291635599E+02  0.38540296623E+01  0.52367450119E+02  0.00000000000E+00 0. -1.
         -5    1    5    5    0  502 -0.28517826367E+02  0.41545398644E+02  0.39962700932E+02  0.64485611069E+02  0.47000000000E+01 0.  1.
         11    1    6    6    0    0 -0.34643892103E+02 -0.69761130187E+02 -0.10746332464E+02  0.78627591890E+02  0.00000000000E+00 0. -1.
        -12    1    6    6    0    0 -0.97484044298E+02 -0.15552914516E+02  0.72614190817E+01  0.98983636273E+02  0.00000000000E+00 0.  1.
</event>
<event>
12    1  0.9873238E-001  0.3965281E+03  0.7818608E-02  0.1045077E+00
         21   -1    0    0  503  502  0.00000000000E+00  0.00000000000E+00  0.16649070653E+03  0.16649070653E+03  0.00000000000E+00 0.  1.
         21   -1    0    0  501  503 -0.00000000000E+00 -0.00000000000E+00 -0.11269234144E+04  0.11269234144E+04  0.00000000000E+00 0.  1.
          6    2    1    2  501    0 -0.17850707218E+03 -0.30902587866E+03 -0.21875210666E+03  0.45286532428E+03  0.17283734918E+03 0.  0.
         24    2    3    3    0    0 -0.18646096930E+03 -0.24169246144E+03 -0.22256270529E+03  0.38479430097E+03  0.73140667767E+02 0.  0.
         -6    2    1    2    0  502  0.17850707218E+03  0.30902587866E+03 -0.74168060119E+03  0.84054879662E+03  0.17050043055E+03 0.  0.
        -24    2    5    5    0    0  0.17103782431E+03  0.20914060970E+03 -0.44279638023E+03  0.52529219612E+03  0.82882597654E+02 0.  0.
          5    1    3    3  501    0  0.79538971173E+01 -0.67333417218E+02  0.38105986297E+01  0.68071023318E+02  0.47000000000E+01 0. -1.
        -11    1    4    4    0    0 -0.55379616111E+01 -0.28332766760E+02 -0.27050755433E+01  0.28995381094E+02  0.00000000000E+00 0.  1.
         12    1    4    4    0    0 -0.18092300769E+03 -0.21335969468E+03 -0.21985762975E+03  0.35579891987E+03  0.00000000000E+00 0. -1.
         -5    1    5    5    0  502  0.74692478746E+01  0.99885268963E+02 -0.29888422096E+03  0.31525660050E+03  0.47000000000E+01 0.  1.
         11    1    6    6    0    0  0.88993716762E+02  0.51114990730E+02 -0.19214854588E+03  0.21783867330E+03  0.00000000000E+00 0. -1.
        -12    1    6    6    0    0  0.82044107544E+02  0.15802561897E+03 -0.25064783435E+03  0.30745352282E+03  0.00000000000E+00 0.  1.
</event>
<event>
12    1  0.9873238E-001  0.2124139E+03  0.7818608E-02  0.1139942E+00
         21   -1    0    0  503  502  0.00000000000E+00  0.00000000000E+00  0.27169108560E+03  0.27169108560E+03  0.00000000000E+00 0.  1.
         21   -1    0    0  501  503 -0.00000000000E+00 -0.00000000000E+00 -0.20548105015E+03  0.20548105015E+03  0.00000000000E+00 0.  1.
          6    2    1    2  501    0 -0.40661470216E+02  0.11464372007E+03 -0.72908496811E+02  0.22325556448E+03  0.17242639140E+03 0.  0.
         24    2    3    3    0    0  0.23391097862E+02  0.61407792210E+01 -0.28060230969E+02  0.89430766329E+02  0.81397989997E+02 0.  0.
         -6    2    1    2    0  502  0.40661470216E+02 -0.11464372007E+03  0.13911853227E+03  0.25391657127E+03  0.17413535378E+03 0.  0.
        -24    2    5    5    0    0  0.53007837371E+02 -0.85732838854E+02  0.15773870722E+02  0.12654205512E+03  0.74860712225E+02 0.  0.
          5    1    3    3  501    0 -0.64052568078E+02  0.10850294085E+03 -0.44848265842E+02  0.13382479815E+03  0.47000000000E+01 0. -1.
        -11    1    4    4    0    0  0.80049627962E+01  0.17945970410E+02 -0.53757782081E+02  0.57236670218E+02  0.00000000000E+00 0.  1.
         12    1    4    4    0    0  0.15386135066E+02 -0.11805191189E+02  0.25697551112E+02  0.32194096111E+02  0.00000000000E+00 0. -1.
         -5    1    5    5    0  502 -0.12346367155E+02 -0.28910881219E+02  0.12334466154E+03  0.12737451616E+03  0.47000000000E+01 0.  1.
         11    1    6    6    0    0 -0.15912641575E+02 -0.32918893608E+02  0.15498201866E+02  0.39712214486E+02  0.00000000000E+00 0. -1.
        -12    1    6    6    0    0  0.68920478947E+02 -0.52813945247E+02  0.27566885578E+00  0.86829840631E+02  0.00000000000E+00 0.  1.
</event>
<event>
12    1  0.9873238E-001  0.2452127E+03  0.7818608E-02  0.1116437E+00
         21   -1    0    0  503  502  0.00000000000E+00  0.00000000000E+00  0.38991780887E+03  0.38991780887E+03  0.00000000000E+00 0. -1.
         21   -1    0    0  501  503 -0.00000000000E+00 -0.00000000000E+00 -0.36001206348E+03  0.36001206348E+03  0.00000000000E+00 0. -1.
          6    2    1    2  501    0  0.17388948785E+03  0.12209329753E+02  0.29864317031E+03  0.38641558001E+03  0.17246053341E+03 0.  0.
         24    2    3    3    0    0  0.51480771034E+02  0.51534161008E+02  0.86202852059E+02  0.13805432070E+03  0.79511157864E+02 0.  0.
         -6    2    1    2    0  502 -0.17388948785E+03 -0.12209329753E+02 -0.26873742492E+03  0.36351429233E+03  0.17186103532E+03 0.  0.
        -24    2    5    5    0    0 -0.15777988588E+03  0.11963360201E+02 -0.12795556916E+03  0.21968988854E+03  0.82785295016E+02 0.  0.
          5    1    3    3  501    0  0.12240871681E+03 -0.39324831255E+02  0.21244031825E+03  0.24836125931E+03  0.47000000000E+01 0. -1.
        -13    1    4    4    0    0  0.19743472418E+02  0.23228796664E+01 -0.12359881549E+02  0.23408698062E+02  0.00000000000E+00 0.  1.
         14    1    4    4    0    0  0.31737298616E+02  0.49211281342E+02  0.98562733608E+02  0.11464562264E+03  0.00000000000E+00 0. -1.
         -5    1    5    5    0  502 -0.16109601963E+02 -0.24172689954E+02 -0.14078185576E+03  0.14382440379E+03  0.47000000000E+01 0.  1.
         11    1    6    6    0    0  0.20076182102E+01  0.69723540892E+01 -0.32918653227E+02  0.33708781982E+02  0.00000000000E+00 0. -1.
        -12    1    6    6    0    0 -0.15978750409E+03  0.49910061120E+01 -0.95036915932E+02  0.18598110656E+03  0.00000000000E+00 0.  1.
</event>
<event>
12    1  0.9873238E-001  0.2305021E+03  0.7818608E-02  0.1126488E+00
         21   -1    0    0  503  502  0.00000000000E+00  0.00000000000E+00  0.11241744853E+04  0.11241744853E+04  0.00000000000E+00 0.  1.
         21   -1    0    0  501  503 -0.00000000000E+00 -0.00000000000E+00 -0.52615264825E+02  0.52615264825E+02  0.00000000000E+00 0.  1.
          6    2    1    2  501    0 -0.47073493751E+02 -0.14616650863E+03  0.72871701059E+03  0.76430340671E+03  0.17190303643E+03 0.  0.
         24    2    3    3    0    0 -0.74408581532E+01 -0.10938665022E+03  0.67332131180E+03  0.68675163541E+03  0.79027932956E+02 0.  0.
         -6    2    1    2    0  502  0.47073493751E+02  0.14616650863E+03  0.34284220990E+03  0.41248634342E+03  0.17036326060E+03 0.  0.
        -24    2    5    5    0    0  0.66234455043E+02  0.13071991984E+03  0.34883170399E+03  0.38672389823E+03  0.79981968441E+02 0.  0.
          5    1    3    3  501    0 -0.39632635598E+02 -0.36779858407E+02  0.55395698781E+02  0.77551771303E+02  0.47000000000E+01 0. -1.
        -13    1    4    4    0    0 -0.22837235805E+02 -0.17116583860E+01  0.18806784554E+03  0.18945707598E+03  0.00000000000E+00 0.  1.
         14    1    4    4    0    0  0.15396377652E+02 -0.10767499184E+03  0.48525346626E+03  0.49729455942E+03  0.00000000000E+00 0. -1.
         -5    1    5    5    0  502 -0.19160961292E+02  0.15446588796E+02 -0.59894940899E+01  0.25762445197E+02  0.47000000000E+01 0.  1.
         13    1    6    6    0    0  0.19860161579E+02  0.11485247802E+03  0.22172618190E+03  0.25049554380E+03  0.00000000000E+00 0. -1.
        -14    1    6    6    0    0  0.46374293465E+02  0.15867441820E+02  0.12710552209E+03  0.13622835443E+03  0.00000000000E+00 0.  1.
</event>
<event>
12    1  0.9873238E-001  0.3119621E+03  0.7818608E-02  0.1079536E+00
         21   -1    0    0  503  502  0.00000000000E+00  0.00000000000E+00  0.71100303963E+02  0.71100303963E+02  0.00000000000E+00 0. -1.
         21   -1    0    0  501  503 -0.00000000000E+00 -0.00000000000E+00 -0.13833994509E+04  0.13833994509E+04  0.00000000000E+00 0. -1.
          6    2    1    2  501    0 -0.17337191849E+02 -0.25864723392E+03 -0.74089347603E+03  0.80348145988E+03  0.17164015761E+03 0.  0.
         24    2    3    3    0    0 -0.52537791967E+02 -0.20744127237E+03 -0.67649163894E+03  0.71386662089E+03  0.78565347250E+02 0.  0.
         -6    2    1    2    0  502  0.17337191849E+02  0.25864723392E+03 -0.57140567094E+03  0.65101829502E+03  0.17355520688E+03 0.  0.
        -24    2    5    5    0    0  0.69806186652E+02  0.17986927422E+03 -0.31495999983E+03  0.37762218206E+03  0.78567495758E+02 0.  0.
          5    1    3    3  501    0  0.35200600119E+02 -0.51205961551E+02 -0.64401837088E+02  0.89614838991E+02  0.47000000000E+01 0. -1.
        -13    1    4    4    0    0  0.18719309005E+02 -0.77659892384E+02 -0.23297649678E+03  0.24629153348E+03  0.00000000000E+00 0.  1.
         14    1    4    4    0    0 -0.71257100972E+02 -0.12978137998E+03 -0.44351514217E+03  0.46757508740E+03  0.00000000000E+00 0. -1.
         -5    1    5    5    0  502 -0.52468994803E+02  0.78777959702E+02 -0.25644567111E+03  0.27339611296E+03  0.47000000000E+01 0.  1.
         13    1    6    6    0    0  0.40535829984E+02  0.25751332248E+02 -0.10563045330E+03  0.11603481068E+03  0.00000000000E+00 0. -1.
        -14    1    6    6    0    0  0.29270356667E+02  0.15411794197E+03 -0.20932954653E+03  0.26158737138E+03  0.00000000000E+00 0.  1.
</event>
<event>
12    1  0.9873238E-001  0.1876259E+03  0.7818608E-02  0.1164623E+00
         21   -1    0    0  501  502  0.00000000000E+00  0.00000000000E+00  0.23578171588E+03  0.23578171588E+03  0.00000000000E+00 0. -1.
         21   -1    0    0  502  503 -0.00000000000E+00 -0.00000000000E+00 -0.13640802161E+03  0.13640802161E+03  0.00000000000E+00 0. -1.
         -6    2    1    2    0  503  0.12942945158E+02 -0.57337448843E+02  0.54910818108E+02  0.19549598295E+03  0.17818074681E+03 0.  0.
        -24    2    3    3    0    0  0.12620034028E+02 -0.96804103139E+02  0.79349609695E+02  0.14883694731E+03  0.79534751407E+02 0.  0.
          6    2    1    2  501    0 -0.12942945158E+02  0.57337448843E+02  0.44462876166E+02  0.17669375454E+03  0.16058839518E+03 0.  0.
         24    2    5    5    0    0  0.38960249529E+02  0.18263748919E+02  0.29767967060E+01  0.99467590359E+02  0.89629652712E+02 0.  0.
          5    1    5    5  501    0 -0.51903194687E+02  0.39073699925E+02  0.41486079460E+02  0.77226164177E+02  0.47000000000E+01 0. -1.
        -11    1    6    6    0    0  0.37177123503E+02  0.31037471273E+02 -0.34743332608E+02  0.59603374868E+02  0.00000000000E+00 0.  1.
         12    1    6    6    0    0  0.17831260256E+01 -0.12773722354E+02  0.37720129314E+02  0.39864215490E+02  0.00000000000E+00 0. -1.
         -5    1    3    3    0  503  0.32291112971E+00  0.39466654295E+02 -0.24438791587E+02  0.46659035643E+02  0.47000000000E+01 0.  1.
         13    1    4    4    0    0 -0.83132537190E+00  0.11205919036E+02 -0.38047733779E+01  0.11863390062E+02  0.00000000000E+00 0. -1.
        -14    1    4    4    0    0  0.13451359400E+02 -0.10801002217E+03  0.83154383073E+02  0.13697355724E+03  0.00000000000E+00 0.  1.
</event>
<event>
12    1  0.9873238E-001  0.1888651E+03  0.7818608E-02  0.1159671E+00
         21   -1    0    0  501  502  0.00000000000E+00  0.00000000000E+00  0.12339428239E+03  0.12339428239E+03  0.00000000000E+00 0. -1.
         21   -1    0    0  502  503 -0.00000000000E+00 -0.00000000000E+00 -0.46836751777E+03  0.46836751777E+03  0.00000000000E+00 0. -1.
         -6    2    1    2    0  503 -0.58416243874E+02  0.50811610446E+02 -0.35594880337E+03  0.40257809237E+03  0.17139221841E+03 0.  0.
        -24    2    3    3    0    0 -0.65963818372E+02  0.94147051956E+02 -0.30140601762E+03  0.33235037812E+03  0.79976831975E+02 0.  0.
          6    2    1    2  501    0  0.58416243874E+02 -0.50811610446E+02  0.10975567993E+02  0.18918370779E+03  0.17226646481E+03 0.  0.
         24    2    5    5    0    0  0.65777242771E+02 -0.91483450131E+02  0.34173004315E+02  0.14155394924E+03  0.78573907922E+02 0.  0.
          5    1    5    5  501    0 -0.73609988964E+01  0.40671839685E+02 -0.23197436322E+02  0.47629758555E+02  0.47000000000E+01 0. -1.
        -13    1    6    6    0    0  0.30061020120E+02 -0.35703038829E+02  0.54987844278E+02  0.72125133835E+02  0.00000000000E+00 0.  1.
         14    1    6    6    0    0  0.35716222650E+02 -0.55780411303E+02 -0.20814839963E+02  0.69428815402E+02  0.00000000000E+00 0. -1.
         -5    1    3    3    0  503  0.75475744981E+01 -0.43335441509E+02 -0.54542785750E+02  0.70227714252E+02  0.47000000000E+01 0.  1.
         13    1    4    4    0    0  0.18412171423E+02  0.10409401056E+02 -0.43876080003E+02  0.48708049471E+02  0.00000000000E+00 0. -1.
        -14    1    4    4    0    0 -0.84375989796E+02  0.83737650900E+02 -0.25752993761E+03  0.28364232865E+03  0.00000000000E+00 0.  1.
</event>
<event>
12    1  0.9873238E-001  0.2722394E+03  0.7818608E-02  0.1100092E+00
         21   -1    0    0  503  502  0.00000000000E+00  0.00000000000E+00  0.24718601660E+03  0.24718601660E+03  0.00000000000E+00 0. -1.
         21   -1    0    0  501  503 -0.00000000000E+00 -0.00000000000E+00 -0.33858130089E+03  0.33858130089E+03  0.00000000000E+00 0. -1.
          6    2    1    2  501    0  0.16033336574E+03  0.13852608170E+03  0.54291554395E+02  0.27699724356E+03  0.16995186549E+03 0.  0.
         24    2    3    3    0    0  0.70296476221E+02  0.15506857051E+03  0.43514683896E+02  0.18470138045E+03  0.56861376132E+02 0.  0.
         -6    2    1    2    0  502 -0.16033336574E+03 -0.13852608170E+03 -0.14568683869E+03  0.30877007392E+03  0.17093285261E+03 0.  0.
        -24    2    5    5    0    0 -0.17441981925E+03 -0.73443393834E+02 -0.11144415090E+03  0.23374450428E+03  0.80003056608E+02 0.  0.
          5    1    3    3  501    0  0.90036889518E+02 -0.16542488810E+02  0.10776870499E+02  0.92295863114E+02  0.47000000000E+01 0. -1.
        -11    1    4    4    0    0  0.73201389755E+02  0.12906097650E+03  0.51948952339E+02  0.15720646541E+03  0.00000000000E+00 0.  1.
         12    1    4    4    0    0 -0.29049135339E+01  0.26007594011E+02 -0.84342684429E+01  0.27494915040E+02  0.00000000000E+00 0. -1.
         -5    1    5    5    0  502  0.14086453513E+02 -0.65082687869E+02 -0.34242687787E+02  0.75025569639E+02  0.47000000000E+01 0.  1.
         13    1    6    6    0    0 -0.31153287777E+02  0.12987569025E+02 -0.20017827469E+01  0.33811409652E+02  0.00000000000E+00 0. -1.
        -14    1    6    6    0    0 -0.14326653148E+03 -0.86430962859E+02 -0.10944236815E+03  0.19993309463E+03  0.00000000000E+00 0.  1.
</event>
<event>
12    1  0.9873238E-001  0.1782854E+03  0.7818608E-02  0.1169806E+00
         21   -1    0    0  501  502  0.00000000000E+00  0.00000000000E+00  0.36194756595E+03  0.36194756595E+03  0.00000000000E+00 0. -1.
         21   -1    0    0  502  503 -0.00000000000E+00 -0.00000000000E+00 -0.89098110156E+02  0.89098110156E+02  0.00000000000E+00 0. -1.
         -6    2    1    2    0  503 -0.21860470602E+02  0.31738808129E+02  0.16924600093E+03  0.24484343986E+03  0.17268140924E+03 0.  0.
        -24    2    3    3    0    0  0.40347189358E+02 -0.23958482356E+02  0.94053825806E+02  0.13238040449E+03  0.80476982918E+02 0.  0.
          6    2    1    2  501    0  0.21860470602E+02 -0.31738808129E+02  0.10360345487E+03  0.20620223625E+03  0.17407025666E+03 0.  0.
         24    2    5    5    0    0 -0.66936515022E+01 -0.84889383686E+02  0.62503798592E+02  0.13304765117E+03  0.80894624115E+02 0.  0.
          5    1    5    5  501    0  0.28554122104E+02  0.53150575557E+02  0.41099656278E+02  0.73154585074E+02  0.47000000000E+01 0. -1.
        -11    1    6    6    0    0  0.26140985277E+02 -0.60825345207E+02  0.64311849685E+02  0.92298904331E+02  0.00000000000E+00 0.  1.
         12    1    6    6    0    0 -0.32834636779E+02 -0.24064038479E+02 -0.18080510926E+01  0.40748746841E+02  0.00000000000E+00 0. -1.
         -5    1    3    3    0  503 -0.62207659960E+02  0.55697290485E+02  0.75192175122E+02  0.11246303537E+03  0.47000000000E+01 0.  1.
         13    1    4    4    0    0  0.36975654720E+02 -0.37894396996E+02  0.19439627851E+02  0.56401094818E+02  0.00000000000E+00 0. -1.
        -14    1    4    4    0    0  0.33715346383E+01  0.13935914640E+02  0.74614197954E+02  0.75979309677E+02  0.00000000000E+00 0.  1.
</event>
<event>
12    1  0.9873238E-001  0.2042149E+03  0.7818608E-02  0.1146822E+00
         21   -1    0    0  501  502  0.00000000000E+00  0.00000000000E+00  0.77710289971E+02  0.77710289971E+02  0.00000000000E+00 0. -1.
         21   -1    0    0  502  503 -0.00000000000E+00 -0.00000000000E+00 -0.53753915723E+03  0.53753915723E+03  0.00000000000E+00 0. -1.
         -6    2    1    2    0  503  0.68577814398E+02 -0.88210419525E+02 -0.26988372172E+03  0.33843897824E+03  0.17093777816E+03 0.  0.
        -24    2    3    3    0    0  0.18168680067E+02 -0.13168583867E+02 -0.21960632143E+03  0.23489060837E+03  0.80269227942E+02 0.  0.
          6    2    1    2  501    0 -0.68577814398E+02  0.88210419525E+02 -0.18994514553E+03  0.27681046895E+03  0.16751382830E+03 0.  0.
         24    2    5    5    0    0 -0.91054309624E+02  0.15237608082E+02 -0.13491302173E+03  0.18257221399E+03  0.81289715764E+02 0.  0.
          5    1    5    5  501    0  0.22476495226E+02  0.72972811443E+02 -0.55032123802E+02  0.94238254959E+02  0.47000000000E+01 0. -1.
        -13    1    6    6    0    0 -0.16391998729E+02  0.28021383821E+02 -0.87204894226E+02  0.93051540291E+02  0.00000000000E+00 0.  1.
         14    1    6    6    0    0 -0.74662310895E+02 -0.12783775739E+02 -0.47708127506E+02  0.89520673704E+02  0.00000000000E+00 0. -1.
         -5    1    3    3    0  503  0.50409134330E+02 -0.75041835657E+02 -0.50277400297E+02  0.10354836987E+03  0.47000000000E+01 0.  1.
         13    1    4    4    0    0  0.21874142684E+02  0.30797679306E+02 -0.79844647718E+02  0.88329739827E+02  0.00000000000E+00 0. -1.
        -14    1    4    4    0    0 -0.37054626171E+01 -0.43966263173E+02 -0.13976167371E+03  0.14656086854E+03  0.00000000000E+00 0.  1.
</event>
<event>
12    1  0.9873238E-001  0.1863489E+03  0.7818608E-02  0.1162795E+00
         21   -1    0    0  503  502  0.00000000000E+00  0.00000000000E+00  0.16760704501E+03  0.16760704501E+03  0.00000000000E+00 0.  1.
         21   -1    0    0  501  503 -0.00000000000E+00 -0.00000000000E+00 -0.25581876291E+03  0.25581876291E+03  0.00000000000E+00 0.  1.
          6    2    1    2  501    0  0.40872368037E+01  0.59322508076E+02  0.52163997866E+02  0.19351226323E+03  0.17660704368E+03 0.  0.
         24    2    3    3    0    0  0.42609621056E+02 -0.66870634651E+00 -0.19965208301E+02  0.91985753006E+02  0.79036334928E+02 0.  0.
         -6    2    1    2    0  502 -0.40872368037E+01 -0.59322508076E+02 -0.14037571577E+03  0.22991354468E+03  0.17210180412E+03 0.  0.
        -24    2    5    5    0    0 -0.51850920641E+02 -0.82581071374E+02 -0.11433470048E+03  0.17056243064E+03  0.80690567562E+02 0.  0.
          5    1    3    3  501    0 -0.38522384252E+02  0.59991214423E+02  0.72129206167E+02  0.10152651023E+03  0.47000000000E+01 0. -1.
        -11    1    4    4    0    0  0.10033038360E+02 -0.12748821720E+02  0.28237657534E+02  0.32566234308E+02  0.00000000000E+00 0.  1.
         12    1    4    4    0    0  0.32576582695E+02  0.12080115374E+02 -0.48202865835E+02  0.59419518698E+02  0.00000000000E+00 0. -1.
         -5    1    5    5    0  502  0.47763683838E+02  0.23258563298E+02 -0.26041015291E+02  0.59351114040E+02  0.47000000000E+01 0.  1.
         13    1    6    6    0    0 -0.11749483393E+02 -0.65904644385E+02 -0.25419950520E+02  0.71607586162E+02  0.00000000000E+00 0. -1.
        -14    1    6    6    0    0 -0.40101437249E+02 -0.16676426989E+02 -0.88914749957E+02  0.98954844482E+02  0.00000000000E+00 0.  1.
</event>
<event>
12    1  0.9873238E-001  0.2342568E+03  0.7818608E-02  0.1124265E+00
         21   -1    0    0  501  502  0.00000000000E+00  0.00000000000E+00  0.20642814371E+03  0.20642814371E+03  0.00000000000E+00 0. -1.
         21   -1    0    0  502  503 -0.00000000000E+00 -0.00000000000E+00 -0.26200989256E+03  0.26200989256E+03  0.00000000000E+00 0. -1.
         -6    2    1    2    0  503  0.88824176898E+02 -0.12742846862E+03 -0.27783717356E+02  0.23253763857E+03  0.17080418432E+03 0.  0.
        -24    2    3    3    0    0  0.12062811848E+03 -0.67060637245E+02 -0.35311027712E+02  0.16372981803E+03  0.80698900857E+02 0.  0.
          6    2    1    2  501    0 -0.88824176898E+02  0.12742846862E+03 -0.27798031494E+02  0.23590039771E+03  0.17535255364E+03 0.  0.
         24    2    5    5    0    0  0.12273954576E+02  0.27856832212E+02 -0.36943156579E+02  0.93629296365E+02  0.80467355232E+02 0.  0.
          5    1    5    5  501    0 -0.10109813147E+03  0.99571636411E+02  0.91451250850E+01  0.14227110134E+03  0.47000000000E+01 0. -1.
        -11    1    6    6    0    0 -0.14828723900E+01 -0.18739853468E+01  0.24170947410E+02  0.24288792277E+02  0.00000000000E+00 0.  1.
         12    1    6    6    0    0  0.13756826966E+02  0.29730817559E+02 -0.61114103988E+02  0.69340504088E+02  0.00000000000E+00 0. -1.
         -5    1    3    3    0  503 -0.31803941580E+02 -0.60367831378E+02  0.75273103562E+01  0.68807820533E+02  0.47000000000E+01 0.  1.
         13    1    4    4    0    0  0.94009852618E+02 -0.18632263462E+02  0.39847533872E+01  0.95921279654E+02  0.00000000000E+00 0. -1.
        -14    1    4    4    0    0  0.26618265859E+02 -0.48428373784E+02 -0.39295781099E+02  0.67808538378E+02  0.00000000000E+00 0.  1.
</event>
<event>
12    1  0.9873238E-001  0.2927384E+03  0.7818608E-02  0.1089075E+00
         21   -1    0    0  503  502  0.00000000000E+00  0.00000000000E+00  0.19579096354E+03  0.19579096354E+03  0.00000000000E+00 0.  1.
         21   -1    0    0  501  503 -0.00000000000E+00 -0.00000000000E+00 -0.46261022272E+03  0.46261022272E+03  0.00000000000E+00 0. -1.
          6    2    1    2  501    0  0.16272983310E+03  0.17163610189E+03 -0.54193593699E+02  0.29659260999E+03  0.17055873080E+03 0.  0.
         24    2    3    3    0    0  0.82228164282E+02  0.23281938326E+02  0.55465028938E+01  0.11748246045E+03  0.80422914426E+02 0.  0.
         -6    2    1    2    0  502 -0.16272983310E+03 -0.17163610189E+03 -0.21262566548E+03  0.36180857627E+03  0.17249875996E+03 0.  0.
        -24    2    5    5    0    0 -0.17736545914E+02 -0.10108013538E+03 -0.91844582119E+02  0.16028597744E+03  0.82002368697E+02 0.  0.
          5    1    3    3  501    0  0.80501668816E+02  0.14835416356E+03 -0.59740096593E+02  0.17911014954E+03  0.47000000000E+01 0. -1.
        -11    1    4    4    0    0  0.77265913997E+01  0.20636353138E+02  0.31589692403E+02  0.38515814306E+02  0.00000000000E+00 0.  1.
         12    1    4    4    0    0  0.74501572882E+02  0.26455851881E+01 -0.26043189509E+02  0.78966646141E+02  0.00000000000E+00 0. -1.
         -5    1    5    5    0  502 -0.14499328718E+03 -0.70555966512E+02 -0.12078108336E+03  0.20152259882E+03  0.47000000000E+01 0.  1.
         13    1    6    6    0    0  0.12751101654E+02 -0.65901400289E+02 -0.91814754545E+02  0.11373449040E+03  0.00000000000E+00 0. -1.
        -14    1    6    6    0    0 -0.30487647569E+02 -0.35178735089E+02 -0.29827573189E-01  0.46551487049E+02  0.00000000000E+00 0.  1.
</event>
<event>
12    1  0.9873238E-001  0.1808583E+03  0.7818608E-02  0.1167368E+00
         21   -1    0    0  503  502  0.00000000000E+00  0.00000000000E+00  0.13187675480E+03  0.13187675480E+03  0.00000000000E+00 0.  1.
         21   -1    0    0  501  503 -0.00000000000E+00 -0.00000000000E+00 -0.27536054723E+03  0.27536054723E+03  0.00000000000E+00 0.  1.
          6    2    1    2  501    0 -0.34645956422E+02 -0.38643326626E+02 -0.47493810658E+01  0.17929660704E+03  0.17155485329E+03 0.  0.
         24    2    3    3    0    0  0.41015295825E+02 -0.12638740431E+01  0.16105439443E+02  0.92239946727E+02  0.81024506930E+02 0.  0.
         -6    2    1    2    0  502  0.34645956422E+02  0.38643326626E+02 -0.13873441137E+03  0.22794069499E+03  0.17325147775E+03 0.  0.
        -24    2    5    5    0    0  0.75851283240E+02 -0.83471418164E+01 -0.57662993696E+02  0.12546802621E+03  0.81204142835E+02 0.  0.
          5    1    3    3  501    0 -0.75661252247E+02 -0.37379452583E+02 -0.20854820508E+02  0.87056660316E+02  0.47000000000E+01 0. -1.
        -11    1    4    4    0    0 -0.22305768431E+02  0.12423955220E+02  0.89806956622E+01  0.27065750741E+02  0.00000000000E+00 0.  1.
         12    1    4    4    0    0  0.63321064256E+02 -0.13687829263E+02  0.71247437803E+01  0.65174195986E+02  0.00000000000E+00 0. -1.
         -5    1    5    5    0  502 -0.41205326819E+02  0.46990468443E+02 -0.81071417671E+02  0.10247266878E+03  0.47000000000E+01 0.  1.
         11    1    6    6    0    0  0.61449615238E+02  0.19722057721E+02 -0.58440615992E+01  0.64800986333E+02  0.00000000000E+00 0. -1.
        -12    1    6    6    0    0  0.14401668002E+02 -0.28069199538E+02 -0.51818932096E+02  0.60667039878E+02  0.00000000000E+00 0.  1.
</event>
<event>
12    1  0.9873238E-001  0.2328837E+03  0.7818608E-02  0.1125279E+00
         21   -1    0    0  501  502  0.00000000000E+00  0.00000000000E+00  0.51655881010E+03  0.51655881010E+03  0.00000000000E+00 0.  1.
         21   -1    0    0  502  503 -0.00000000000E+00 -0.00000000000E+00 -0.10528648124E+03  0.10528648124E+03  0.00000000000E+00 0.  1.
         -6    2    1    2    0  503 -0.11193520014E+03  0.10985493235E+03  0.24981500429E+03  0.34152944472E+03  0.17215466898E+03 0.  0.
        -24    2    3    3    0    0 -0.11836788988E+03  0.11032588726E+03  0.13992511554E+03  0.23135014111E+03  0.88097054870E+02 0.  0.
          6    2    1    2  501    0  0.11193520014E+03 -0.10985493235E+03  0.16145732456E+03  0.28031584662E+03  0.16706558898E+03 0.  0.
         24    2    5    5    0    0  0.12325626194E+03 -0.35369916369E+02  0.12283821646E+03  0.19552369158E+03  0.81836113393E+02 0.  0.
          5    1    5    5  501    0 -0.11321061798E+02 -0.74485015984E+02  0.38619108106E+02  0.84792155046E+02  0.47000000000E+01 0. -1.
        -11    1    6    6    0    0  0.67384473360E+02  0.18818953941E+02  0.81440207267E+02  0.10736539311E+03  0.00000000000E+00 0.  1.
         12    1    6    6    0    0  0.55871788575E+02 -0.54188870310E+02  0.41398009191E+02  0.88158298470E+02  0.00000000000E+00 0. -1.
         -5    1    3    3    0  503  0.64326897429E+01 -0.47095490329E+00  0.10988988875E+03  0.11017930361E+03  0.47000000000E+01 0.  1.
         13    1    4    4    0    0 -0.39833161107E+02  0.11844331889E+02  0.83619908376E+02  0.93376967173E+02  0.00000000000E+00 0. -1.
        -14    1    4    4    0    0 -0.78534728774E+02  0.98481555368E+02  0.56305207166E+02  0.13797317393E+03  0.00000000000E+00 0.  1.
</event>
<event>
12    1  0.9873238E-001  0.2036213E+03  0.7818608E-02  0.1146800E+00
         21   -1    0    0  503  502  0.00000000000E+00  0.00000000000E+00  0.39665351352E+03  0.39665351352E+03  0.00000000000E+00 0.  1.
         21   -1    0    0  501  503 -0.00000000000E+00 -0.00000000000E+00 -0.11139255766E+03  0.11139255766E+03  0.00000000000E+00 0.  1.
          6    2    1    2  501    0  0.65823331467E+02 -0.87188156650E+02  0.20647050049E+03  0.28971247336E+03  0.17137317182E+03 0.  0.
         24    2    3    3    0    0 -0.71532614261E+01 -0.13405578591E+02  0.47174218143E+02  0.99536640230E+02  0.86320664991E+02 0.  0.
         -6    2    1    2    0  502 -0.65823331467E+02  0.87188156650E+02  0.78790455363E+02  0.21833359782E+03  0.17183462531E+03 0.  0.
        -24    2    5    5    0    0 -0.73710411072E+02  0.12054286742E+03  0.85952672109E+02  0.18300471299E+03  0.78352125343E+02 0.  0.
          5    1    3    3  501    0  0.72976592894E+02 -0.73782578059E+02  0.15929628235E+03  0.19017583313E+03  0.47000000000E+01 0. -1.
        -13    1    4    4    0    0 -0.21591777382E+02 -0.39736152123E+02  0.52226336364E+02  0.69085142006E+02  0.00000000000E+00 0.  1.
         14    1    4    4    0    0  0.14438515956E+02  0.26330573532E+02 -0.50521182210E+01  0.30451498223E+02  0.00000000000E+00 0. -1.
         -5    1    5    5    0  502  0.78870796041E+01 -0.33354710770E+02 -0.71622167459E+01  0.35328884839E+02  0.47000000000E+01 0.  1.
         11    1    6    6    0    0 -0.32984689456E+02  0.84881014641E+02  0.90872236826E+02  0.12864890132E+03  0.00000000000E+00 0. -1.
        -12    1    6    6    0    0 -0.40725721616E+02  0.35661852780E+02 -0.49195647170E+01  0.54355811666E+02  0.00000000000E+00 0.  1.
</event>
<event>
12    1  0.9873238E-001  0.1983624E+03  0.7818608E-02  0.1153070E+00
         21   -1    0    0  501  502  0.00000000000E+00  0.00000000000E+00  0.50071147817E+03  0.50071147817E+03  0.00000000000E+00 0.  1.
         21   -1    0    0  502  503 -0.00000000000E+00 -0.00000000000E+00 -0.16530172246E+03  0.16530172246E+03  0.00000000000E+00 0.  1.
         -6    2    1    2    0  503 -0.59409823644E+01  0.10130632010E+03  0.41541265062E+03  0.46034259755E+03  0.17043876046E+03 0.  0.
        -24    2    3    3    0    0 -0.68104642439E+02  0.82173399285E+02  0.28325781964E+03  0.31297442377E+03  0.79544249808E+02 0.  0.
          6    2    1    2  501    0  0.59409823644E+01 -0.10130632010E+03 -0.80002894913E+02  0.20567060308E+03  0.16000521245E+03 0.  0.
         24    2    5    5    0    0  0.25479603903E+02 -0.12922860814E+03 -0.67900822184E+02  0.16920195812E+03  0.81667237000E+02 0.  0.
          5    1    5    5  501    0 -0.19538621538E+02  0.27922288040E+02 -0.12102072729E+02  0.36468644962E+02  0.47000000000E+01 0. -1.
        -11    1    6    6    0    0  0.33296856294E+01  0.11584011490E+02 -0.86412497762E+01  0.14830621237E+02  0.00000000000E+00 0.  1.
         12    1    6    6    0    0  0.22149918273E+02 -0.14081261963E+03 -0.59259572408E+02  0.15437133688E+03  0.00000000000E+00 0. -1.
         -5    1    3    3    0  503  0.62163660074E+02  0.19132920820E+02  0.13215483098E+03  0.14736817378E+03  0.47000000000E+01 0.  1.
         11    1    4    4    0    0 -0.29295313580E+02  0.79432146763E+02  0.13219169188E+03  0.15697873977E+03  0.00000000000E+00 0. -1.
        -12    1    4    4    0    0 -0.38809328858E+02  0.27412525214E+01  0.15106612776E+03  0.15599568400E+03  0.00000000000E+00 0.  1.
</event>
<event>
12    1  0.9873238E-001  0.2933464E+03  0.7818608E-02  0.1088872E+00
         21   -1    0    0  501  502  0.00000000000E+00  0.00000000000E+00  0.23804958748E+03  0.23804958748E+03  0.00000000000E+00 0. -1.
         21   -1    0    0  502  503 -0.00000000000E+00 -0.00000000000E+00 -0.44876349638E+03  0.44876349638E+03  0.00000000000E+00 0. -1.
         -6    2    1    2    0  503 -0.23155893871E+03  0.38840713862E+02  0.47910579777E+02  0.29723310883E+03  0.17585208039E+03 0.  0.
        -24    2    3    3    0    0 -0.10665859342E+03  0.80806352191E+02  0.54139301733E+02  0.16524031345E+03  0.80421235328E+02 0.  0.
          6    2    1    2  501    0  0.23155893871E+03 -0.38840713862E+02 -0.25862448868E+03  0.38957997503E+03  0.17250445690E+03 0.  0.
         24    2    5    5    0    0  0.18704737202E+03  0.16069396132E+02 -0.12697138368E+03  0.24007736702E+03  0.79186267789E+02 0.  0.
          5    1    5    5  501    0  0.44511566690E+02 -0.54910109995E+02 -0.13165310500E+03  0.14950260802E+03  0.47000000000E+01 0. -1.
        -11    1    6    6    0    0  0.51535738460E+02  0.33169262114E+02 -0.67303324304E+02  0.91026752937E+02  0.00000000000E+00 0.  1.
         12    1    6    6    0    0  0.13551163356E+03 -0.17099865982E+02 -0.59668059379E+02  0.14905061408E+03  0.00000000000E+00 0. -1.
         -5    1    3    3    0  503 -0.12490034529E+03 -0.41965638328E+02 -0.62287219557E+01  0.13199279538E+03  0.47000000000E+01 0.  1.
         11    1    4    4    0    0 -0.52189696490E+02  0.46654448964E+02 -0.14183718486E+02  0.71425344927E+02  0.00000000000E+00 0. -1.
        -12    1    4    4    0    0 -0.54468896929E+02  0.34151903227E+02  0.68323020219E+02  0.93814968520E+02  0.00000000000E+00 0.  1.
</event>
<event>
12    1  0.9873238E-001  0.2481634E+03  0.7818608E-02  0.1114552E+00
         21   -1    0    0  503  502  0.00000000000E+00  0.00000000000E+00  0.20318015178E+04  0.20318015178E+04  0.00000000000E+00 0.  1.
         21   -1    0    0  501  503 -0.00000000000E+00 -0.00000000000E+00 -0.80093613221E+02  0.80093613221E+02  0.00000000000E+00 0.  1.
          6    2    1    2  501    0 -0.94603707630E+01  0.17789593211E+03  0.18084948127E+04  0.18253727311E+04  0.17203388867E+03 0.  0.
         24    2    3    3    0    0 -0.85058510960E+01  0.13301065028E+02  0.67046389312E+03  0.67549063056E+03  0.80724792737E+02 0.  0.
         -6    2    1    2    0  502  0.94603707630E+01 -0.17789593211E+03  0.14321309190E+03  0.28652239987E+03  0.17276757411E+03 0.  0.
        -24    2    5    5    0    0 -0.24034975918E+02 -0.82508884017E+02  0.14361557237E+03  0.18531528953E+03  0.79567128249E+02 0.  0.
          5    1    3    3  501    0 -0.95451966701E+00  0.16459486708E+03  0.11380309195E+04  0.11498821006E+04  0.47000000000E+01 0. -1.
        -11    1    4    4    0    0 -0.37482889559E+02  0.23708671720E+02  0.25021476746E+03  0.25411512741E+03  0.00000000000E+00 0.  1.
         12    1    4    4    0    0  0.28977038463E+02 -0.10407606693E+02  0.42024912566E+03  0.42137550315E+03  0.00000000000E+00 0. -1.
         -5    1    5    5    0  502  0.33495346681E+02 -0.95387048091E+02 -0.40248047464E+00  0.10120711034E+03  0.47000000000E+01 0.  1.
         13    1    6    6    0    0  0.29182574402E+02 -0.25370121169E+02  0.54601252788E+02  0.66907118477E+02  0.00000000000E+00 0. -1.
        -14    1    6    6    0    0 -0.53217550320E+02 -0.57138762848E+02  0.89014319585E+02  0.11840817106E+03  0.00000000000E+00 0.  1.
</event>
<event>
12    1  0.9873238E-001  0.1895777E+03  0.7818608E-02  0.1158992E+00
         21   -1    0    0  501  502  0.00000000000E+00  0.00000000000E+00  0.87741265855E+03  0.87741265855E+03  0.00000000000E+00 0. -1.
         21   -1    0    0  502  503 -0.00000000000E+00 -0.00000000000E+00 -0.40818421116E+02  0.40818421116E+02  0.00000000000E+00 0. -1.
         -6    2    1    2    0  503 -0.73115264357E+02  0.29556205760E+02  0.41919192081E+03  0.46006693842E+03  0.17239579513E+03 0.  0.
        -24    2    3    3    0    0 -0.97607130735E+02 -0.21386995392E+02  0.24495679541E+03  0.27683203403E+03  0.81532741331E+02 0.  0.
          6    2    1    2  501    0  0.73115264357E+02 -0.29556205760E+02  0.41740231662E+03  0.45816414124E+03  0.17166908637E+03 0.  0.
         24    2    5    5    0    0  0.11411180588E+03 -0.44440777734E+02  0.32973433013E+03  0.36013336671E+03  0.77297001114E+02 0.  0.
          5    1    5    5  501    0 -0.40996541528E+02  0.14884571974E+02  0.87667986485E+02  0.98030774527E+02  0.47000000000E+01 0. -1.
        -11    1    6    6    0    0 -0.32068754771E+01 -0.22352456108E+02  0.83292289024E+02  0.86299025228E+02  0.00000000000E+00 0.  1.
         12    1    6    6    0    0  0.11731868136E+03 -0.22088321626E+02  0.24644204111E+03  0.27383434148E+03  0.00000000000E+00 0. -1.
         -5    1    3    3    0  503  0.24491866379E+02  0.50943201152E+02  0.17423512540E+03  0.18323490439E+03  0.47000000000E+01 0.  1.
         11    1    4    4    0    0  0.46121106765E+01 -0.24661571520E+02  0.67530069187E+02  0.72040092442E+02  0.00000000000E+00 0. -1.
        -12    1    4    4    0    0 -0.10221924141E+03  0.32745761279E+01  0.17742672622E+03  0.20479194159E+03  0.00000000000E+00 0.  1.
</event>
<event>
12    1  0.9873238E-001  0.1785618E+03  0.7818608E-02  0.1169842E+00
         21   -1    0    0  503  502  0.00000000000E+00  0.00000000000E+00  0.77143971587E+02  0.77143971587E+02  0.00000000000E+00 0.  1.
         21   -1    0    0  501  503 -0.00000000000E+00 -0.00000000000E+00 -0.43780843020E+03  0.43780843020E+03  0.00000000000E+00 0.  1.
          6    2    1    2  501    0 -0.22615530910E+02  0.29370664877E+02 -0.24704384490E+03  0.30330658062E+03  0.17201779661E+03 0.  0.
         24    2    3    3    0    0 -0.14088159662E+02  0.24801624816E+02 -0.40681689017E+02  0.96664325581E+02  0.82918002765E+02 0.  0.
         -6    2    1    2    0  502  0.22615530910E+02 -0.29370664877E+02 -0.11362061371E+03  0.21164582116E+03  0.17467172514E+03 0.  0.
        -24    2    5    5    0    0  0.70259701030E+02  0.18024266808E+02 -0.53254005234E+02  0.12118884844E+03  0.81175415793E+02 0.  0.
          5    1    3    3  501    0 -0.85273712472E+01  0.45690400610E+01 -0.20636215588E+03  0.20664225504E+03  0.47000000000E+01 0. -1.
        -11    1    4    4    0    0 -0.36886120850E+02  0.44056699020E+02 -0.31019801398E+02  0.65297830888E+02  0.00000000000E+00 0.  1.
         12    1    4    4    0    0  0.22797961188E+02 -0.19255074204E+02 -0.96618876187E+01  0.31366494692E+02  0.00000000000E+00 0. -1.
         -5    1    5    5    0  502 -0.47644170120E+02 -0.47394931685E+02 -0.60366608476E+02  0.90456972726E+02  0.47000000000E+01 0.  1.
         13    1    6    6    0    0 -0.40098764084E+01  0.18208182956E+02 -0.42155325679E+02  0.46094343672E+02  0.00000000000E+00 0. -1.
        -14    1    6    6    0    0  0.74269577438E+02 -0.18391614852E+00 -0.11098679555E+02  0.75094504765E+02  0.00000000000E+00 0.  1.
</event>
<event>
12    1  0.9873238E-001  0.2827723E+03  0.7818608E-02  0.1094203E+00
         21   -1    0    0  503  502  0.00000000000E+00  0.00000000000E+00  0.12374226008E+03  0.12374226008E+03  0.00000000000E+00 0.  1.
         21   -1    0    0  501  503 -0.00000000000E+00 -0.00000000000E+00 -0.73480606695E+03  0.73480606695E+03  0.00000000000E+00 0. -1.
          6    2    1    2  501    0  0.19075077020E+02  0.22317679319E+03 -0.15611627452E+03  0.32288292822E+03  0.17236401766E+03 0.  0.
         24    2    3    3    0    0  0.50889226852E+02  0.18479803201E+03 -0.61971560318E+02  0.21625091309E+03  0.78638140101E+02 0.  0.
         -6    2    1    2    0  502 -0.19075077020E+02 -0.22317679319E+03 -0.45494753235E+03  0.53566539881E+03  0.17259322902E+03 0.  0.
        -24    2    5    5    0    0 -0.17704117418E+02 -0.56477656871E+02 -0.26405662755E+03  0.28218579585E+03  0.79998495777E+02 0.  0.
          5    1    3    3  501    0 -0.31814149832E+02  0.38378761176E+02 -0.94144714199E+02  0.10663201513E+03  0.47000000000E+01 0. -1.
        -13    1    4    4    0    0  0.40801276450E+02  0.53000368477E+02  0.68296871540E+01  0.67234127088E+02  0.00000000000E+00 0.  1.
         14    1    4    4    0    0  0.10087950402E+02  0.13179766353E+03 -0.68801247472E+02  0.14901678600E+03  0.00000000000E+00 0. -1.
         -5    1    5    5    0  502 -0.13709596015E+01 -0.16669913631E+03 -0.19089090480E+03  0.25347960296E+03  0.47000000000E+01 0.  1.
         11    1    6    6    0    0 -0.20407623258E+02  0.12681709326E+02 -0.31928496526E+02  0.39959050651E+02  0.00000000000E+00 0. -1.
        -12    1    6    6    0    0  0.27035058402E+01 -0.69159366197E+02 -0.23212813102E+03  0.24222674520E+03  0.00000000000E+00 0.  1.
</event>
<event>
12    1  0.9873238E-001  0.5120199E+03  0.7818608E-02  0.1010704E+00
         21   -1    0    0  503  502  0.00000000000E+00  0.00000000000E+00  0.17034882451E+04  0.17034882451E+04  0.00000000000E+00 0.  1.
         21   -1    0    0  501  503 -0.00000000000E+00 -0.00000000000E+00 -0.18679372090E+03  0.18679372090E+03  0.00000000000E+00 0.  1.
          6    2    1    2  501    0  0.46351148481E+03  0.13334369400E+03  0.11552800622E+04  0.12635565519E+04  0.17111312168E+03 0.  0.
         24    2    3    3    0    0  0.18351639262E+03  0.89010646057E+02  0.62125440340E+03  0.65893421931E+03  0.81462323569E+02 0.  0.
         -6    2    1    2    0  502 -0.46351148481E+03 -0.13334369400E+03  0.36141446201E+03  0.62672541412E+03  0.17187464643E+03 0.  0.
        -24    2    5    5    0    0 -0.37404605630E+03 -0.12302883854E+03  0.21785121072E+03  0.45718793667E+03  0.80716244194E+02 0.  0.
          5    1    3    3  501    0  0.27999509219E+03  0.44333047939E+02  0.53402565879E+03  0.60462233257E+03  0.47000000000E+01 0. -1.
        -11    1    4    4    0    0  0.11009937264E+03  0.12719369975E+02  0.37106083456E+03  0.38725934097E+03  0.00000000000E+00 0.  1.
         12    1    4    4    0    0  0.73417019980E+02  0.76291276082E+02  0.25019356884E+03  0.27167487834E+03  0.00000000000E+00 0. -1.
         -5    1    5    5    0  502 -0.89465428503E+02 -0.10314855458E+02  0.14356325129E+03  0.16953747745E+03  0.47000000000E+01 0.  1.
         13    1    6    6    0    0 -0.82174172235E+02 -0.41669046787E+02  0.88430113429E+02  0.12770586910E+03  0.00000000000E+00 0. -1.
        -14    1    6    6    0    0 -0.29187188407E+03 -0.81359791752E+02  0.12942109729E+03  0.32948206757E+03  0.00000000000E+00 0.  1.
</event>
<event>
12    1  0.9873238E-001  0.2057675E+03  0.7818608E-02  0.1145044E+00
         21   -1    0    0  503  502  0.00000000000E+00  0.00000000000E+00  0.79385588996E+02  0.79385588996E+02  0.00000000000E+00 0.  1.
         21   -1    0    0  501  503 -0.00000000000E+00 -0.00000000000E+00 -0.11813693638E+04  0.11813693638E+04  0.00000000000E+00 0.  1.
          6    2    1    2  501    0 -0.11120730160E+03  0.21594887305E+02 -0.83499003765E+02  0.22169216501E+03  0.17129486073E+03 0.  0.
         24    2    3    3    0    0 -0.11610738599E+03  0.36937497739E+02 -0.11494688476E+03  0.18604857174E+03  0.80969012032E+02 0.  0.
         -6    2    1    2    0  502  0.11120730160E+03 -0.21594887305E+02 -0.10184847710E+04  0.10390627877E+04  0.17177556585E+03 0.  0.
        -24    2    5    5    0    0  0.81730915688E+02 -0.48782811232E+01 -0.98411599653E+03  0.99056943864E+03  0.77716008171E+02 0.  0.
          5    1    3    3  501    0  0.49000843905E+01 -0.15342610434E+02  0.31447880998E+02  0.35643593271E+02  0.47000000000E+01 0. -1.
        -13    1    4    4    0    0 -0.60283136045E+02  0.50530107865E+02 -0.31495022459E+02  0.84730659929E+02  0.00000000000E+00 0.  1.
         14    1    4    4    0    0 -0.55824249948E+02 -0.13592610126E+02 -0.83451862304E+02  0.10131791181E+03  0.00000000000E+00 0. -1.
         -5    1    5    5    0  502  0.29476385915E+02 -0.16716606182E+02 -0.34368774463E+02  0.48493349100E+02  0.47000000000E+01 0.  1.
         11    1    6    6    0    0  0.23753503730E+02  0.30845385615E+02 -0.21941123731E+03  0.22283841188E+03  0.00000000000E+00 0. -1.
        -12    1    6    6    0    0  0.57977411959E+02 -0.35723666738E+02 -0.76470475922E+03  0.76773102676E+03  0.00000000000E+00 0.  1.
</event>
<event>
12    1  0.9873238E-001  0.2509887E+03  0.7818608E-02  0.1113139E+00
         21   -1    0    0  501  502  0.00000000000E+00  0.00000000000E+00  0.26000068566E+03  0.26000068566E+03  0.00000000000E+00 0. -1.
         21   -1    0    0  502  503 -0.00000000000E+00 -0.00000000000E+00 -0.25639128898E+03  0.25639128898E+03  0.00000000000E+00 0. -1.
         -6    2    1    2    0  503 -0.12993370842E+03  0.12417470689E+03 -0.64444077874E+02  0.25913002287E+03  0.17519475782E+03 0.  0.
        -24    2    3    3    0    0  0.72017738363E+01  0.55866306695E+02 -0.32628618570E+02  0.10258452954E+03  0.79284608733E+02 0.  0.
          6    2    1    2  501    0  0.12993370842E+03 -0.12417470689E+03  0.68053474557E+02  0.25726195177E+03  0.17102722010E+03 0.  0.
         24    2    5    5    0    0  0.13196636679E+03 -0.15005169106E+03  0.40156894580E+02  0.21886847336E+03  0.79750865170E+02 0.  0.
          5    1    5    5  501    0 -0.20326583700E+01  0.25876984175E+02  0.27896579977E+02  0.38393478411E+02  0.47000000000E+01 0. -1.
        -11    1    6    6    0    0  0.10012021819E+03 -0.70528041003E+02  0.50723199804E+02  0.13255604723E+03  0.00000000000E+00 0.  1.
         12    1    6    6    0    0  0.31846148602E+02 -0.79523650057E+02 -0.10566305225E+02  0.86312426135E+02  0.00000000000E+00 0. -1.
         -5    1    3    3    0  503 -0.13713548226E+03  0.68308400190E+02 -0.31815459304E+02  0.15654549333E+03  0.47000000000E+01 0.  1.
         13    1    4    4    0    0 -0.32751517383E+02  0.73524920149E+01 -0.50204493746E+01  0.33940034497E+02  0.00000000000E+00 0. -1.
        -14    1    4    4    0    0  0.39953291219E+02  0.48513814680E+02 -0.27608169195E+02  0.68644495048E+02  0.00000000000E+00 0.  1.
</event>
<event>
12    1  0.9873238E-001  0.2733206E+03  0.7818608E-02  0.1099622E+00
         21   -1    0    0  503  502  0.00000000000E+00  0.00000000000E+00  0.29651732795E+03  0.29651732795E+03  0.00000000000E+00 0. -1.
         21   -1    0    0  501  503 -0.00000000000E+00 -0.00000000000E+00 -0.31880985453E+03  0.31880985453E+03  0.00000000000E+00 0. -1.
          6    2    1    2  501    0 -0.15664467019E+03 -0.14145931285E+03  0.13128967534E+03  0.30321799894E+03  0.17365450222E+03 0.  0.
         24    2    3    3    0    0 -0.15761460780E+02 -0.94148646542E+02  0.71543626960E+02  0.14297425293E+03  0.78808344426E+02 0.  0.
         -6    2    1    2    0  502  0.15664467019E+03  0.14145931285E+03 -0.15358220192E+03  0.31210918354E+03  0.17110336003E+03 0.  0.
        -24    2    5    5    0    0  0.10950857974E+03  0.32564336749E+02 -0.13115340369E+03  0.19125775478E+03  0.79534573617E+02 0.  0.
          5    1    3    3  501    0 -0.14088320941E+03 -0.47310666309E+02  0.59746048382E+02  0.16024374601E+03  0.47000000000E+01 0. -1.
        -11    1    4    4    0    0 -0.35523274833E+02 -0.90399886270E+02  0.38895637945E+02  0.10462749707E+03  0.00000000000E+00 0.  1.
         12    1    4    4    0    0  0.19761814052E+02 -0.37487602727E+01  0.32647989016E+02  0.38346755860E+02  0.00000000000E+00 0. -1.
         -5    1    5    5    0  502  0.47136090449E+02  0.10889497610E+03 -0.22428798232E+02  0.12085142876E+03  0.47000000000E+01 0.  1.
         13    1    6    6    0    0  0.18838422969E+02  0.75794443333E+01 -0.83289737664E+02  0.85729309786E+02  0.00000000000E+00 0. -1.
        -14    1    6    6    0    0  0.90670156769E+02  0.24984892415E+02 -0.47863666025E+02  0.10552844499E+03  0.00000000000E+00 0.  1.
</event>
<event>
12    1  0.9873238E-001  0.2217713E+03  0.7818608E-02  0.1132574E+00
         21   -1    0    0  503  502  0.00000000000E+00  0.00000000000E+00  0.70181341574E+02  0.70181341574E+02  0.00000000000E+00 0.  1.
         21   -1    0    0  501  503 -0.00000000000E+00 -0.00000000000E+00 -0.82040439658E+03  0.82040439658E+03  0.00000000000E+00 0.  1.
          6    2    1    2  501    0 -0.10257396934E+02  0.14019218339E+03 -0.20504642037E+03  0.30203733073E+03  0.17153265629E+03 0.  0.
         24    2    3    3    0    0  0.48524943122E+02  0.33401818299E+02 -0.10592255696E+03  0.14485216643E+03  0.79323454770E+02 0.  0.
         -6    2    1    2    0  502  0.10257396934E+02 -0.14019218339E+03 -0.54517663464E+03  0.58854840742E+03  0.17150102756E+03 0.  0.
        -24    2    5    5    0    0 -0.35621237471E+02 -0.13387551264E+03 -0.30232443117E+03  0.34127521407E+03  0.76662798094E+02 0.  0.
          5    1    3    3  501    0 -0.58782340056E+02  0.10679036509E+03 -0.99123863412E+02  0.15718516430E+03  0.47000000000E+01 0. -1.
        -13    1    4    4    0    0  0.37800375432E+02 -0.26929104827E+01 -0.99736084589E+02  0.10669304907E+03  0.00000000000E+00 0.  1.
         14    1    4    4    0    0  0.10724567690E+02  0.36094728782E+02 -0.61864723726E+01  0.38159117369E+02  0.00000000000E+00 0. -1.
         -5    1    5    5    0  502  0.45878634405E+02 -0.63166707479E+01 -0.24285220346E+03  0.24727319335E+03  0.47000000000E+01 0.  1.
         11    1    6    6    0    0  0.16541347584E+02 -0.80884098172E+02 -0.18165656116E+03  0.19953686309E+03  0.00000000000E+00 0. -1.
        -12    1    6    6    0    0 -0.52162585055E+02 -0.52991414467E+02 -0.12066787001E+03  0.14173835098E+03  0.00000000000E+00 0.  1.
</event>
<event>
12    1  0.9873238E-001  0.1809030E+03  0.7818608E-02  0.1168697E+00
         21   -1    0    0  501  502  0.00000000000E+00  0.00000000000E+00  0.27332985809E+03  0.27332985809E+03  0.00000000000E+00 0. -1.
         21   -1    0    0  502  503 -0.00000000000E+00 -0.00000000000E+00 -0.12304240903E+03  0.12304240903E+03  0.00000000000E+00 0. -1.
         -6    2    1    2    0  503 -0.51748297847E+02 -0.24284408461E+02  0.12430751612E+03  0.21361323220E+03  0.16404461462E+03 0.  0.
        -24    2    3    3    0    0 -0.58790473028E+02  0.20160859606E+02  0.13393062505E+03  0.16735668337E+03  0.78791288621E+02 0.  0.
          6    2    1    2  501    0  0.51748297847E+02  0.24284408461E+02  0.25979932940E+02  0.18275903491E+03  0.17163417230E+03 0.  0.
         24    2    5    5    0    0  0.53073541659E+02 -0.44637148523E+02  0.29292235501E+02  0.11358535034E+03  0.85054811149E+02 0.  0.
          5    1    5    5  501    0 -0.13252438115E+01  0.68921556984E+02 -0.33123025613E+01  0.69173684566E+02  0.47000000000E+01 0. -1.
        -13    1    6    6    0    0  0.25064874506E+01  0.79199669663E+01  0.39120471439E+02  0.39992744863E+02  0.00000000000E+00 0.  1.
         14    1    6    6    0    0  0.50567054208E+02 -0.52557115489E+02 -0.98282359371E+01  0.73592605481E+02  0.00000000000E+00 0. -1.
         -5    1    3    3    0  503  0.70421751809E+01 -0.44445268067E+02 -0.96231089298E+01  0.46256548837E+02  0.47000000000E+01 0.  1.
         11    1    4    4    0    0 -0.77659066817E+00  0.37581992909E+02  0.35037905073E+02  0.51387392189E+02  0.00000000000E+00 0. -1.
        -12    1    4    4    0    0 -0.58013882360E+02 -0.17421133303E+02  0.98892719975E+02  0.11596929118E+03  0.00000000000E+00 0.  1.
</event>
<event>
12    1  0.9873238E-001  0.2118415E+03  0.7818608E-02  0.1140188E+00
         21   -1    0    0  503  502  0.00000000000E+00  0.00000000000E+00  0.13275314491E+03  0.13275314491E+03  0.00000000000E+00 0. -1.
         21   -1    0    0  501  503 -0.00000000000E+00 -0.00000000000E+00 -0.33787297132E+03  0.33787297132E+03  0.00000000000E+00 0. -1.
          6    2    1    2  501    0 -0.25777591724E+02  0.12042861033E+03 -0.11083871022E+03  0.23908582060E+03  0.17236378827E+03 0.  0.
         24    2    3    3    0    0  0.33410316782E+02  0.33597914410E+01 -0.40355775582E+02  0.90095045902E+02  0.73218789988E+02 0.  0.
         -6    2    1    2    0  502  0.25777591724E+02 -0.12042861033E+03 -0.94281116188E+02  0.23154029562E+03  0.17191406343E+03 0.  0.
        -24    2    5    5    0    0 -0.25877002655E+02 -0.97322523197E+02 -0.77393672739E+01  0.12803351957E+03  0.78685395978E+02 0.  0.
          5    1    3    3  501    0 -0.59187908506E+02  0.11706881889E+03 -0.70482934638E+02  0.14899077470E+03  0.47000000000E+01 0. -1.
        -11    1    4    4    0    0  0.16120053323E+01  0.12526588871E+02 -0.53138527864E+02  0.54618834970E+02  0.00000000000E+00 0.  1.
         12    1    4    4    0    0  0.31798311450E+02 -0.91667974296E+01  0.12782752283E+02  0.35476210932E+02  0.00000000000E+00 0. -1.
         -5    1    5    5    0  502  0.51654594378E+02 -0.23106087137E+02 -0.86541748914E+02  0.10350677605E+03  0.47000000000E+01 0.  1.
         13    1    6    6    0    0 -0.24909874915E+02  0.37609960840E+01 -0.95165460455E+01  0.26929753219E+02  0.00000000000E+00 0. -1.
        -14    1    6    6    0    0 -0.96712774014E+00 -0.10108351928E+03  0.17771787715E+01  0.10110376635E+03  0.00000000000E+00 0.  1.
</event>
<event>
12    1  0.9873238E-001  0.2252606E+03  0.7818608E-02  0.1130213E+00
         21   -1    0    0  503  502  0.00000000000E+00  0.00000000000E+00  0.31566024327E+02  0.31566024327E+02  0.00000000000E+00 0. -1.
         21   -1    0    0  501  503 -0.00000000000E+00 -0.00000000000E+00 -0.16254682507E+04  0.16254682507E+04  0.00000000000E+00 0. -1.
          6    2    1    2  501    0 -0.65683190871E+02 -0.12581645507E+03 -0.69499442013E+03  0.73058851767E+03  0.17492362967E+03 0.  0.
         24    2    3    3    0    0 -0.84492178868E+02 -0.30393626784E+02 -0.29939080113E+03  0.32317765927E+03  0.82135539235E+02 0.  0.
         -6    2    1    2    0  502  0.65683190871E+02  0.12581645507E+03 -0.89890780620E+03  0.92644575731E+03  0.17355816102E+03 0.  0.
        -24    2    5    5    0    0  0.91328833547E+02  0.45095093037E+02 -0.39782212027E+03  0.41823065332E+03  0.79245925753E+02 0.  0.
          5    1    3    3  501    0  0.18808987997E+02 -0.95422828286E+02 -0.39560361899E+03  0.40741085840E+03  0.47000000000E+01 0. -1.
        -11    1    4    4    0    0 -0.30805669194E+01 -0.13592109186E+02 -0.16309392555E+01  0.14031938124E+02  0.00000000000E+00 0.  1.
         12    1    4    4    0    0 -0.81411611948E+02 -0.16801517598E+02 -0.29775986188E+03  0.30914572114E+03  0.00000000000E+00 0. -1.
         -5    1    5    5    0  502 -0.25645642676E+02  0.80721362032E+02 -0.50108568593E+03  0.50821510399E+03  0.47000000000E+01 0.  1.
         11    1    6    6    0    0  0.17373813582E+02  0.31181322292E+02 -0.44822820704E+02  0.57299297676E+02  0.00000000000E+00 0. -1.
        -12    1    6    6    0    0  0.73955019965E+02  0.13913770746E+02 -0.35299929957E+03  0.36093135565E+03  0.00000000000E+00 0.  1.
</event>
<event>
12    1  0.9873238E-001  0.2992205E+03  0.7818608E-02  0.1085762E+00
         21   -1    0    0  503  502  0.00000000000E+00  0.00000000000E+00  0.32747686676E+02  0.32747686676E+02  0.00000000000E+00 0.  1.
         21   -1    0    0  501  503 -0.00000000000E+00 -0.00000000000E+00 -0.27314710834E+04  0.27314710834E+04  0.00000000000E+00 0.  1.
          6    2    1    2  501    0 -0.14082007828E+03 -0.19911358481E+03 -0.14168818827E+04  0.14479169084E+04  0.17155929035E+03 0.  0.
         24    2    3    3    0    0 -0.11448029066E+03 -0.17405405518E+03 -0.81727378404E+03  0.84718924433E+03  0.79953902740E+02 0.  0.
         -6    2    1    2    0  502  0.14082007828E+03  0.19911358481E+03 -0.12818415140E+04  0.13163018616E+04  0.17336784528E+03 0.  0.
        -24    2    5    5    0    0 -0.41360189454E+00  0.50487925604E+02 -0.38635202598E+03  0.39762887729E+03  0.79319823322E+02 0.  0.
          5    1    3    3  501    0 -0.26339787621E+02 -0.25059529633E+02 -0.59960809868E+03  0.60072766412E+03  0.47000000000E+01 0. -1.
        -11    1    4    4    0    0 -0.17054274553E+02 -0.61764848026E+02 -0.37925692564E+03  0.38463172045E+03  0.00000000000E+00 0.  1.
         12    1    4    4    0    0 -0.97426016106E+02 -0.11228920715E+03 -0.43801685840E+03  0.46255752388E+03  0.00000000000E+00 0. -1.
         -5    1    5    5    0  502  0.14123368017E+03  0.14862565921E+03 -0.89548948799E+03  0.91867298431E+03  0.47000000000E+01 0.  1.
         11    1    6    6    0    0  0.33534609140E+02  0.33109554511E+02 -0.29334583256E+03  0.29710703474E+03  0.00000000000E+00 0. -1.
        -12    1    6    6    0    0 -0.33948211034E+02  0.17378371093E+02 -0.93006193423E+02  0.10052184255E+03  0.00000000000E+00 0.  1.
</event>
<event>
12    1  0.9873238E-001  0.3330302E+03  0.7818608E-02  0.1069917E+00
         21   -1    0    0  503  502  0.00000000000E+00  0.00000000000E+00  0.18583089318E+04  0.18583089318E+04  0.00000000000E+00 0. -1.
         21   -1    0    0  501  503 -0.00000000000E+00 -0.00000000000E+00 -0.67741772469E+02  0.67741772469E+02  0.00000000000E+00 0. -1.
          6    2    1    2  501    0  0.27317474823E+03  0.81032571115E+02  0.12300104302E+04  0.12740285038E+04  0.17038852451E+03 0.  0.
         24    2    3    3    0    0  0.13813423316E+03 -0.14995268014E+02  0.48455884645E+03  0.51036795067E+03  0.79826342536E+02 0.  0.
         -6    2    1    2    0  502 -0.27317474823E+03 -0.81032571115E+02  0.56055672911E+03  0.65202220051E+03  0.17239020494E+03 0.  0.
        -24    2    5    5    0    0 -0.26620289819E+03 -0.10181216110E+03  0.44832267861E+03  0.53757146812E+03  0.82220192327E+02 0.  0.
          5    1    3    3  501    0  0.13504051506E+03  0.96027839129E+02  0.74545158378E+03  0.76366055310E+03  0.47000000000E+01 0. -1.
        -11    1    4    4    0    0  0.13734650175E+03 -0.10081124050E+02  0.35594149164E+03  0.38165434109E+03  0.00000000000E+00 0.  1.
         12    1    4    4    0    0  0.78773141623E+00 -0.49141439636E+01  0.12861735481E+03  0.12871360958E+03  0.00000000000E+00 0. -1.
         -5    1    5    5    0  502 -0.69718500322E+01  0.20779589990E+02  0.11223405050E+03  0.11445073239E+03  0.47000000000E+01 0.  1.
         11    1    6    6    0    0  0.11395956331E+01 -0.11382437241E+02  0.60938043215E+01  0.12961211628E+02  0.00000000000E+00 0. -1.
        -12    1    6    6    0    0 -0.26734249383E+03 -0.90429723864E+02  0.44222887428E+03  0.52461025649E+03  0.00000000000E+00 0.  1.
</event>
<event>
12    1  0.9873238E-001  0.2814293E+03  0.7818608E-02  0.1095143E+00
         21   -1    0    0  503  502  0.00000000000E+00  0.00000000000E+00  0.66110761634E+03  0.66110761634E+03  0.00000000000E+00 0.  1.
         21   -1    0    0  501  503 -0.00000000000E+00 -0.00000000000E+00 -0.12167745655E+03  0.12167745655E+03  0.00000000000E+00 0. -1.
          6    2    1    2  501    0 -0.18745508589E+03  0.12009723447E+03  0.32612091353E+03  0.42965153736E+03  0.16936008492E+03 0.  0.
         24    2    3    3    0    0 -0.13483257596E+03  0.10740395153E+03  0.13985409361E+03  0.23562147220E+03  0.79011887198E+02 0.  0.
         -6    2    1    2    0  502  0.18745508589E+03 -0.12009723447E+03  0.21330924625E+03  0.35313353553E+03  0.17216185531E+03 0.  0.
        -24    2    5    5    0    0  0.13228324686E+03 -0.14713650948E+03  0.13424038143E+03  0.25288868728E+03  0.82366245082E+02 0.  0.
          5    1    3    3  501    0 -0.52622509928E+02  0.12693282942E+02  0.18626681992E+03  0.19403006516E+03  0.47000000000E+01 0. -1.
        -11    1    4    4    0    0 -0.25443985349E+01 -0.11316000834E+02  0.11829682454E+02  0.16567052416E+02  0.00000000000E+00 0.  1.
         12    1    4    4    0    0 -0.13228817743E+03  0.11871995236E+03  0.12802441116E+03  0.21905441979E+03  0.00000000000E+00 0. -1.
         -5    1    5    5    0  502  0.55171839036E+02  0.27039275006E+02  0.79068864828E+02  0.10024484825E+03  0.47000000000E+01 0.  1.
         11    1    6    6    0    0  0.78067870510E+02 -0.13630198718E+03  0.11370209917E+03  0.19390975084E+03  0.00000000000E+00 0. -1.
        -12    1    6    6    0    0  0.54215376346E+02 -0.10834522302E+02  0.20538282253E+02  0.58978936441E+02  0.00000000000E+00 0.  1.
</event>
<event>
12    1  0.9873238E-001  0.2640043E+03  0.7818608E-02  0.1105000E+00
         21   -1    0    0  501  502  0.00000000000E+00  0.00000000000E+00  0.76096903951E+02  0.76096903951E+02  0.00000000000E+00 0.  1.
         21   -1    0    0  502  503 -0.00000000000E+00 -0.00000000000E+00 -0.11145498260E+04  0.11145498260E+04  0.00000000000E+00 0. -1.
         -6    2    1    2    0  503 -0.44362235906E+02  0.19510936528E+03 -0.26568841462E+03  0.37455120426E+03  0.17222833261E+03 0.  0.
        -24    2    3    3    0    0  0.34326145102E+01  0.30393000947E+02 -0.14118547952E+03  0.16256323466E+03  0.74551648460E+02 0.  0.
          6    2    1    2  501    0  0.44362235906E+02 -0.19510936528E+03 -0.77276450739E+03  0.81609552565E+03  0.16973877199E+03 0.  0.
         24    2    5    5    0    0  0.45756344134E+02 -0.61662641264E+02 -0.18558844659E+03  0.21392629026E+03  0.73657734133E+02 0.  0.
          5    1    5    5  501    0 -0.13941082282E+01 -0.13344672401E+03 -0.58717606080E+03  0.60216923540E+03  0.47000000000E+01 0. -1.
        -13    1    6    6    0    0  0.24473879330E+02 -0.55947202750E+02 -0.57236392990E+02  0.83696266031E+02  0.00000000000E+00 0.  1.
         14    1    6    6    0    0  0.21282464805E+02 -0.57154385142E+01 -0.12835205360E+03  0.13023002422E+03  0.00000000000E+00 0. -1.
         -5    1    3    3    0  503 -0.47794850416E+02  0.16471636433E+03 -0.12450293510E+03  0.21198796960E+03  0.47000000000E+01 0.  1.
         11    1    4    4    0    0 -0.14326124512E+02  0.23952739719E+02 -0.14093406837E+03  0.14367109386E+03  0.00000000000E+00 0. -1.
        -12    1    4    4    0    0  0.17758739022E+02  0.64402612285E+01 -0.25141114340E+00  0.18892140798E+02  0.00000000000E+00 0.  1.
</event>
<event>
12    1  0.9873238E-001  0.1846093E+03  0.7818608E-02  0.1163816E+00
         21   -1    0    0  503  502  0.00000000000E+00  0.00000000000E+00  0.33180922956E+03  0.33180922956E+03  0.00000000000E+00 0.  1.
         21   -1    0    0  501  503 -0.00000000000E+00 -0.00000000000E+00 -0.15765839446E+03  0.15765839446E+03  0.00000000000E+00 0.  1.
          6    2    1    2  501    0  0.40041262552E+01 -0.68983716986E+02  0.23253064009E+03  0.29584743034E+03  0.16935293686E+03 0.  0.
         24    2    3    3    0    0 -0.51743785225E+02 -0.22213119257E+02  0.81674266775E+02  0.12829130895E+03  0.81345756633E+02 0.  0.
         -6    2    1    2    0  502 -0.40041262552E+01  0.68983716986E+02 -0.58379804992E+02  0.19362019368E+03  0.17118934410E+03 0.  0.
        -24    2    5    5    0    0 -0.53532673934E+02  0.40634359664E+02  0.90900095631E+01  0.10512709241E+03  0.80325456248E+02 0.  0.
          5    1    3    3  501    0  0.55747911481E+02 -0.46770597728E+02  0.15085637332E+03  0.16755612139E+03  0.47000000000E+01 0. -1.
        -11    1    4    4    0    0 -0.11494618389E+02 -0.36574208168E+02  0.76078059745E+02  0.85191960475E+02  0.00000000000E+00 0.  1.
         12    1    4    4    0    0 -0.40249166837E+02  0.14361088911E+02  0.55962070301E+01  0.43099348474E+02  0.00000000000E+00 0. -1.
         -5    1    5    5    0  502  0.49528547678E+02  0.28349357321E+02 -0.67469814555E+02  0.88493101266E+02  0.47000000000E+01 0.  1.
         13    1    6    6    0    0 -0.26254311609E+02  0.52372612517E+02  0.32786088266E+02  0.67134990904E+02  0.00000000000E+00 0. -1.
        -14    1    6    6    0    0 -0.27278362324E+02 -0.11738252852E+02 -0.23696078703E+02  0.37992101508E+02  0.00000000000E+00 0.  1.
</event>
<event>
12    1  0.9873238E-001  0.3807170E+03  0.7818608E-02  0.1050672E+00
         21   -1    0    0  503  502  0.00000000000E+00  0.00000000000E+00  0.16809996378E+03  0.16809996378E+03  0.00000000000E+00 0. -1.
         21   -1    0    0  501  503 -0.00000000000E+00 -0.00000000000E+00 -0.94935397028E+03  0.94935397028E+03  0.00000000000E+00 0. -1.
          6    2    1    2  501    0 -0.22552535194E+02  0.33858705640E+03 -0.22130410911E+03  0.44033552789E+03  0.17254001508E+03 0.  0.
         24    2    3    3    0    0 -0.70590518702E+02  0.28591837047E+03 -0.15257724532E+03  0.34120374619E+03  0.80049014471E+02 0.  0.
         -6    2    1    2    0  502  0.22552535194E+02 -0.33858705640E+03 -0.55994989739E+03  0.67711840617E+03  0.17261412683E+03 0.  0.
        -24    2    5    5    0    0  0.10773965700E+02 -0.66226080132E+02 -0.20311901222E+03  0.22804201322E+03  0.79018065290E+02 0.  0.
          5    1    3    3  501    0  0.48037983509E+02  0.52668685929E+02 -0.68726863787E+02  0.99131781701E+02  0.47000000000E+01 0. -1.
        -11    1    4    4    0    0 -0.28744192147E+02  0.54532059608E+02 -0.66826123989E+02  0.90915922449E+02  0.00000000000E+00 0.  1.
         12    1    4    4    0    0 -0.41846326555E+02  0.23138631087E+03 -0.85751121330E+02  0.25028782374E+03  0.00000000000E+00 0. -1.
         -5    1    5    5    0  502  0.11778569494E+02 -0.27236097627E+03 -0.35683088517E+03  0.44907639295E+03  0.47000000000E+01 0.  1.
         11    1    6    6    0    0  0.27839287818E+02 -0.68247371217E+02 -0.19607260367E+03  0.20946884144E+03  0.00000000000E+00 0. -1.
        -12    1    6    6    0    0 -0.17065322118E+02  0.20212910843E+01 -0.70464085539E+01  0.18573171785E+02  0.00000000000E+00 0.  1.
</event>
<event>
12    1  0.9873238E-001  0.1797059E+03  0.7818608E-02  0.1168183E+00
         21   -1    0    0  501  502  0.00000000000E+00  0.00000000000E+00  0.39471867722E+03  0.39471867722E+03  0.00000000000E+00 0.  1.
         21   -1    0    0  502  503 -0.00000000000E+00 -0.00000000000E+00 -0.91356748497E+02  0.91356748497E+02  0.00000000000E+00 0.  1.
         -6    2    1    2    0  503 -0.23425500866E+02  0.48312205021E+02  0.23080190506E+03  0.29227356644E+03  0.17108914349E+03 0.  0.
        -24    2    3    3    0    0  0.30063342566E+02 -0.10042614846E+02  0.51782776467E+02  0.96477039983E+02  0.74978027622E+02 0.  0.
          6    2    1    2  501    0  0.23425500866E+02 -0.48312205021E+02  0.72560023667E+02  0.19380185927E+03  0.17149746464E+03 0.  0.
         24    2    5    5    0    0 -0.25554455670E+02 -0.81106518095E+02  0.65634438590E+02  0.13426567833E+03  0.80548714246E+02 0.  0.
          5    1    5    5  501    0  0.48979956536E+02  0.32794313075E+02  0.69255850769E+01  0.59536180941E+02  0.47000000000E+01 0. -1.
        -13    1    6    6    0    0 -0.88548258306E+01 -0.42348103174E+02  0.78937127344E+02  0.90015775597E+02  0.00000000000E+00 0.  1.
         14    1    6    6    0    0 -0.16699629840E+02 -0.38758414921E+02 -0.13302688754E+02  0.44249902735E+02  0.00000000000E+00 0. -1.
         -5    1    3    3    0  503 -0.53488843432E+02  0.58354819866E+02  0.17901912859E+03  0.19579652646E+03  0.47000000000E+01 0.  1.
         13    1    4    4    0    0  0.23157505315E+02  0.69390741771E+01  0.67895113004E+02  0.72070570781E+02  0.00000000000E+00 0. -1.
        -14    1    4    4    0    0  0.69058372511E+01 -0.16981689023E+02 -0.16112336538E+02  0.24406469202E+02  0.00000000000E+00 0.  1.
</event>
<event>
12    1  0.9873238E-001  0.1987665E+03  0.7818608E-02  0.1150861E+00
         21   -1    0    0  501  502  0.00000000000E+00  0.00000000000E+00  0.85712047110E+02  0.85712047110E+02  0.00000000000E+00 0.  1.
         21   -1    0    0  502  503 -0.00000000000E+00 -0.00000000000E+00 -0.26692470382E+04  0.26692470382E+04  0.00000000000E+00 0.  1.
         -6    2    1    2    0  503  0.82229456266E+02 -0.55558031079E+02 -0.38416707865E+02  0.20209104971E+03  0.17180387258E+03 0.  0.
        -24    2    3    3    0    0  0.10237431876E+03 -0.49236297882E+01  0.63829015583E+01  0.13138918917E+03  0.81961175723E+02 0.  0.
          6    2    1    2  501    0 -0.82229456266E+02  0.55558031079E+02 -0.25451182833E+04  0.25528680356E+04  0.17222007226E+03 0.  0.
         24    2    5    5    0    0 -0.42535252333E+02  0.92421401890E+02 -0.21767997849E+04  0.21805574876E+04  0.77605992259E+02 0.  0.
          5    1    5    5  501    0 -0.39694203933E+02 -0.36863370811E+02 -0.36831849838E+03  0.37231054804E+03  0.47000000000E+01 0. -1.
        -13    1    6    6    0    0  0.19184147603E+02  0.21763430076E+02 -0.29574997075E+03  0.29716951999E+03  0.00000000000E+00 0.  1.
         14    1    6    6    0    0 -0.61719399937E+02  0.70657971814E+02 -0.18810498141E+04  0.18833879676E+04  0.00000000000E+00 0. -1.
         -5    1    3    3    0  503 -0.20144862498E+02 -0.50634401291E+02 -0.44799609423E+02  0.70701860539E+02  0.47000000000E+01 0.  1.
         13    1    4    4    0    0  0.46053768577E+02 -0.42571842901E+02 -0.40442162535E+01  0.62846376930E+02  0.00000000000E+00 0. -1.
        -14    1    4    4    0    0  0.56320550188E+02  0.37648213113E+02  0.10427117812E+02  0.68542812241E+02  0.00000000000E+00 0.  1.
</event>
<event>
12    1  0.9873238E-001  0.2265097E+03  0.7818608E-02  0.1129531E+00
         21   -1    0    0  501  502  0.00000000000E+00  0.00000000000E+00  0.12841806658E+04  0.12841806658E+04  0.00000000000E+00 0.  1.
         21   -1    0    0  502  503 -0.00000000000E+00 -0.00000000000E+00 -0.45673174750E+02  0.45673174750E+02  0.00000000000E+00 0.  1.
         -6    2    1    2    0  503 -0.80522769004E+01 -0.14810452398E+03  0.37855789088E+03  0.44114933841E+03  0.17119250232E+03 0.  0.
        -24    2    3    3    0    0 -0.27571110029E+02 -0.15274775677E+03  0.21565089135E+03  0.27694420770E+03  0.78107259143E+02 0.  0.
          6    2    1    2  501    0  0.80522769004E+01  0.14810452398E+03  0.85994960015E+03  0.88870450212E+03  0.16817427894E+03 0.  0.
         24    2    5    5    0    0  0.60966335293E+02  0.11958778254E+03  0.71643761781E+03  0.73304178599E+03  0.77777040414E+02 0.  0.
          5    1    5    5  501    0 -0.52914058393E+02  0.28516741441E+02  0.14351198234E+03  0.15566271613E+03  0.47000000000E+01 0. -1.
        -13    1    6    6    0    0  0.49975727267E+02  0.42191739948E+02  0.46929411765E+03  0.47382980605E+03  0.00000000000E+00 0.  1.
         14    1    6    6    0    0  0.10990608026E+02  0.77396042587E+02  0.24714350016E+03  0.25921197994E+03  0.00000000000E+00 0. -1.
         -5    1    3    3    0  503  0.19518833129E+02  0.46432327939E+01  0.16290699953E+03  0.16420513071E+03  0.47000000000E+01 0.  1.
         13    1    4    4    0    0 -0.13519926411E+02  0.19045792255E+01  0.36131927498E+01  0.14123420054E+02  0.00000000000E+00 0. -1.
        -14    1    4    4    0    0 -0.14051183619E+02 -0.15465233600E+03  0.21203769860E+03  0.26282078764E+03  0.00000000000E+00 0.  1.
</event>
<event>
12    1  0.9873238E-001  0.2997203E+03  0.7818608E-02  0.1085517E+00
         21   -1    0    0  503  502  0.00000000000E+00  0.00000000000E+00  0.57678131765E+03  0.57678131765E+03  0.00000000000E+00 0. -1.
         21   -1    0    0  501  503 -0.00000000000E+00 -0.00000000000E+00 -0.16310666098E+03  0.16310666098E+03  0.00000000000E+00 0. -1.
          6    2    1    2  501    0 -0.16677004012E+03 -0.17834180856E+03  0.12565850674E+03  0.32499590239E+03  0.17382240734E+03 0.  0.
         24    2    3    3    0    0 -0.61097160787E+02 -0.14292605375E+02  0.57929737033E+02  0.11838473440E+03  0.81987494668E+02 0.  0.
         -6    2    1    2    0  502  0.16677004012E+03  0.17834180856E+03  0.28801614993E+03  0.41489207625E+03  0.17194209884E+03 0.  0.
        -24    2    5    5    0    0  0.17889775971E+02  0.99322749196E+02  0.94591640036E+02  0.15829029172E+03  0.76962234221E+02 0.  0.
          5    1    3    3  501    0 -0.10567287933E+03 -0.16404920318E+03  0.67728769712E+02  0.20661116799E+03  0.47000000000E+01 0. -1.
        -13    1    4    4    0    0 -0.72002525667E+02 -0.16893816096E+02  0.70055551380E+02  0.10187023610E+03  0.00000000000E+00 0.  1.
         14    1    4    4    0    0  0.10905364881E+02  0.26012107214E+01 -0.12125814348E+02  0.16514498297E+02  0.00000000000E+00 0. -1.
         -5    1    5    5    0  502  0.14888026415E+03  0.79019059362E+02  0.19342450989E+03  0.25660178452E+03  0.47000000000E+01 0.  1.
         11    1    6    6    0    0  0.24512529023E+02  0.26975129353E+01  0.27441246650E+01  0.24812716000E+02  0.00000000000E+00 0. -1.
        -12    1    6    6    0    0 -0.66227530523E+01  0.96625236261E+02  0.91847515371E+02  0.13347757572E+03  0.00000000000E+00 0.  1.
</event>
<event>
12    1  0.9873238E-001  0.2545549E+03  0.7818608E-02  0.1111909E+00
         21   -1    0    0  503  502  0.00000000000E+00  0.00000000000E+00  0.21037317124E+03  0.21037317124E+03  0.00000000000E+00 0.  1.
         21   -1    0    0  501  503 -0.00000000000E+00 -0.00000000000E+00 -0.30337033863E+03  0.30337033863E+03  0.00000000000E+00 0.  1.
          6    2    1    2  501    0  0.15501497686E+03 -0.10677455864E+03 -0.83716521440E+01  0.24549047356E+03  0.15736911586E+03 0.  0.
         24    2    3    3    0    0  0.12388527754E+03 -0.20983821825E+02  0.20605280158E+02  0.14962149365E+03  0.78575638866E+02 0.  0.
         -6    2    1    2    0  502 -0.15501497686E+03  0.10677455864E+03 -0.84625515249E+02  0.26825303631E+03  0.17137025481E+03 0.  0.
        -24    2    5    5    0    0 -0.32955742704E+02  0.36518342090E+02  0.19049807539E+02  0.93310030843E+02  0.76968801488E+02 0.  0.
          5    1    3    3  501    0  0.31129699319E+02 -0.85790736818E+02 -0.28976932302E+02  0.95868979911E+02  0.47000000000E+01 0. -1.
        -13    1    4    4    0    0  0.75163797763E+02 -0.33899568500E+02  0.44658764535E+02  0.93771970697E+02  0.00000000000E+00 0.  1.
         14    1    4    4    0    0  0.48721479776E+02  0.12915746675E+02 -0.24053484377E+02  0.55849522956E+02  0.00000000000E+00 0. -1.
         -5    1    5    5    0  502 -0.12205923415E+03  0.70256216554E+02 -0.10367532279E+03  0.17494300547E+03  0.47000000000E+01 0.  1.
         13    1    6    6    0    0 -0.35694010593E+02 -0.28514730615E+01 -0.17199021312E+02  0.39724043411E+02  0.00000000000E+00 0. -1.
        -14    1    6    6    0    0  0.27382678884E+01  0.39369815151E+02  0.36248828850E+02  0.53585987432E+02  0.00000000000E+00 0.  1.
</event>
<event>
12    1  0.9873238E-001  0.2268421E+03  0.7818608E-02  0.1128925E+00
         21   -1    0    0  503  502  0.00000000000E+00  0.00000000000E+00  0.46916009722E+03  0.46916009722E+03  0.00000000000E+00 0. -1.
         21   -1    0    0  501  503 -0.00000000000E+00 -0.00000000000E+00 -0.13457224162E+03  0.13457224162E+03  0.00000000000E+00 0. -1.
          6    2    1    2  501    0  0.18412171407E+02  0.14670597622E+03  0.29749107025E+03  0.37410997008E+03  0.17203395397E+03 0.  0.
         24    2    3    3    0    0  0.38669340750E+02  0.64797928278E+02  0.65784486624E+02  0.12747397894E+03  0.78917217414E+02 0.  0.
         -6    2    1    2    0  502 -0.18412171407E+02 -0.14670597622E+03  0.37096785350E+02  0.22962236877E+03  0.17172247739E+03 0.  0.
        -24    2    5    5    0    0 -0.46534048284E+02 -0.26310477272E+02 -0.10081211862E+02  0.97207227842E+02  0.80560259732E+02 0.  0.
          5    1    3    3  501    0 -0.20257169343E+02  0.81908047940E+02  0.23170658363E+03  0.24663599113E+03  0.47000000000E+01 0. -1.
        -11    1    4    4    0    0  0.10304954771E+02 -0.96451576473E+01  0.42041095214E+02  0.44347207868E+02  0.00000000000E+00 0.  1.
         12    1    4    4    0    0  0.28364385979E+02  0.74443085925E+02  0.23743391410E+02  0.83126771077E+02  0.00000000000E+00 0. -1.
         -5    1    5    5    0  502  0.28121876877E+02 -0.12039549895E+03  0.47177997212E+02  0.13241514093E+03  0.47000000000E+01 0.  1.
         13    1    6    6    0    0 -0.37482431014E+01  0.17986362872E+02 -0.27619902915E+02  0.33172543055E+02  0.00000000000E+00 0. -1.
        -14    1    6    6    0    0 -0.42785805183E+02 -0.44296840144E+02  0.17538691053E+02  0.64034684787E+02  0.00000000000E+00 0.  1.
</event>
<event>
12    1  0.9873238E-001  0.1770500E+03  0.7818608E-02  0.1171064E+00
         21   -1    0    0  503  502  0.00000000000E+00  0.00000000000E+00  0.22330838490E+03  0.22330838490E+03  0.00000000000E+00 0.  1.
         21   -1    0    0  501  503 -0.00000000000E+00 -0.00000000000E+00 -0.24344743408E+03  0.24344743408E+03  0.00000000000E+00 0.  1.
          6    2    1    2  501    0  0.14725554765E+02 -0.33712004507E+02  0.14268690479E+03  0.22621686871E+03  0.17164258702E+03 0.  0.
         24    2    3    3    0    0 -0.10618125220E+02 -0.38643495330E+02  0.82076609557E+01  0.89200888840E+02  0.79267701852E+02 0.  0.
         -6    2    1    2    0  502 -0.14725554765E+02  0.33712004507E+02 -0.16282595397E+03  0.24053895027E+03  0.17318589463E+03 0.  0.
        -24    2    5    5    0    0 -0.63974093279E+02  0.51215182017E+02 -0.14474489891E+03  0.18503404669E+03  0.81060676008E+02 0.  0.
          5    1    3    3  501    0  0.25343679985E+02  0.49314908222E+01  0.13447924383E+03  0.13701597987E+03  0.47000000000E+01 0. -1.
        -13    1    4    4    0    0 -0.26181246346E+02 -0.47460230212E+01  0.34498072793E+02  0.43567182847E+02  0.00000000000E+00 0.  1.
         14    1    4    4    0    0  0.15563121126E+02 -0.33897472308E+02 -0.26290411838E+02  0.45633705993E+02  0.00000000000E+00 0. -1.
         -5    1    5    5    0  502  0.49248538514E+02 -0.17503177509E+02 -0.18081055059E+02  0.55504903574E+02  0.47000000000E+01 0.  1.
         13    1    6    6    0    0 -0.70512102746E+02  0.13104211623E+02 -0.11776222961E+03  0.13788263022E+03  0.00000000000E+00 0. -1.
        -14    1    6    6    0    0  0.65380094670E+01  0.38110970394E+02 -0.26982669306E+02  0.47151416469E+02  0.00000000000E+00 0.  1.
</event>
<event>
12    1  0.9873238E-001  0.1776483E+03  0.7818608E-02  0.1170376E+00
         21   -1    0    0  503  502  0.00000000000E+00  0.00000000000E+00  0.17251348723E+02  0.17251348723E+02  0.00000000000E+00 0. -1.
         21   -1    0    0  501  503 -0.00000000000E+00 -0.00000000000E+00 -0.18390453269E+04  0.18390453269E+04  0.00000000000E+00 0. -1.
          6    2    1    2  501    0  0.30065660839E+02 -0.26951869378E+02 -0.81406196461E+03  0.83322013543E+03  0.17299874171E+03 0.  0.
         24    2    3    3    0    0  0.63814606346E+02  0.34273225110E+02 -0.50673402734E+03  0.51800583603E+03  0.79395930338E+02 0.  0.
         -6    2    1    2    0  502 -0.30065660839E+02  0.26951869378E+02 -0.10077320136E+04  0.10230765402E+04  0.17184716671E+03 0.  0.
        -24    2    5    5    0    0 -0.81604150697E+02  0.19625226238E+02 -0.82127525495E+03  0.82943225686E+03  0.80127631968E+02 0.  0.
          5    1    3    3  501    0 -0.33748945507E+02 -0.61225094488E+02 -0.30732793728E+03  0.31521429940E+03  0.47000000000E+01 0. -1.
        -13    1    4    4    0    0  0.74145449949E+02  0.62927634891E+01 -0.41269980230E+03  0.41935459153E+03  0.00000000000E+00 0.  1.
         14    1    4    4    0    0 -0.10330843603E+02  0.27980461621E+02 -0.94034225035E+02  0.98651244493E+02  0.00000000000E+00 0. -1.
         -5    1    5    5    0  502  0.51538489858E+02  0.73266431401E+01 -0.18645675864E+03  0.19364428336E+03  0.47000000000E+01 0.  1.
         13    1    6    6    0    0 -0.29033117236E+02  0.44189687297E+02 -0.27129950449E+03  0.27640381961E+03  0.00000000000E+00 0. -1.
        -14    1    6    6    0    0 -0.52571033461E+02 -0.24564461060E+02 -0.54997575047E+03  0.55302843725E+03  0.00000000000E+00 0.  1.
</event>
<event>
12    1  0.9873238E-001  0.1759395E+03  0.7818608E-02  0.1172329E+00
         21   -1    0    0  501  502  0.00000000000E+00  0.00000000000E+00  0.22618136231E+03  0.22618136231E+03  0.00000000000E+00 0. -1.
         21   -1    0    0  502  503 -0.00000000000E+00 -0.00000000000E+00 -0.13582681605E+03  0.13582681605E+03  0.00000000000E+00 0. -1.
         -6    2    1    2    0  503  0.33650209119E+02 -0.18092760950E+02  0.33124226086E+02  0.17903049890E+03  0.17174114420E+03 0.  0.
        -24    2    3    3    0    0  0.57533396412E+02 -0.54501774171E+02 -0.14709851780E+02  0.11417518390E+03  0.80864440814E+02 0.  0.
          6    2    1    2  501    0 -0.33650209119E+02  0.18092760950E+02  0.57230320169E+02  0.18297767946E+03  0.16954597329E+03 0.  0.
         24    2    5    5    0    0 -0.44954492187E+01 -0.33220758525E+02 -0.19963362788E+02  0.85694422962E+02  0.76296595024E+02 0.  0.
          5    1    5    5  501    0 -0.29154759900E+02  0.51313519476E+02  0.77193682958E+02  0.97283256496E+02  0.47000000000E+01 0. -1.
        -11    1    6    6    0    0 -0.39923170562E+02 -0.21573352479E+02 -0.55688745360E+01  0.45719595892E+02  0.00000000000E+00 0.  1.
         12    1    6    6    0    0  0.35427721344E+02 -0.11647406047E+02 -0.14394488252E+02  0.39974827070E+02  0.00000000000E+00 0. -1.
         -5    1    3    3    0  503 -0.23883187293E+02  0.36409013221E+02  0.47834077866E+02  0.64855315004E+02  0.47000000000E+01 0.  1.
         11    1    4    4    0    0  0.61428555284E+02 -0.42568586598E+01 -0.16498252331E+02  0.63747788824E+02  0.00000000000E+00 0. -1.
        -12    1    4    4    0    0 -0.38951588720E+01 -0.50244915512E+02  0.17884005513E+01  0.50427395074E+02  0.00000000000E+00 0.  1.
</event>
<event>
12    1  0.9873238E-001  0.2033533E+03  0.7818608E-02  0.1147200E+00
         21   -1    0    0  501  502  0.00000000000E+00  0.00000000000E+00  0.57934415811E+03  0.57934415811E+03  0.00000000000E+00 0. -1.
         21   -1    0    0  502  503 -0.00000000000E+00 -0.00000000000E+00 -0.74700935457E+02  0.74700935457E+02  0.00000000000E+00 0. -1.
         -6    2    1    2    0  503 -0.85108786822E+02  0.67943798318E+02  0.17818900554E+03  0.26943502466E+03  0.17024701318E+03 0.  0.
        -24    2    3    3    0    0 -0.40196843039E+02  0.67047226284E+01  0.14791387007E+02  0.89190249902E+02  0.77944698680E+02 0.  0.
          6    2    1    2  501    0  0.85108786822E+02 -0.67943798318E+02  0.32645421711E+03  0.38461006890E+03  0.17173434109E+03 0.  0.
         24    2    5    5    0    0  0.12116686074E+03 -0.32562098009E+02  0.20777236194E+03  0.25553829755E+03  0.79929773958E+02 0.  0.
          5    1    5    5  501    0 -0.36058073916E+02 -0.35381700309E+02  0.11868185518E+03  0.12907177135E+03  0.47000000000E+01 0. -1.
        -13    1    6    6    0    0  0.59796537648E+02 -0.49811831596E+02  0.15230424484E+03  0.17103633380E+03  0.00000000000E+00 0.  1.
         14    1    6    6    0    0  0.61370323090E+02  0.17249733587E+02  0.55468117092E+02  0.84501963757E+02  0.00000000000E+00 0. -1.
         -5    1    3    3    0  503 -0.44911943784E+02  0.61239075689E+02  0.16339761854E+03  0.18024477476E+03  0.47000000000E+01 0.  1.
         13    1    4    4    0    0 -0.42264793506E+02  0.36280133029E+02 -0.77186386508E+00  0.55705983490E+02  0.00000000000E+00 0. -1.
        -14    1    4    4    0    0  0.20679504672E+01 -0.29575410400E+02  0.15563250872E+02  0.33484266413E+02  0.00000000000E+00 0.  1.
</event>
<event>
12    1  0.9873238E-001  0.2628305E+03  0.7818608E-02  0.1105456E+00
         21   -1    0    0  503  502  0.00000000000E+00  0.00000000000E+00  0.27871102301E+03  0.27871102301E+03  0.00000000000E+00 0.  1.
         21   -1    0    0  501  503 -0.00000000000E+00 -0.00000000000E+00 -0.24796042297E+03  0.24796042297E+03  0.00000000000E+00 0.  1.
          6    2    1    2  501    0  0.19227572192E+03  0.48599613692E+02  0.21096212211E+02  0.26367577555E+03  0.17247605269E+03 0.  0.
         24    2    3    3    0    0  0.32183126429E+02  0.11826073622E+02 -0.25389316477E+02  0.92898356788E+02  0.82521982882E+02 0.  0.
         -6    2    1    2    0  502 -0.19227572192E+03 -0.48599613692E+02  0.96543878255E+01  0.26299567043E+03  0.17245764631E+03 0.  0.
        -24    2    5    5    0    0 -0.78557321062E+02  0.18800299159E+02  0.50611490109E+02  0.12452474506E+03  0.80126058558E+02 0.  0.
          5    1    3    3  501    0  0.16009259549E+03  0.36773540069E+02  0.46485528688E+02  0.17077741876E+03  0.47000000000E+01 0. -1.
        -11    1    4    4    0    0  0.43442780806E+02  0.94747276590E+01 -0.49285112342E+02  0.66378219070E+02  0.00000000000E+00 0.  1.
         12    1    4    4    0    0 -0.11259654377E+02  0.23513459635E+01  0.23895795865E+02  0.26520137718E+02  0.00000000000E+00 0. -1.
         -5    1    5    5    0  502 -0.11371840086E+03 -0.67399912850E+02 -0.40957102283E+02  0.13847092537E+03  0.47000000000E+01 0.  1.
         13    1    6    6    0    0 -0.47354711276E+02 -0.25558654295E+02  0.57070749480E+01  0.54113622998E+02  0.00000000000E+00 0. -1.
        -14    1    6    6    0    0 -0.31202609785E+02  0.44358953454E+02  0.44904415161E+02  0.70411122061E+02  0.00000000000E+00 0.  1.
</event>
<event>
12    1  0.9873238E-001  0.1987775E+03  0.7818608E-02  0.1150851E+00
         21   -1    0    0  503  502  0.00000000000E+00  0.00000000000E+00  0.39954453954E+02  0.39954453954E+02  0.00000000000E+00 0. -1.
         21   -1    0    0  501  503 -0.00000000000E+00 -0.00000000000E+00 -0.11177452665E+04  0.11177452665E+04  0.00000000000E+00 0. -1.
          6    2    1    2  501    0 -0.94475633455E+02  0.33681400903E+02 -0.34060418271E+03  0.39418375669E+03  0.17120029987E+03 0.  0.
         24    2    3    3    0    0 -0.47365596985E+02  0.83335455873E+02 -0.25810009110E+03  0.28688093360E+03  0.80602202536E+02 0.  0.
         -6    2    1    2    0  502  0.94475633455E+02 -0.33681400903E+02 -0.73718662979E+03  0.76351596372E+03  0.17161706682E+03 0.  0.
        -24    2    5    5    0    0  0.10333434341E+03 -0.68701065280E+02 -0.68050213609E+03  0.69613588163E+03  0.78257175900E+02 0.  0.
          5    1    3    3  501    0 -0.47110036470E+02 -0.49654054969E+02 -0.82504091608E+02  0.10730282309E+03  0.47000000000E+01 0. -1.
        -13    1    4    4    0    0 -0.95406902926E+01 -0.10986238459E+02 -0.84335703813E+02  0.85581733707E+02  0.00000000000E+00 0.  1.
         14    1    4    4    0    0 -0.37824906692E+02  0.94321694331E+02 -0.17376438729E+03  0.20129919989E+03  0.00000000000E+00 0. -1.
         -5    1    5    5    0  502 -0.88587099569E+01  0.35019664376E+02 -0.56684493703E+02  0.67380082083E+02  0.47000000000E+01 0.  1.
         13    1    6    6    0    0  0.80292862462E+02 -0.71575338809E+02 -0.64366811363E+03  0.65259375832E+03  0.00000000000E+00 0. -1.
        -14    1    6    6    0    0  0.23041480950E+02  0.28742735287E+01 -0.36834022453E+02  0.43542123315E+02  0.00000000000E+00 0.  1.
</event>
<event>
12    1  0.9873238E-001  0.1731674E+03  0.7818608E-02  0.1174704E+00
         21   -1    0    0  503  502  0.00000000000E+00  0.00000000000E+00  0.21654766500E+03  0.21654766500E+03  0.00000000000E+00 0. -1.
         21   -1    0    0  501  503 -0.00000000000E+00 -0.00000000000E+00 -0.15720422617E+03  0.15720422617E+03  0.00000000000E+00 0. -1.
          6    2    1    2  501    0  0.66027131812E+01 -0.66167109870E+01 -0.35506435444E+02  0.17630961606E+03  0.17244418538E+03 0.  0.
         24    2    3    3    0    0 -0.94396234432E+01  0.15204281137E+02 -0.85558044943E+02  0.11920649990E+03  0.81053895081E+02 0.  0.
         -6    2    1    2    0  502 -0.66027131812E+01  0.66167109870E+01  0.94849874271E+02  0.19744227512E+03  0.17291494056E+03 0.  0.
        -24    2    5    5    0    0 -0.97930955959E+01 -0.57704436313E+02  0.23892242895E+02  0.10150237737E+03  0.79411501997E+02 0.  0.
          5    1    3    3  501    0  0.16042336624E+02 -0.21820992124E+02  0.50051609498E+02  0.57103116159E+02  0.47000000000E+01 0. -1.
        -11    1    4    4    0    0 -0.66635120291E+01 -0.89139658680E+01 -0.93116793238E+02  0.93779519955E+02  0.00000000000E+00 0.  1.
         12    1    4    4    0    0 -0.27761114141E+01  0.24118247005E+02  0.75587482959E+01  0.25426979942E+02  0.00000000000E+00 0. -1.
         -5    1    5    5    0  502  0.31903824148E+01  0.64321147300E+02  0.70957631376E+02  0.95939897751E+02  0.47000000000E+01 0.  1.
         13    1    6    6    0    0 -0.12387110717E+02  0.43864820061E+01 -0.21046079558E+02  0.24811674692E+02  0.00000000000E+00 0. -1.
        -14    1    6    6    0    0  0.25940151206E+01 -0.62090918320E+02  0.44938322453E+02  0.76690702677E+02  0.00000000000E+00 0.  1.
</event>
<event>
12    1  0.9873238E-001  0.1758814E+03  0.7818608E-02  0.1174904E+00
         21   -1    0    0  501  502  0.00000000000E+00  0.00000000000E+00  0.33166583408E+03  0.33166583408E+03  0.00000000000E+00 0. -1.
         21   -1    0    0  502  503 -0.00000000000E+00 -0.00000000000E+00 -0.18334715142E+03  0.18334715142E+03  0.00000000000E+00 0. -1.
         -6    2    1    2    0  503 -0.13130131449E+02  0.34462039905E+02  0.25943796785E+03  0.30697033284E+03  0.15988337479E+03 0.  0.
        -24    2    3    3    0    0  0.14050213663E+01  0.61544644058E+02  0.25688068330E+03  0.27577148960E+03  0.79199190184E+02 0.  0.
          6    2    1    2  501    0  0.13130131449E+02 -0.34462039905E+02 -0.11111928519E+03  0.20804265266E+03  0.17197155939E+03 0.  0.
         24    2    5    5    0    0  0.27144187140E+02  0.26294694325E+02 -0.12942297198E+02  0.91644261424E+02  0.82479996060E+02 0.  0.
          5    1    5    5  501    0 -0.14014055691E+02 -0.60756734230E+02 -0.98176987992E+02  0.11639839124E+03  0.47000000000E+01 0. -1.
        -11    1    6    6    0    0 -0.88171398456E+01 -0.24279838941E+02 -0.14393855595E+02  0.29570857494E+02  0.00000000000E+00 0.  1.
         12    1    6    6    0    0  0.35961326986E+02  0.50574533266E+02  0.14515583974E+01  0.62073403930E+02  0.00000000000E+00 0. -1.
         -5    1    3    3    0  503 -0.14535152816E+02 -0.27082604154E+02  0.25572845476E+01  0.31198843238E+02  0.47000000000E+01 0.  1.
         11    1    4    4    0    0 -0.19827305227E+01  0.11385045106E+01 -0.57890311069E+01  0.62241701457E+01  0.00000000000E+00 0. -1.
        -12    1    4    4    0    0  0.33877518889E+01  0.60406139548E+02  0.26266971441E+03  0.26954731945E+03  0.00000000000E+00 0.  1.
</event>
<event>
12    1  0.9873238E-001  0.1791533E+03  0.7818608E-02  0.1169191E+00
         21   -1    0    0  501  502  0.00000000000E+00  0.00000000000E+00  0.59513858263E+02  0.59513858263E+02  0.00000000000E+00 0. -1.
         21   -1    0    0  502  503 -0.00000000000E+00 -0.00000000000E+00 -0.56777097665E+03  0.56777097665E+03  0.00000000000E+00 0. -1.
         -6    2    1    2    0  503 -0.21306429183E+02  0.35673199169E+02 -0.17426793820E+03  0.24827996748E+03  0.17189266100E+03 0.  0.
        -24    2    3    3    0    0 -0.47722656014E+01  0.60769950631E+02 -0.33868554398E+02  0.10462307600E+03  0.77994535931E+02 0.  0.
          6    2    1    2  501    0  0.21306429183E+02 -0.35673199169E+02 -0.33398918019E+03  0.37900486743E+03  0.17426811525E+03 0.  0.
         24    2    5    5    0    0 -0.24282693809E+02 -0.63030737389E+02 -0.29642458991E+03  0.31373625725E+03  0.77462110321E+02 0.  0.
          5    1    5    5  501    0  0.45589122992E+02  0.27357538220E+02 -0.37564590283E+02  0.65268610187E+02  0.47000000000E+01 0. -1.
        -13    1    6    6    0    0 -0.50303171016E+02 -0.23682165721E+02 -0.15915789410E+03  0.16858970681E+03  0.00000000000E+00 0.  1.
         14    1    6    6    0    0  0.26020477207E+02 -0.39348571668E+02 -0.13726669580E+03  0.14514655044E+03  0.00000000000E+00 0. -1.
         -5    1    3    3    0  503 -0.16534163581E+02 -0.25096751462E+02 -0.14039938380E+03  0.14365689148E+03  0.47000000000E+01 0.  1.
         13    1    4    4    0    0 -0.83642479008E+01  0.39772561309E+02 -0.59021589981E+02  0.71661463562E+02  0.00000000000E+00 0. -1.
        -14    1    4    4    0    0  0.35919822994E+01  0.20997389321E+02  0.25153035583E+02  0.32961612433E+02  0.00000000000E+00 0.  1.
</event>
<event>
12    1  0.9873238E-001  0.1792529E+03  0.7818608E-02  0.1168615E+00
         21   -1    0    0  501  502  0.00000000000E+00  0.00000000000E+00  0.20358709382E+03  0.20358709382E+03  0.00000000000E+00 0.  1.
         21   -1    0    0  502  503 -0.00000000000E+00 -0.00000000000E+00 -0.43896083428E+03  0.43896083428E+03  0.00000000000E+00 0.  1.
         -6    2    1    2    0  503 -0.38309783230E+02  0.32777608609E+02 -0.37489781466E+03  0.41539470374E+03  0.17164608164E+03 0.  0.
        -24    2    3    3    0    0  0.28815987608E+02 -0.21214043688E+02 -0.23969308211E+03  0.25500961300E+03  0.79351952209E+02 0.  0.
          6    2    1    2  501    0  0.38309783230E+02 -0.32777608609E+02  0.13952407421E+03  0.22715322436E+03  0.17201630427E+03 0.  0.
         24    2    5    5    0    0  0.90801332800E+02 -0.14043631713E+02  0.89671032165E+02  0.15222832551E+03  0.81795253211E+02 0.  0.
          5    1    5    5  501    0 -0.52491549569E+02 -0.18733976896E+02  0.49853042041E+02  0.74924898847E+02  0.47000000000E+01 0. -1.
        -11    1    6    6    0    0  0.30425710186E+02  0.33268378665E+02  0.43785249471E+02  0.62846296077E+02  0.00000000000E+00 0.  1.
         12    1    6    6    0    0  0.60375622614E+02 -0.47312010378E+02  0.45885782694E+02  0.89382029432E+02  0.00000000000E+00 0. -1.
         -5    1    3    3    0  503 -0.67125770838E+02  0.53991652298E+02 -0.13520473255E+03  0.16038509074E+03  0.47000000000E+01 0.  1.
         13    1    4    4    0    0  0.31998547148E+02  0.65080511074E+01 -0.21585095142E+03  0.21830688257E+03  0.00000000000E+00 0. -1.
        -14    1    4    4    0    0 -0.31825595404E+01 -0.27722094796E+02 -0.23842130689E+02  0.36702730428E+02  0.00000000000E+00 0.  1.
</event>
<event>
12    1  0.9873238E-001  0.1869793E+03  0.7818608E-02  0.1161508E+00
         21   -1    0    0  503  502  0.00000000000E+00  0.00000000000E+00  0.19274602699E+04  0.19274602699E+04  0.00000000000E+00 0.  1.
         21   -1    0    0  501  503 -0.00000000000E+00 -0.00000000000E+00 -0.34985265254E+02  0.34985265254E+02  0.00000000000E+00 0.  1.
          6    2    1    2  501    0  0.64002937369E+02  0.32551450283E+02  0.16279550286E+04  0.16385133190E+04  0.17126689212E+03 0.  0.
         24    2    3    3    0    0  0.94285854901E+02  0.21722688070E+02  0.75425797619E+03  0.76421191407E+03  0.75848911354E+02 0.  0.
         -6    2    1    2    0  502 -0.64002937369E+02 -0.32551450283E+02  0.26451997600E+03  0.32393221616E+03  0.17264208656E+03 0.  0.
        -24    2    5    5    0    0  0.12820019047E+01 -0.10819142754E+02  0.41441065796E+02  0.90435520965E+02  0.79639965715E+02 0.  0.
          5    1    3    3  501    0 -0.30282917533E+02  0.10828762213E+02  0.87369705243E+03  0.87430140490E+03  0.47000000000E+01 0. -1.
        -13    1    4    4    0    0  0.58610866654E+02  0.88107768917E+01  0.19847968383E+03  0.20714016600E+03  0.00000000000E+00 0.  1.
         14    1    4    4    0    0  0.35674988247E+02  0.12911911178E+02  0.55577829236E+03  0.55707174807E+03  0.00000000000E+00 0. -1.
         -5    1    5    5    0  502 -0.65284939274E+02 -0.21732307528E+02  0.22307891021E+03  0.23349669519E+03  0.47000000000E+01 0.  1.
         13    1    6    6    0    0  0.11582564722E+02 -0.36237973525E+02 -0.30543333509E+01  0.38166418262E+02  0.00000000000E+00 0. -1.
        -14    1    6    6    0    0 -0.10300562817E+02  0.25418830771E+02  0.44495399147E+02  0.52269102703E+02  0.00000000000E+00 0.  1.
</event>
<event>
12    1  0.9873238E-001  0.2009758E+03  0.7818608E-02  0.1148969E+00
         21   -1    0    0  503  502  0.00000000000E+00  0.00000000000E+00  0.79032123275E+03  0.79032123275E+03  0.00000000000E+00 0.  1.
         21   -1    0    0  501  503 -0.00000000000E+00 -0.00000000000E+00 -0.61387574587E+02  0.61387574587E+02  0.00000000000E+00 0.  1.
          6    2    1    2  501    0  0.70111637588E+02  0.75729224525E+02  0.53907054594E+03  0.57523225877E+03  0.17217590093E+03 0.  0.
         24    2    3    3    0    0  0.60041766713E+02  0.98343796655E+01  0.46657717816E+03  0.47663757711E+03  0.76074883947E+02 0.  0.
         -6    2    1    2    0  502 -0.70111637588E+02 -0.75729224525E+02  0.18986311223E+03  0.27647654857E+03  0.17245498935E+03 0.  0.
        -24    2    5    5    0    0 -0.27122728762E+01 -0.82024777685E+02  0.17239713152E+03  0.20640901803E+03  0.78412315308E+02 0.  0.
          5    1    3    3  501    0  0.10069870875E+02  0.65894844859E+02  0.72493367780E+02  0.98594681655E+02  0.47000000000E+01 0. -1.
        -11    1    4    4    0    0  0.10916192630E+02 -0.13588182426E+02  0.31679867896E+03  0.31727780407E+03  0.00000000000E+00 0.  1.
         12    1    4    4    0    0  0.49125574083E+02  0.23422562092E+02  0.14977849919E+03  0.15935977304E+03  0.00000000000E+00 0. -1.
         -5    1    5    5    0  502 -0.67399364712E+02  0.62955531610E+01  0.17465980712E+02  0.70067530536E+02  0.47000000000E+01 0.  1.
         13    1    6    6    0    0  0.15808960993E+02 -0.14893498344E+02  0.11242942450E+03  0.11450814396E+03  0.00000000000E+00 0. -1.
        -14    1    6    6    0    0 -0.18521233869E+02 -0.67131279342E+02  0.59967707018E+02  0.91900874072E+02  0.00000000000E+00 0.  1.
</event>
<event>
12    1  0.9873238E-001  0.2345424E+03  0.7818608E-02  0.1123813E+00
         21   -1    0    0  501  502  0.00000000000E+00  0.00000000000E+00  0.73251465039E+02  0.73251465039E+02  0.00000000000E+00 0.  1.
         21   -1    0    0  502  503 -0.00000000000E+00 -0.00000000000E+00 -0.76995612216E+03  0.76995612216E+03  0.00000000000E+00 0.  1.
         -6    2    1    2    0  503 -0.89721295077E+02 -0.13178742522E+03 -0.27360046315E+03  0.36037109899E+03  0.17202406608E+03 0.  0.
        -24    2    3    3    0    0 -0.11406370911E+03 -0.14205948447E+03 -0.27057484308E+03  0.33336530889E+03  0.68776860939E+02 0.  0.
          6    2    1    2  501    0  0.89721295077E+02  0.13178742522E+03 -0.42310419397E+03  0.48283648822E+03  0.16939917107E+03 0.  0.
         24    2    5    5    0    0  0.55166213050E+02  0.26875095487E+02 -0.10243014550E+03  0.14363951596E+03  0.79842307197E+02 0.  0.
          5    1    5    5  501    0  0.34555082027E+02  0.10491232974E+03 -0.32067404847E+03  0.33919697225E+03  0.47000000000E+01 0. -1.
        -11    1    6    6    0    0  0.52772760511E+01  0.16296684089E+02 -0.89368357290E+02  0.90995246247E+02  0.00000000000E+00 0.  1.
         12    1    6    6    0    0  0.49888936999E+02  0.10578411399E+02 -0.13061788213E+02  0.52644269716E+02  0.00000000000E+00 0. -1.
         -5    1    3    3    0  503  0.24342414029E+02  0.10272059245E+02 -0.30256200729E+01  0.27005790096E+02  0.47000000000E+01 0.  1.
         11    1    4    4    0    0 -0.11064649998E+03 -0.95677547912E+02 -0.18369502226E+03  0.23482057477E+03  0.00000000000E+00 0. -1.
        -12    1    4    4    0    0 -0.34172091257E+01 -0.46381936557E+02 -0.86879820817E+02  0.98544734117E+02  0.00000000000E+00 0.  1.
</event>
<event>
12    1  0.9873238E-001  0.2072210E+03  0.7818608E-02  0.1143860E+00
         21   -1    0    0  501  502  0.00000000000E+00  0.00000000000E+00  0.24650802064E+03  0.24650802064E+03  0.00000000000E+00 0. -1.
         21   -1    0    0  502  503 -0.00000000000E+00 -0.00000000000E+00 -0.39804543269E+03  0.39804543269E+03  0.00000000000E+00 0. -1.
         -6    2    1    2    0  503 -0.11418175242E+03 -0.74283051239E+01 -0.31764470317E+03  0.37926071356E+03  0.17276538743E+03 0.  0.
        -24    2    3    3    0    0  0.36450833138E+01  0.92408234294E+01 -0.84021774142E+02  0.11703412064E+03  0.80861903351E+02 0.  0.
          6    2    1    2  501    0  0.11418175242E+03  0.74283051239E+01  0.16610729111E+03  0.26529273978E+03  0.17232513837E+03 0.  0.
         24    2    5    5    0    0  0.42875605109E+02 -0.53917886154E+02  0.51652858234E+02  0.11707051123E+03  0.79322322685E+02 0.  0.
          5    1    5    5  501    0  0.71306147310E+02  0.61346191278E+02  0.11445443288E+03  0.14822222854E+03  0.47000000000E+01 0. -1.
        -13    1    6    6    0    0  0.43496146881E+02 -0.13923732829E+02 -0.68701752152E+01  0.46184244466E+02  0.00000000000E+00 0.  1.
         14    1    6    6    0    0 -0.62054177222E+00 -0.39994153325E+02  0.58523033449E+02  0.70886266768E+02  0.00000000000E+00 0. -1.
         -5    1    3    3    0  503 -0.11782683573E+03 -0.16669128553E+02 -0.23362292903E+03  0.26222659292E+03  0.47000000000E+01 0.  1.
         11    1    4    4    0    0  0.17270558322E+02 -0.18651990452E+01  0.10893950848E+02  0.20504373126E+02  0.00000000000E+00 0. -1.
        -12    1    4    4    0    0 -0.13625475008E+02  0.11106022475E+02 -0.94915724990E+02  0.96529747512E+02  0.00000000000E+00 0.  1.
</event>
<event>
12    1  0.9873238E-001  0.2552516E+03  0.7818608E-02  0.1110039E+00
         21   -1    0    0  501  502  0.00000000000E+00  0.00000000000E+00  0.14407935175E+04  0.14407935175E+04  0.00000000000E+00 0.  1.
         21   -1    0    0  502  503 -0.00000000000E+00 -0.00000000000E+00 -0.68606552435E+02  0.68606552435E+02  0.00000000000E+00 0. -1.
         -6    2    1    2    0  503 -0.22090540236E+01  0.18689314391E+03  0.11267652654E+04  0.11553023442E+04  0.17375159302E+03 0.  0.
        -24    2    3    3    0    0  0.65966513005E+02  0.11049766026E+03  0.72868851551E+03  0.74424107546E+03  0.79664998687E+02 0.  0.
          6    2    1    2  501    0  0.22090540236E+01 -0.18689314391E+03  0.24542169969E+03  0.35409772574E+03  0.17383745724E+03 0.  0.
         24    2    5    5    0    0 -0.41196406885E+02 -0.17157096450E+03  0.23863274523E+03  0.30733253440E+03  0.79837082903E+02 0.  0.
          5    1    5    5  501    0  0.43405460908E+02 -0.15322179406E+02  0.67889544592E+01  0.46765191340E+02  0.47000000000E+01 0. -1.
        -13    1    6    6    0    0 -0.19082900346E+02 -0.13711096906E+03  0.12488530728E+03  0.18644011075E+03  0.00000000000E+00 0.  1.
         14    1    6    6    0    0 -0.22113506538E+02 -0.34459995445E+02  0.11374743794E+03  0.12089242365E+03  0.00000000000E+00 0. -1.
         -5    1    3    3    0  503 -0.68175567028E+02  0.76395483649E+02  0.39807674989E+03  0.41106126874E+03  0.47000000000E+01 0.  1.
         11    1    4    4    0    0  0.32482142183E+02  0.35920822506E+02  0.11018325899E+03  0.12035674311E+03  0.00000000000E+00 0. -1.
        -12    1    4    4    0    0  0.33484370822E+02  0.74576837752E+02  0.61850525651E+03  0.62388433235E+03  0.00000000000E+00 0.  1.
</event>
<event>
12    1  0.9873238E-001  0.2344292E+03  0.7818608E-02  0.1123589E+00
         21   -1    0    0  501  502  0.00000000000E+00  0.00000000000E+00  0.16764934769E+03  0.16764934769E+03  0.00000000000E+00 0.  1.
         21   -1    0    0  502  503 -0.00000000000E+00 -0.00000000000E+00 -0.40511248146E+03  0.40511248146E+03  0.00000000000E+00 0.  1.
         -6    2    1    2    0  503 -0.42471550031E+02  0.15313391251E+03  0.65191977890E+01  0.23451984873E+03  0.17234625551E+03 0.  0.
        -24    2    3    3    0    0 -0.85146224541E+02  0.14291720056E+03  0.22100466820E+02  0.18771840653E+03  0.84110425913E+02 0.  0.
          6    2    1    2  501    0  0.42471550031E+02 -0.15313391251E+03 -0.24398233156E+03  0.33824198042E+03  0.17212330314E+03 0.  0.
         24    2    5    5    0    0 -0.93402902574E+01 -0.14523915337E+03 -0.12769272489E+03  0.21060124776E+03  0.82860128376E+02 0.  0.
          5    1    5    5  501    0  0.51811840288E+02 -0.78947591426E+01 -0.11628960667E+03  0.12764073266E+03  0.47000000000E+01 0. -1.
        -11    1    6    6    0    0 -0.32398075268E+02 -0.13938249896E+03 -0.11534537489E+03  0.18379791024E+03  0.00000000000E+00 0.  1.
         12    1    6    6    0    0  0.23057785010E+02 -0.58566544069E+01 -0.12347349997E+02  0.26803337523E+02  0.00000000000E+00 0. -1.
         -5    1    3    3    0  503  0.42674674510E+02  0.10216711952E+02 -0.15581269031E+02  0.46801442203E+02  0.47000000000E+01 0.  1.
         11    1    4    4    0    0 -0.15331595413E+02  0.10221822000E+03  0.26770607747E+02  0.10677213005E+03  0.00000000000E+00 0. -1.
        -12    1    4    4    0    0 -0.69814629129E+02  0.40698980565E+02 -0.46701409262E+01  0.80946276478E+02  0.00000000000E+00 0.  1.
</event>
<event>
12    1  0.9873238E-001  0.1790745E+03  0.7818608E-02  0.1168926E+00
         21   -1    0    0  501  502  0.00000000000E+00  0.00000000000E+00  0.27449125490E+04  0.27449125490E+04  0.00000000000E+00 0.  1.
         21   -1    0    0  502  503 -0.00000000000E+00 -0.00000000000E+00 -0.13679392040E+02  0.13679392040E+02  0.00000000000E+00 0.  1.
         -6    2    1    2    0  503  0.45620589179E+02  0.85856264756E+01  0.19034036365E+04  0.19118088477E+04  0.17295292815E+03 0.  0.
        -24    2    3    3    0    0  0.60616303525E+02  0.22191083236E+01  0.18837616078E+04  0.18858607592E+04  0.65067253405E+02 0.  0.
          6    2    1    2  501    0 -0.45620589179E+02 -0.85856264756E+01  0.82782952039E+03  0.84678309333E+03  0.17200273595E+03 0.  0.
         24    2    5    5    0    0 -0.62799597546E+02  0.12958320412E+01  0.27288922089E+03  0.29146913928E+03  0.80871896482E+02 0.  0.
          5    1    5    5  501    0  0.17179008366E+02 -0.98814585168E+01  0.55494029950E+03  0.55531395405E+03  0.47000000000E+01 0. -1.
        -11    1    6    6    0    0  0.12954077123E+02 -0.59036581004E+01  0.11843362212E+03  0.11928614396E+03  0.00000000000E+00 0.  1.
         12    1    6    6    0    0 -0.75753674668E+02  0.71994901417E+01  0.15445559877E+03  0.17218299532E+03  0.00000000000E+00 0. -1.
         -5    1    3    3    0  503 -0.14995714345E+02  0.63665181520E+01  0.19642028769E+02  0.25948088489E+02  0.47000000000E+01 0.  1.
         13    1    4    4    0    0  0.64734168225E+02  0.20245692813E+02  0.12591057157E+04  0.12609312448E+04  0.00000000000E+00 0. -1.
        -14    1    4    4    0    0 -0.41178647007E+01 -0.18026584489E+02  0.62465589203E+03  0.62492951443E+03  0.00000000000E+00 0.  1.
</event>
<event>
12    1  0.9873238E-001  0.1764595E+03  0.7818608E-02  0.1174826E+00
         21   -1    0    0  503  502  0.00000000000E+00  0.00000000000E+00  0.47898446877E+02  0.47898446877E+02  0.00000000000E+00 0. -1.
         21   -1    0    0  501  503 -0.00000000000E+00 -0.00000000000E+00 -0.66254191587E+03  0.66254191587E+03  0.00000000000E+00 0. -1.
          6    2    1    2  501    0 -0.36391949668E+02  0.67632083464E+01 -0.42711311120E+03  0.46212939290E+03  0.17253362290E+03 0.  0.
         24    2    3    3    0    0 -0.16399984178E+02 -0.62471819435E+02 -0.26857827457E+03  0.28792103437E+03  0.81194487226E+02 0.  0.
         -6    2    1    2    0  502  0.36391949668E+02 -0.67632083464E+01 -0.18753035779E+03  0.24831096985E+03  0.15849475596E+03 0.  0.
        -24    2    5    5    0    0 -0.21338507214E+01 -0.20974057842E+02 -0.36245752699E+02  0.91482059003E+02  0.81306507177E+02 0.  0.
          5    1    3    3  501    0 -0.19991965490E+02  0.69235027782E+02 -0.15853483663E+03  0.17420835853E+03  0.47000000000E+01 0. -1.
        -13    1    4    4    0    0 -0.15721398457E+02 -0.19844977071E+02 -0.12348102359E+02  0.28168441850E+02  0.00000000000E+00 0.  1.
         14    1    4    4    0    0 -0.67858572050E+00 -0.42626842364E+02 -0.25623017221E+03  0.25975259252E+03  0.00000000000E+00 0. -1.
         -5    1    5    5    0  502  0.38525800389E+02  0.14210849496E+02 -0.15128460509E+03  0.15682891084E+03  0.47000000000E+01 0.  1.
         11    1    6    6    0    0  0.22569992371E+02 -0.33764338949E+02  0.58423376775E+01  0.41031305729E+02  0.00000000000E+00 0. -1.
        -12    1    6    6    0    0 -0.24703843093E+02  0.12790281107E+02 -0.42088090376E+02  0.50450753273E+02  0.00000000000E+00 0.  1.
</event>
<event>
12    1  0.9873238E-001  0.1863896E+03  0.7818608E-02  0.1161782E+00
         21   -1    0    0  503  502  0.00000000000E+00  0.00000000000E+00  0.37617127673E+03  0.37617127673E+03  0.00000000000E+00 0.  1.
         21   -1    0    0  501  503 -0.00000000000E+00 -0.00000000000E+00 -0.10921051952E+03  0.10921051952E+03  0.00000000000E+00 0.  1.
          6    2    1    2  501    0 -0.61728489917E+02 -0.36395556136E+02  0.37963259133E+02  0.19011758627E+03  0.17195477484E+03 0.  0.
         24    2    3    3    0    0  0.22831079493E+02 -0.24350038588E+02 -0.17894211102E+02  0.87953197890E+02  0.79381229886E+02 0.  0.
         -6    2    1    2    0  502  0.61728489917E+02  0.36395556136E+02  0.22899749808E+03  0.29526420998E+03  0.17206410606E+03 0.  0.
        -24    2    5    5    0    0  0.64392510918E+02  0.52398221447E+02  0.24565918810E+03  0.27153902885E+03  0.80579392026E+02 0.  0.
          5    1    3    3  501    0 -0.84559569410E+02 -0.12045517548E+02  0.55857470235E+02  0.10216438838E+03  0.47000000000E+01 0. -1.
        -13    1    4    4    0    0  0.58021584138E+01 -0.10736607661E+02  0.31597449412E+02  0.33872386921E+02  0.00000000000E+00 0.  1.
         14    1    4    4    0    0  0.17028921079E+02 -0.13613430927E+02 -0.49491660514E+02  0.54080810970E+02  0.00000000000E+00 0. -1.
         -5    1    5    5    0  502 -0.26640210005E+01 -0.16002665311E+02 -0.16661690023E+02  0.23725181124E+02  0.47000000000E+01 0.  1.
         13    1    6    6    0    0  0.16059627534E+02  0.72240382982E+01  0.17051537849E+03  0.17142226421E+03  0.00000000000E+00 0. -1.
        -14    1    6    6    0    0  0.48332883384E+02  0.45174183149E+02  0.75143809606E+02  0.10011676464E+03  0.00000000000E+00 0.  1.
</event>
<event>
12    1  0.9873238E-001  0.2332294E+03  0.7818608E-02  0.1124566E+00
         21   -1    0    0  503  502  0.00000000000E+00  0.00000000000E+00  0.31618113578E+02  0.31618113578E+02  0.00000000000E+00 0.  1.
         21   -1    0    0  501  503 -0.00000000000E+00 -0.00000000000E+00 -0.17165419214E+04  0.17165419214E+04  0.00000000000E+00 0.  1.
          6    2    1    2  501    0 -0.12491968931E+03 -0.95107015602E+02 -0.79988400114E+03  0.83290518951E+03  0.17107415418E+03 0.  0.
         24    2    3    3    0    0 -0.99947653303E+02 -0.48137122452E+02 -0.33296030673E+03  0.36293753121E+03  0.92489835880E+02 0.  0.
         -6    2    1    2    0  502  0.12491968931E+03  0.95107015602E+02 -0.88503980665E+03  0.91525484544E+03  0.17246941630E+03 0.  0.
        -24    2    5    5    0    0  0.15073116085E+03  0.88922024168E+02 -0.62168656376E+03  0.65052572592E+03  0.77862232768E+02 0.  0.
          5    1    3    3  501    0 -0.24972036002E+02 -0.46969893150E+02 -0.46692369441E+03  0.46996765830E+03  0.47000000000E+01 0. -1.
        -11    1    4    4    0    0 -0.55435048827E+00  0.51649649878E+01  0.46593078696E+01  0.69780597313E+01  0.00000000000E+00 0.  1.
         12    1    4    4    0    0 -0.99393302815E+02 -0.53302087440E+02 -0.33761961460E+03  0.35595947148E+03  0.00000000000E+00 0. -1.
         -5    1    5    5    0  502 -0.25811471543E+02  0.61849914339E+01 -0.26335324289E+03  0.26472911952E+03  0.47000000000E+01 0.  1.
         13    1    6    6    0    0  0.62869599841E+02  0.45668364639E+02 -0.15169076534E+03  0.17043554325E+03  0.00000000000E+00 0. -1.
        -14    1    6    6    0    0  0.87861561007E+02  0.43253659529E+02 -0.46999579842E+03  0.48009018267E+03  0.00000000000E+00 0.  1.
</event>
<event>
12    1  0.9873238E-001  0.2417073E+03  0.7818608E-02  0.1118839E+00
         21   -1    0    0  501  502  0.00000000000E+00  0.00000000000E+00  0.37991790244E+03  0.37991790244E+03  0.00000000000E+00 0. -1.
         21   -1    0    0  502  503 -0.00000000000E+00 -0.00000000000E+00 -0.21791725964E+03  0.21791725964E+03  0.00000000000E+00 0. -1.
         -6    2    1    2    0  503  0.17000082920E+03  0.14050391421E+02  0.24390903118E+03  0.34262663630E+03  0.16971653126E+03 0.  0.
        -24    2    3    3    0    0  0.71678483654E+02  0.60410608569E+02  0.84226325939E+02  0.14939824884E+03  0.80240364709E+02 0.  0.
          6    2    1    2  501    0 -0.17000082920E+03 -0.14050391421E+02 -0.81908388377E+02  0.25520852579E+03  0.17124459735E+03 0.  0.
         24    2    5    5    0    0 -0.47392616276E+02  0.30363165796E+02 -0.78063741440E+02  0.12466271294E+03  0.79239272816E+02 0.  0.
          5    1    5    5  501    0 -0.12260821292E+03 -0.44413557217E+02 -0.38446469371E+01  0.13054581284E+03  0.47000000000E+01 0. -1.
        -13    1    6    6    0    0 -0.53455764382E+02  0.14488434016E+02 -0.88732011585E+02  0.10459829514E+03  0.00000000000E+00 0.  1.
         14    1    6    6    0    0  0.60631481058E+01  0.15874731780E+02  0.10668270145E+02  0.20064417807E+02  0.00000000000E+00 0. -1.
         -5    1    3    3    0  503  0.98322345542E+02 -0.46360217147E+02  0.15968270524E+03  0.19322838746E+03  0.47000000000E+01 0.  1.
         11    1    4    4    0    0  0.17920878385E+02  0.32649474478E+02  0.80597633631E+02  0.88786961952E+02  0.00000000000E+00 0. -1.
        -12    1    4    4    0    0  0.53757605269E+02  0.27761134091E+02  0.36286923080E+01  0.60611286888E+02  0.00000000000E+00 0.  1.
</event>
<event>
12    1  0.9873238E-001  0.3095050E+03  0.7818608E-02  0.1080644E+00
         21   -1    0    0  501  502  0.00000000000E+00  0.00000000000E+00  0.53406035148E+03  0.53406035148E+03  0.00000000000E+00 0.  1.
         21   -1    0    0  502  503 -0.00000000000E+00 -0.00000000000E+00 -0.18011732787E+03  0.18011732787E+03  0.00000000000E+00 0.  1.
         -6    2    1    2    0  503 -0.25623172452E+03 -0.34716221455E+01  0.14966473246E+03  0.34333678230E+03  0.17266691961E+03 0.  0.
        -24    2    3    3    0    0 -0.21600833022E+03 -0.61141188744E+02  0.12130199130E+03  0.26737471646E+03  0.79857512006E+02 0.  0.
          6    2    1    2  501    0  0.25623172452E+03  0.34716221455E+01  0.20427829115E+03  0.37084089705E+03  0.17357016412E+03 0.  0.
         24    2    5    5    0    0  0.20867466743E+03  0.63057832429E+02  0.11698280818E+03  0.25484614940E+03  0.61156973380E+02 0.  0.
          5    1    5    5  501    0  0.47557057092E+02 -0.59586210284E+02  0.87295482971E+02  0.11599474765E+03  0.47000000000E+01 0. -1.
        -11    1    6    6    0    0  0.23844965158E+00  0.10589346205E+02  0.10736662676E+02  0.15082010367E+02  0.00000000000E+00 0.  1.
         12    1    6    6    0    0  0.20843621778E+03  0.52468486225E+02  0.10624614551E+03  0.23976413903E+03  0.00000000000E+00 0. -1.
         -5    1    3    3    0  503 -0.40223394304E+02  0.57669566598E+02  0.28362741164E+02  0.75962065844E+02  0.47000000000E+01 0.  1.
         11    1    4    4    0    0 -0.27430820678E+02 -0.29346575780E+01 -0.11082029498E+02  0.29730010360E+02  0.00000000000E+00 0. -1.
        -12    1    4    4    0    0 -0.18857750954E+03 -0.58206531166E+02  0.13238402080E+03  0.23764470610E+03  0.00000000000E+00 0.  1.
</event>
<event>
12    1  0.9873238E-001  0.1746699E+03  0.7818608E-02  0.1173186E+00
         21   -1    0    0  503  502  0.00000000000E+00  0.00000000000E+00  0.25367986741E+03  0.25367986741E+03  0.00000000000E+00 0.  1.
         21   -1    0    0  501  503 -0.00000000000E+00 -0.00000000000E+00 -0.22517488172E+03  0.22517488172E+03  0.00000000000E+00 0.  1.
          6    2    1    2  501    0  0.23002860223E+02 -0.10190661021E+02  0.17792599102E+03  0.24899347451E+03  0.17235750902E+03 0.  0.
         24    2    3    3    0    0  0.24477490783E+02  0.14929166459E+02  0.17272245854E+02  0.86313125038E+02  0.79558767655E+02 0.  0.
         -6    2    1    2    0  502 -0.23002860223E+02  0.10190661021E+02 -0.14942100533E+03  0.22986127462E+03  0.17284845266E+03 0.  0.
        -24    2    5    5    0    0 -0.73838462575E+01  0.72340612248E+02 -0.10858698688E+03  0.15372930303E+03  0.80956034521E+02 0.  0.
          5    1    3    3  501    0 -0.14746305600E+01 -0.25119827480E+02  0.16065374516E+03  0.16268034947E+03  0.47000000000E+01 0. -1.
        -11    1    4    4    0    0 -0.11364755458E+02  0.37360582252E+02 -0.34925394604E+01  0.39206741827E+02  0.00000000000E+00 0.  1.
         12    1    4    4    0    0  0.35842246241E+02 -0.22431415792E+02  0.20764785315E+02  0.47106383211E+02  0.00000000000E+00 0. -1.
         -5    1    5    5    0  502 -0.15619013966E+02 -0.62149951227E+02 -0.40834018444E+02  0.76131971583E+02  0.47000000000E+01 0.  1.
         13    1    6    6    0    0 -0.23783546319E+01  0.69797723145E+02 -0.31799995417E+02  0.76737334039E+02  0.00000000000E+00 0. -1.
        -14    1    6    6    0    0 -0.50054916257E+01  0.25428891029E+01 -0.76786991466E+02  0.76991968996E+02  0.00000000000E+00 0.  1.
</event>
<event>
12    1  0.9873238E-001  0.2164135E+03  0.7818608E-02  0.1136782E+00
         21   -1    0    0  501  502  0.00000000000E+00  0.00000000000E+00  0.11017495459E+03  0.11017495459E+03  0.00000000000E+00 0. -1.
         21   -1    0    0  502  503 -0.00000000000E+00 -0.00000000000E+00 -0.43747881506E+03  0.43747881506E+03  0.00000000000E+00 0. -1.
         -6    2    1    2    0  503 -0.39334124927E+02 -0.12425236448E+03 -0.21296132959E+03  0.30289060357E+03  0.17147701412E+03 0.  0.
        -24    2    3    3    0    0  0.76108576076E+01 -0.78945255971E+02 -0.20954138847E+03  0.23738982904E+03  0.78460556051E+02 0.  0.
          6    2    1    2  501    0  0.39334124927E+02  0.12425236448E+03 -0.11434253088E+03  0.24476316608E+03  0.17276854355E+03 0.  0.
         24    2    5    5    0    0 -0.42879988900E+02  0.46900645588E+02 -0.46683165691E+02  0.11307289072E+03  0.81041943779E+02 0.  0.
          5    1    5    5  501    0  0.82214113827E+02  0.77351718891E+02 -0.67659365187E+02  0.13169027536E+03  0.47000000000E+01 0. -1.
        -11    1    6    6    0    0 -0.62375840635E+02  0.35304941860E+02 -0.53440673083E+02  0.89404082425E+02  0.00000000000E+00 0.  1.
         12    1    6    6    0    0  0.19495851735E+02  0.11595703728E+02  0.67575073919E+01  0.23668808292E+02  0.00000000000E+00 0. -1.
         -5    1    3    3    0  503 -0.46944982535E+02 -0.45307108508E+02 -0.34199411130E+01  0.65500774528E+02  0.47000000000E+01 0.  1.
         13    1    4    4    0    0  0.45351096385E+01  0.94232261657E+01 -0.79193673834E+02  0.79881176670E+02  0.00000000000E+00 0. -1.
        -14    1    4    4    0    0  0.30757479691E+01 -0.88368482137E+02 -0.13034771464E+03  0.15750865237E+03  0.00000000000E+00 0.  1.
</event>
<event>
12    1  0.9873238E-001  0.1865702E+03  0.7818608E-02  0.1162046E+00
         21   -1    0    0  501  502  0.00000000000E+00  0.00000000000E+00  0.67705672600E+03  0.67705672600E+03  0.00000000000E+00 0. -1.
         21   -1    0    0  502  503 -0.00000000000E+00 -0.00000000000E+00 -0.54755657882E+02  0.54755657882E+02  0.00000000000E+00 0. -1.
         -6    2    1    2    0  503  0.20804787039E+02  0.65199168031E+02  0.41010216892E+03  0.45054660855E+03  0.17356464748E+03 0.  0.
        -24    2    3    3    0    0  0.10163138747E+02  0.14771797897E+01  0.73506727494E+02  0.10777508458E+03  0.78145751128E+02 0.  0.
          6    2    1    2  501    0 -0.20804787039E+02 -0.65199168031E+02  0.21219889920E+03  0.28126577533E+03  0.17145930384E+03 0.  0.
         24    2    5    5    0    0  0.14709795178E+02  0.12926273278E+02  0.48383025761E+02  0.96272260519E+02  0.80894773309E+02 0.  0.
          5    1    5    5  501    0 -0.35514582217E+02 -0.78125441309E+02  0.16381587344E+03  0.18499351481E+03  0.47000000000E+01 0. -1.
        -13    1    6    6    0    0  0.23703042908E+01 -0.90794169663E+01 -0.20699404928E+02  0.22727065786E+02  0.00000000000E+00 0.  1.
         14    1    6    6    0    0  0.12339490888E+02  0.22005690245E+02  0.69082430689E+02  0.73545194733E+02  0.00000000000E+00 0. -1.
         -5    1    3    3    0  503  0.10641648292E+02  0.63721988241E+02  0.33659544142E+03  0.34277152398E+03  0.47000000000E+01 0.  1.
         13    1    4    4    0    0  0.39590315273E+02  0.18997610263E+02  0.48114792840E+02  0.65140889994E+02  0.00000000000E+00 0. -1.
        -14    1    4    4    0    0 -0.29427176526E+02 -0.17520430474E+02  0.25391934654E+02  0.42634194583E+02  0.00000000000E+00 0.  1.
</event>
<event>
12    1  0.9873238E-001  0.1767888E+03  0.7818608E-02  0.1171106E+00
         21   -1    0    0  501  502  0.00000000000E+00  0.00000000000E+00  0.18150861051E+03  0.18150861051E+03  0.00000000000E+00 0. -1.
         21   -1    0    0  502  503 -0.00000000000E+00 -0.00000000000E+00 -0.17575908688E+03  0.17575908688E+03  0.00000000000E+00 0. -1.
         -6    2    1    2    0  503 -0.12783205946E+01 -0.40804252372E+02 -0.24706693835E+02  0.17787468395E+03  0.17135449032E+03 0.  0.
        -24    2    3    3    0    0 -0.37065033080E+01  0.21049204591E+02 -0.63866822704E+02  0.10447610152E+03  0.79871631795E+02 0.  0.
          6    2    1    2  501    0  0.12783205946E+01  0.40804252372E+02  0.30456217463E+02  0.17939301343E+03  0.17201061296E+03 0.  0.
         24    2    5    5    0    0 -0.57026703751E+02 -0.23457157004E+01  0.41022796267E+02  0.10594140898E+03  0.79266417864E+02 0.  0.
          5    1    5    5  501    0  0.58305024346E+02  0.43149968073E+02 -0.10566578804E+02  0.73451604450E+02  0.47000000000E+01 0. -1.
        -11    1    6    6    0    0 -0.62532389121E+01  0.27948091299E+02  0.36849848293E+02  0.46670227376E+02  0.00000000000E+00 0.  1.
         12    1    6    6    0    0 -0.50773464839E+02 -0.30293807000E+02  0.41729479740E+01  0.59271181607E+02  0.00000000000E+00 0. -1.
         -5    1    3    3    0  503  0.24281827134E+01 -0.61853456964E+02  0.39160128869E+02  0.73398582429E+02  0.47000000000E+01 0.  1.
         11    1    4    4    0    0  0.17822237191E+02  0.13809843352E+02  0.11818380986E+02  0.25456198480E+02  0.00000000000E+00 0. -1.
        -12    1    4    4    0    0 -0.21528740500E+02  0.72393612389E+01 -0.75685203690E+02  0.79019903039E+02  0.00000000000E+00 0.  1.
</event>
<event>
12    1  0.9873238E-001  0.1888144E+03  0.7818608E-02  0.1159743E+00
         21   -1    0    0  501  502  0.00000000000E+00  0.00000000000E+00  0.17618227856E+03  0.17618227856E+03  0.00000000000E+00 0. -1.
         21   -1    0    0  502  503 -0.00000000000E+00 -0.00000000000E+00 -0.21643528951E+03  0.21643528951E+03  0.00000000000E+00 0. -1.
         -6    2    1    2    0  503  0.62260571619E+02 -0.47975457789E+02 -0.71867452930E+02  0.20117479993E+03  0.17067028450E+03 0.  0.
        -24    2    3    3    0    0  0.36468335716E+02 -0.88291261233E+02 -0.85071009069E+02  0.15130469531E+03  0.80813043006E+02 0.  0.
          6    2    1    2  501    0 -0.62260571619E+02  0.47975457789E+02  0.31614441977E+02  0.19144276814E+03  0.17167654820E+03 0.  0.
         24    2    5    5    0    0 -0.29867899961E+02  0.35976874592E+02  0.83429776814E+02  0.12899142628E+03  0.86555377886E+02 0.  0.
          5    1    5    5  501    0 -0.32392671658E+02  0.11998583197E+02 -0.51815334838E+02  0.62451341861E+02  0.47000000000E+01 0. -1.
        -11    1    6    6    0    0 -0.36627659747E+02  0.12008281716E+02 -0.33670061873E+01  0.38692648125E+02  0.00000000000E+00 0.  1.
         12    1    6    6    0    0  0.67597597854E+01  0.23968592876E+02  0.86796783002E+02  0.90298778155E+02  0.00000000000E+00 0. -1.
         -5    1    3    3    0  503  0.25792235903E+02  0.40315803444E+02  0.13203556139E+02  0.49870104621E+02  0.47000000000E+01 0.  1.
         11    1    4    4    0    0  0.13109863479E+02  0.14910115075E-01 -0.52839517448E+02  0.54441559005E+02  0.00000000000E+00 0. -1.
        -12    1    4    4    0    0  0.23358472238E+02 -0.88306171348E+02 -0.32231491621E+02  0.96863136309E+02  0.00000000000E+00 0.  1.
</event>
<event>
12    1  0.9873238E-001  0.2357322E+03  0.7818608E-02  0.1123189E+00
         21   -1    0    0  501  502  0.00000000000E+00  0.00000000000E+00  0.63371948704E+03  0.63371948704E+03  0.00000000000E+00 0.  1.
         21   -1    0    0  502  503 -0.00000000000E+00 -0.00000000000E+00 -0.10562991332E+03  0.10562991332E+03  0.00000000000E+00 0.  1.
         -6    2    1    2    0  503  0.14953433106E+03  0.48687730468E+02  0.41969772928E+03  0.47989139341E+03  0.17151837872E+03 0.  0.
        -24    2    3    3    0    0  0.33639093089E+02  0.34436380132E+01  0.72648344112E+02  0.11118541321E+03  0.77077668503E+02 0.  0.
          6    2    1    2  501    0 -0.14953433106E+03 -0.48687730468E+02  0.10839184444E+03  0.25945800695E+03  0.17560937949E+03 0.  0.
         24    2    5    5    0    0 -0.40628344718E+02 -0.65112752249E+02  0.99431544707E+02  0.14885659569E+03  0.79883171550E+02 0.  0.
          5    1    5    5  501    0 -0.10890598634E+03  0.16425021782E+02  0.89602997372E+01  0.11060141126E+03  0.47000000000E+01 0. -1.
        -11    1    6    6    0    0  0.18424568870E+02 -0.98587913043E+01  0.26948416959E+00  0.20898160822E+02  0.00000000000E+00 0.  1.
         12    1    6    6    0    0 -0.59052913588E+02 -0.55253960945E+02  0.99162060537E+02  0.12795843487E+03  0.00000000000E+00 0. -1.
         -5    1    3    3    0  503  0.11589523797E+03  0.45244092454E+02  0.34704938517E+03  0.36870598020E+03  0.47000000000E+01 0.  1.
         11    1    4    4    0    0  0.42136963399E+02  0.32290154261E+02  0.54397412881E+02  0.76008264516E+02  0.00000000000E+00 0. -1.
        -12    1    4    4    0    0 -0.84978703103E+01 -0.28846516247E+02  0.18250931231E+02  0.35177148694E+02  0.00000000000E+00 0.  1.
</event>
<event>
12    1  0.9873238E-001  0.1820260E+03  0.7818608E-02  0.1166329E+00
         21   -1    0    0  503  502  0.00000000000E+00  0.00000000000E+00  0.12733418017E+04  0.12733418017E+04  0.00000000000E+00 0.  1.
         21   -1    0    0  501  503 -0.00000000000E+00 -0.00000000000E+00 -0.26017735165E+02  0.26017735165E+02  0.00000000000E+00 0.  1.
          6    2    1    2  501    0 -0.19053673351E+02 -0.51422746279E+02  0.55991840212E+03  0.58876317904E+03  0.17356878367E+03 0.  0.
         24    2    3    3    0    0 -0.76598314706E+01  0.38782765107E+02  0.27272616612E+03  0.28748535985E+03  0.81887084188E+02 0.  0.
         -6    2    1    2    0  502  0.19053673351E+02  0.51422746279E+02  0.68740566438E+03  0.71059635779E+03  0.17150304654E+03 0.  0.
        -24    2    5    5    0    0  0.46923238014E+02  0.86685810853E+02  0.58442696760E+03  0.59813792837E+03  0.80609433808E+02 0.  0.
          5    1    3    3  501    0 -0.11393841880E+02 -0.90205511386E+02  0.28719223600E+03  0.30127781919E+03  0.47000000000E+01 0. -1.
        -11    1    4    4    0    0 -0.35697240662E+02  0.39700060189E+01  0.58505534970E+02  0.68650939985E+02  0.00000000000E+00 0.  1.
         12    1    4    4    0    0  0.28037409192E+02  0.34812759088E+02  0.21422063115E+03  0.21883441987E+03  0.00000000000E+00 0. -1.
         -5    1    5    5    0  502 -0.27869564663E+02 -0.35263064574E+02  0.10297869678E+03  0.11245842942E+03  0.47000000000E+01 0.  1.
         11    1    6    6    0    0  0.48884040420E+02  0.10704064851E+02  0.27472481386E+03  0.27924532183E+03  0.00000000000E+00 0. -1.
        -12    1    6    6    0    0 -0.19608024065E+01  0.75981746002E+02  0.30970215374E+03  0.31889260654E+03  0.00000000000E+00 0.  1.
</event>
<event>
12    1  0.9873238E-001  0.2226586E+03  0.7818608E-02  0.1131953E+00
         21   -1    0    0  501  502  0.00000000000E+00  0.00000000000E+00  0.10486491684E+03  0.10486491684E+03  0.00000000000E+00 0.  1.
         21   -1    0    0  502  503 -0.00000000000E+00 -0.00000000000E+00 -0.92382176693E+03  0.92382176693E+03  0.00000000000E+00 0.  1.
         -6    2    1    2    0  503  0.31473544919E+02  0.13739783857E+03 -0.50007915384E+02  0.22820523302E+03  0.17236033970E+03 0.  0.
        -24    2    3    3    0    0  0.39136309216E+02  0.46727961475E+01 -0.31361861602E+02  0.93875712195E+02  0.79218667334E+02 0.  0.
          6    2    1    2  501    0 -0.31473544919E+02 -0.13739783857E+03 -0.76894893471E+03  0.80048145075E+03  0.17210269820E+03 0.  0.
         24    2    5    5    0    0 -0.64816530676E+02 -0.25676565380E+02 -0.36487553341E+03  0.37989756944E+03  0.79545834103E+02 0.  0.
          5    1    5    5  501    0  0.33342985757E+02 -0.11172127319E+03 -0.40407340130E+03  0.42058388131E+03  0.47000000000E+01 0. -1.
        -11    1    6    6    0    0 -0.46182182168E+02 -0.22708165218E+02 -0.35478816929E+03  0.35850118519E+03  0.00000000000E+00 0.  1.
         12    1    6    6    0    0 -0.18634348508E+02 -0.29684001627E+01 -0.10087364126E+02  0.21396384247E+02  0.00000000000E+00 0. -1.
         -5    1    3    3    0  503 -0.76627642974E+01  0.13272504242E+03 -0.18646053782E+02  0.13432952082E+03  0.47000000000E+01 0.  1.
         11    1    4    4    0    0  0.15129480157E+02 -0.36499105625E+02 -0.62400158337E+01  0.40000295985E+02  0.00000000000E+00 0. -1.
        -12    1    4    4    0    0  0.24006829059E+02  0.41171901773E+02 -0.25121845768E+02  0.53875416211E+02  0.00000000000E+00 0.  1.
</event>
<event>
12    1  0.9873238E-001  0.2231587E+03  0.7818608E-02  0.1131759E+00
         21   -1    0    0  503  502  0.00000000000E+00  0.00000000000E+00  0.70476420072E+03  0.70476420072E+03  0.00000000000E+00 0.  1.
         21   -1    0    0  501  503 -0.00000000000E+00 -0.00000000000E+00 -0.16299700552E+03  0.16299700552E+03  0.00000000000E+00 0.  1.
          6    2    1    2  501    0  0.13888304891E+03  0.26193000693E+02  0.59778185723E+03  0.63767979173E+03  0.17122439483E+03 0.  0.
         24    2    3    3    0    0  0.15741812709E+02 -0.23621877730E+02  0.19874999161E+03  0.21709233834E+03  0.82593743265E+02 0.  0.
         -6    2    1    2    0  502 -0.13888304891E+03 -0.26193000693E+02 -0.56014662031E+02  0.23008141451E+03  0.17269985635E+03 0.  0.
        -24    2    5    5    0    0 -0.10941836743E+03 -0.44542115462E+02 -0.99594549867E+02  0.17416939352E+03  0.80371164578E+02 0.  0.
          5    1    3    3  501    0  0.12314123620E+03  0.49814878423E+02  0.39903186562E+03  0.42058745339E+03  0.47000000000E+01 0. -1.
        -11    1    4    4    0    0  0.17471162132E+01 -0.12416080713E+02  0.19876902854E+03  0.19916409862E+03  0.00000000000E+00 0.  1.
         12    1    4    4    0    0  0.13994696496E+02 -0.11205797017E+02 -0.19036931007E-01  0.17928239713E+02  0.00000000000E+00 0. -1.
         -5    1    5    5    0  502 -0.29464681486E+02  0.18349114769E+02  0.43579887837E+02  0.55912020995E+02  0.47000000000E+01 0.  1.
         11    1    6    6    0    0 -0.33635488847E+02 -0.16735046963E+02  0.92183429060E+01  0.38683145590E+02  0.00000000000E+00 0. -1.
        -12    1    6    6    0    0 -0.75782878579E+02 -0.27807068499E+02 -0.10881289277E+03  0.13548624793E+03  0.00000000000E+00 0.  1.
</event>
<event>
12    1  0.9873238E-001  0.2156066E+03  0.7818608E-02  0.1137375E+00
         21   -1    0    0  501  502  0.00000000000E+00  0.00000000000E+00  0.59591733663E+02  0.59591733663E+02  0.00000000000E+00 0.  1.
         21   -1    0    0  502  503 -0.00000000000E+00 -0.00000000000E+00 -0.92076956714E+03  0.92076956714E+03  0.00000000000E+00 0.  1.
         -6    2    1    2    0  503  0.11309531010E+03 -0.62637317497E+02 -0.23599988349E+03  0.31904921762E+03  0.17141317203E+03 0.  0.
        -24    2    3    3    0    0  0.11502657982E+03 -0.10338662745E+03 -0.19555064080E+03  0.26140837013E+03  0.78577185356E+02 0.  0.
          6    2    1    2  501    0 -0.11309531010E+03  0.62637317497E+02 -0.62517794998E+03  0.66131208318E+03  0.17254628222E+03 0.  0.
         24    2    5    5    0    0 -0.18096642832E+02  0.75672783617E+02 -0.42956106713E+03  0.44340677114E+03  0.77672360824E+02 0.  0.
          5    1    5    5  501    0 -0.94998667267E+02 -0.13035466119E+02 -0.19561688285E+03  0.21790531204E+03  0.47000000000E+01 0. -1.
        -13    1    6    6    0    0  0.23022684066E+02  0.29514628846E+02 -0.78783345044E+02  0.87223693764E+02  0.00000000000E+00 0.  1.
         14    1    6    6    0    0 -0.41119326898E+02  0.46158154771E+02 -0.35077772209E+03  0.35618307738E+03  0.00000000000E+00 0. -1.
         -5    1    3    3    0  503 -0.19312697193E+01  0.40749309954E+02 -0.40449242693E+02  0.57640847486E+02  0.47000000000E+01 0.  1.
         13    1    4    4    0    0  0.12430897110E+03 -0.80691757386E+02 -0.17572379529E+03  0.22987547115E+03  0.00000000000E+00 0. -1.
        -14    1    4    4    0    0 -0.92823912855E+01 -0.22694870065E+02 -0.19826845508E+02  0.31532898979E+02  0.00000000000E+00 0.  1.
</event>
<event>
12    1  0.9873238E-001  0.2643348E+03  0.7818608E-02  0.1105700E+00
         21   -1    0    0  501  502  0.00000000000E+00  0.00000000000E+00  0.16747644163E+03  0.16747644163E+03  0.00000000000E+00 0.  1.
         21   -1    0    0  502  503 -0.00000000000E+00 -0.00000000000E+00 -0.40806434596E+03  0.40806434596E+03  0.00000000000E+00 0.  1.
         -6    2    1    2    0  503  0.55581298079E+02  0.19224426148E+03 -0.14217547951E+03  0.29348070182E+03  0.16084128387E+03 0.  0.
        -24    2    3    3    0    0  0.14933230958E+02  0.90583798976E+02 -0.93582118938E+01  0.12129001806E+03  0.78710014142E+02 0.  0.
          6    2    1    2  501    0 -0.55581298079E+02 -0.19224426148E+03 -0.98412424818E+02  0.28206008577E+03  0.17270133137E+03 0.  0.
         24    2    5    5    0    0  0.19543706774E+02 -0.68034306354E+02  0.62441561411E+00  0.10626968481E+03  0.79260536834E+02 0.  0.
          5    1    5    5  501    0 -0.75125004853E+02 -0.12420995513E+03 -0.99036840432E+02  0.17579040096E+03  0.47000000000E+01 0. -1.
        -11    1    6    6    0    0  0.28374138513E+02 -0.24756615646E+02 -0.33541604032E+02  0.50428374508E+02  0.00000000000E+00 0.  1.
         12    1    6    6    0    0 -0.88304317389E+01 -0.43277690708E+02  0.34166019646E+02  0.55841310301E+02  0.00000000000E+00 0. -1.
         -5    1    3    3    0  503  0.40648067121E+02  0.10166046250E+03 -0.13281726762E+03  0.17219068376E+03  0.47000000000E+01 0.  1.
         13    1    4    4    0    0  0.25160177369E+02  0.98336523699E+02 -0.21350726538E+02  0.10372540645E+03  0.00000000000E+00 0. -1.
        -14    1    4    4    0    0 -0.10226946411E+02 -0.77527247232E+01  0.11992514644E+02  0.17564611610E+02  0.00000000000E+00 0.  1.
</event>
<event>
12    1  0.9873238E-001  0.2366762E+03  0.7818608E-02  0.1122487E+00
         21   -1    0    0  501  502  0.00000000000E+00  0.00000000000E+00  0.79312164989E+03  0.79312164989E+03  0.00000000000E+00 0.  1.
         21   -1    0    0  502  503 -0.00000000000E+00 -0.00000000000E+00 -0.85650067737E+02  0.85650067737E+02  0.00000000000E+00 0.  1.
         -6    2    1    2    0  503 -0.15769149285E+03 -0.35783515148E+02  0.54095034061E+03  0.58938453663E+03  0.16911473662E+03 0.  0.
        -24    2    3    3    0    0 -0.12725805996E+03 -0.39084732255E+02  0.23244996422E+03  0.27933346970E+03  0.79195778358E+02 0.  0.
          6    2    1    2  501    0  0.15769149285E+03  0.35783515148E+02  0.16652124155E+03  0.28938718100E+03  0.17282520004E+03 0.  0.
         24    2    5    5    0    0  0.11251667359E+03  0.48858959969E+02  0.18808885362E+03  0.23743543952E+03  0.77142538714E+02 0.  0.
          5    1    5    5  501    0  0.45174819254E+02 -0.13075444822E+02 -0.21567612073E+02  0.51951741477E+02  0.47000000000E+01 0. -1.
        -11    1    6    6    0    0  0.19362094446E+02  0.41973674959E+02  0.94545488656E+02  0.10524034168E+03  0.00000000000E+00 0.  1.
         12    1    6    6    0    0  0.93154579148E+02  0.68852850107E+01  0.93543364964E+02  0.13219509785E+03  0.00000000000E+00 0. -1.
         -5    1    3    3    0  503 -0.30433432891E+02  0.33012171070E+01  0.30850037639E+03  0.31005106693E+03  0.47000000000E+01 0.  1.
         11    1    4    4    0    0 -0.82743485740E+02 -0.11118763829E+02  0.20201953202E+03  0.21859094826E+03  0.00000000000E+00 0. -1.
        -12    1    4    4    0    0 -0.44514574218E+02 -0.27965968426E+02  0.30430432200E+02  0.60742521446E+02  0.00000000000E+00 0.  1.
</event>
<event>
12    1  0.9873238E-001  0.2251560E+03  0.7818608E-02  0.1130148E+00
         21   -1    0    0  503  502  0.00000000000E+00  0.00000000000E+00  0.30764781250E+03  0.30764781250E+03  0.00000000000E+00 0. -1.
         21   -1    0    0  501  503 -0.00000000000E+00 -0.00000000000E+00 -0.16633120973E+03  0.16633120973E+03  0.00000000000E+00 0. -1.
          6    2    1    2  501    0  0.14630050013E+03 -0.71692052950E+01  0.95062162549E+02  0.24440143387E+03  0.17099711193E+03 0.  0.
         24    2    3    3    0    0  0.15906929487E+03 -0.45807983847E+02  0.70619740805E+02  0.19669903029E+03  0.79384814478E+02 0.  0.
         -6    2    1    2    0  502 -0.14630050013E+03  0.71692052950E+01  0.46254440225E+02  0.22957758836E+03  0.17061993434E+03 0.  0.
        -24    2    5    5    0    0 -0.69043455586E+02 -0.44533176588E+02 -0.17264906981E+02  0.11688959125E+03  0.81332016775E+02 0.  0.
          5    1    3    3  501    0 -0.12768794739E+02  0.38638778552E+02  0.24442421743E+02  0.47702403585E+02  0.47000000000E+01 0. -1.
        -13    1    4    4    0    0  0.12160863318E+02 -0.30067339884E+02  0.28205475975E+02  0.42982326593E+02  0.00000000000E+00 0.  1.
         14    1    4    4    0    0  0.14690843155E+03 -0.15740643963E+02  0.42414264830E+02  0.15371670369E+03  0.00000000000E+00 0. -1.
         -5    1    5    5    0  502 -0.77257044547E+02  0.51702381883E+02  0.63519347206E+02  0.11268799712E+03  0.47000000000E+01 0.  1.
         11    1    6    6    0    0  0.10630108962E+02 -0.12124956612E+02 -0.25831660564E+02  0.30451411739E+02  0.00000000000E+00 0. -1.
        -12    1    6    6    0    0 -0.79673564548E+02 -0.32408219976E+02  0.85667535833E+01  0.86438179509E+02  0.00000000000E+00 0.  1.
</event>
<event>
12    1  0.9873238E-001  0.2455868E+03  0.7818608E-02  0.1116164E+00
         21   -1    0    0  501  502  0.00000000000E+00  0.00000000000E+00  0.70099743367E+02  0.70099743367E+02  0.00000000000E+00 0. -1.
         21   -1    0    0  502  503 -0.00000000000E+00 -0.00000000000E+00 -0.90697975581E+03  0.90697975581E+03  0.00000000000E+00 0.  1.
         -6    2    1    2    0  503 -0.17496131092E+03  0.15420214988E+02 -0.53034088394E+03  0.58444362092E+03  0.17164978738E+03 0.  0.
        -24    2    3    3    0    0 -0.81431843629E+02 -0.56075122855E+02 -0.28525685970E+03  0.31251051606E+03  0.80720394438E+02 0.  0.
          6    2    1    2  501    0  0.17496131092E+03 -0.15420214988E+02 -0.30653912850E+03  0.39263587825E+03  0.17131098109E+03 0.  0.
         24    2    5    5    0    0  0.19190655120E+03  0.13460432544E+02 -0.23829663655E+03  0.31647577927E+03  0.79764178902E+02 0.  0.
          5    1    5    5  501    0 -0.16945240279E+02 -0.28880647532E+02 -0.68242491945E+02  0.76160098982E+02  0.47000000000E+01 0. -1.
        -11    1    6    6    0    0  0.29872688973E+02  0.17174217141E+02 -0.88809004912E+01  0.35583727664E+02  0.00000000000E+00 0.  1.
         12    1    6    6    0    0  0.16203386222E+03 -0.37137845966E+01 -0.22941573606E+03  0.28089205161E+03  0.00000000000E+00 0. -1.
         -5    1    3    3    0  503 -0.93529467288E+02  0.71495337843E+02 -0.24508402424E+03  0.27193310486E+03  0.47000000000E+01 0.  1.
         11    1    4    4    0    0 -0.96753176019E+02 -0.38679524331E+02 -0.22529798069E+03  0.24822663591E+03  0.00000000000E+00 0. -1.
        -12    1    4    4    0    0  0.15321332390E+02 -0.17395598524E+02 -0.59958879009E+02  0.64283880143E+02  0.00000000000E+00 0.  1.
</event>
<event>
12    1  0.9873238E-001  0.1938007E+03  0.7818608E-02  0.1155125E+00
         21   -1    0    0  501  502  0.00000000000E+00  0.00000000000E+00  0.67912483550E+02  0.67912483550E+02  0.00000000000E+00 0. -1.
         21   -1    0    0  502  503 -0.00000000000E+00 -0.00000000000E+00 -0.69373264758E+03  0.69373264758E+03  0.00000000000E+00 0. -1.
         -6    2    1    2    0  503  0.91215319958E+02  0.54240776279E+01 -0.14090048886E+03  0.23943271416E+03  0.17066171697E+03 0.  0.
        -24    2    3    3    0    0  0.99546985853E+02 -0.27046563245E+02 -0.44947822936E+02  0.13768418458E+03  0.79344243144E+02 0.  0.
          6    2    1    2  501    0 -0.91215319958E+02 -0.54240776279E+01 -0.48491967518E+03  0.52221241697E+03  0.17090658809E+03 0.  0.
         24    2    5    5    0    0 -0.12552512582E+03  0.14472666348E+02 -0.42106419486E+03  0.44689538327E+03  0.80339355948E+02 0.  0.
          5    1    5    5  501    0  0.34309805858E+02 -0.19896743976E+02 -0.63855480321E+02  0.75317033704E+02  0.47000000000E+01 0. -1.
        -11    1    6    6    0    0 -0.11447806552E+03  0.20811616723E+02 -0.25440646245E+03  0.27975167383E+03  0.00000000000E+00 0.  1.
         12    1    6    6    0    0 -0.11047060296E+02 -0.63389503744E+01 -0.16665773241E+03  0.16714370944E+03  0.00000000000E+00 0. -1.
         -5    1    3    3    0  503 -0.83316658954E+01  0.32470640873E+02 -0.95952665922E+02  0.10174852959E+03  0.47000000000E+01 0.  1.
         13    1    4    4    0    0  0.78297727094E+02 -0.32043168355E+02 -0.66044077948E+02  0.10732715844E+03  0.00000000000E+00 0. -1.
        -14    1    4    4    0    0  0.21249258759E+02  0.49966051095E+01  0.21096255013E+02  0.30357026139E+02  0.00000000000E+00 0.  1.
</event>
<event>
12    1  0.9873238E-001  0.2348953E+03  0.7818608E-02  0.1123546E+00
         21   -1    0    0  503  502  0.00000000000E+00  0.00000000000E+00  0.34813072933E+03  0.34813072933E+03  0.00000000000E+00 0.  1.
         21   -1    0    0  501  503 -0.00000000000E+00 -0.00000000000E+00 -0.15783585716E+03  0.15783585716E+03  0.00000000000E+00 0.  1.
          6    2    1    2  501    0  0.67551076168E+02  0.14338239613E+03  0.79990928905E+02  0.24646171932E+03  0.17094786038E+03 0.  0.
         24    2    3    3    0    0 -0.14748886586E+02  0.11577944291E+03  0.27166121223E+02  0.14473779292E+03  0.81170324011E+02 0.  0.
         -6    2    1    2    0  502 -0.67551076168E+02 -0.14338239613E+03  0.11030394326E+03  0.25950486718E+03  0.17336134741E+03 0.  0.
        -24    2    5    5    0    0 -0.95644757533E+02 -0.92204350891E+02  0.12405799107E+03  0.19934083242E+03  0.81834102641E+02 0.  0.
          5    1    3    3  501    0  0.82299962754E+02  0.27602953221E+02  0.52824807682E+02  0.10172392640E+03  0.47000000000E+01 0. -1.
        -11    1    4    4    0    0 -0.11560951036E+02  0.69057352530E+02  0.56073208725E+02  0.89703836395E+02  0.00000000000E+00 0.  1.
         12    1    4    4    0    0 -0.31879355504E+01  0.46722090380E+02 -0.28907087502E+02  0.55033956521E+02  0.00000000000E+00 0. -1.
         -5    1    5    5    0  502  0.28093681365E+02 -0.51178045239E+02 -0.13754047805E+02  0.60164034756E+02  0.47000000000E+01 0.  1.
         13    1    6    6    0    0 -0.97969786304E+02 -0.93878927837E+02  0.84862061227E+02  0.16004031228E+03  0.00000000000E+00 0. -1.
        -14    1    6    6    0    0  0.23250287712E+01  0.16745769455E+01  0.39195929844E+02  0.39300520137E+02  0.00000000000E+00 0.  1.
</event>
<event>
12    1  0.9873238E-001  0.1974873E+03  0.7818608E-02  0.1152018E+00
         21   -1    0    0  503  502  0.00000000000E+00  0.00000000000E+00  0.42500134732E+03  0.42500134732E+03  0.00000000000E+00 0.  1.
         21   -1    0    0  501  503 -0.00000000000E+00 -0.00000000000E+00 -0.97015748961E+02  0.97015748961E+02  0.00000000000E+00 0.  1.
          6    2    1    2  501    0  0.65928671986E+02 -0.69182014244E+02  0.22618254270E+03  0.29983453685E+03  0.17207401309E+03 0.  0.
         24    2    3    3    0    0  0.50746027200E+02  0.27173696366E+02  0.11253187445E+03  0.14998961680E+03  0.80745856432E+02 0.  0.
         -6    2    1    2    0  502 -0.65928671986E+02  0.69182014244E+02  0.10180305566E+03  0.22218255944E+03  0.17282501755E+03 0.  0.
        -24    2    5    5    0    0 -0.31232365183E+02  0.61580776565E+02 -0.84406125713E+01  0.10626289369E+03  0.80329981689E+02 0.  0.
          5    1    3    3  501    0  0.15182644786E+02 -0.96355710610E+02  0.11365066825E+03  0.14984492004E+03  0.47000000000E+01 0. -1.
        -13    1    4    4    0    0  0.20265911136E+02  0.34990481189E+02  0.85217390826E+01  0.41323854673E+02  0.00000000000E+00 0.  1.
         14    1    4    4    0    0  0.30480116064E+02 -0.78167848235E+01  0.10401013537E+03  0.10866576213E+03  0.00000000000E+00 0. -1.
         -5    1    5    5    0  502 -0.34696306803E+02  0.76012376799E+01  0.11024366824E+03  0.11591966574E+03  0.47000000000E+01 0.  1.
         11    1    6    6    0    0  0.20547118771E+02  0.47880355002E+02 -0.79030079562E+01  0.52698861654E+02  0.00000000000E+00 0. -1.
        -12    1    6    6    0    0 -0.51779483953E+02  0.13700421562E+02 -0.53760461510E+00  0.53564032038E+02  0.00000000000E+00 0.  1.
</event>
<event>
12    1  0.9873238E-001  0.4803654E+03  0.7818608E-02  0.1019234E+00
         21   -1    0    0  501  502  0.00000000000E+00  0.00000000000E+00  0.98815712339E+03  0.98815712339E+03  0.00000000000E+00 0.  1.
         21   -1    0    0  502  503 -0.00000000000E+00 -0.00000000000E+00 -0.25540051115E+03  0.25540051115E+03  0.00000000000E+00 0.  1.
         -6    2    1    2    0  503 -0.21067943721E+03 -0.39356475911E+03  0.55514247397E+03  0.73412131542E+03  0.17740319745E+03 0.  0.
        -24    2    3    3    0    0 -0.76189356720E+02 -0.21306046117E+03  0.19440237071E+03  0.30888620936E+03  0.80117603576E+02 0.  0.
          6    2    1    2  501    0  0.21067943721E+03  0.39356475911E+03  0.17761413827E+03  0.50943631913E+03  0.16940937476E+03 0.  0.
         24    2    5    5    0    0  0.77749145274E+02  0.10261618487E+03  0.96280176561E+02  0.17934718163E+03  0.79501749492E+02 0.  0.
          5    1    5    5  501    0  0.13293029194E+03  0.29094857424E+03  0.81333961711E+02  0.33008913750E+03  0.47000000000E+01 0. -1.
        -13    1    6    6    0    0  0.14821746817E+02 -0.96235912674E+01 -0.14988800187E+01  0.17735397625E+02  0.00000000000E+00 0.  1.
         14    1    6    6    0    0  0.62927398456E+02  0.11223977614E+03  0.97779056580E+02  0.16161178401E+03  0.00000000000E+00 0. -1.
         -5    1    3    3    0  503 -0.13449008049E+03 -0.18050429794E+03  0.36074010326E+03  0.42523510606E+03  0.47000000000E+01 0.  1.
         13    1    4    4    0    0 -0.88468732782E+02 -0.17288379540E+03  0.17907738454E+03  0.26416705518E+03  0.00000000000E+00 0. -1.
        -14    1    4    4    0    0  0.12279376063E+02 -0.40176665771E+02  0.15324986175E+02  0.44719154176E+02  0.00000000000E+00 0.  1.
</event>
<event>
12    1  0.9873238E-001  0.3643112E+03  0.7818608E-02  0.1056912E+00
         21   -1    0    0  503  502  0.00000000000E+00  0.00000000000E+00  0.37034484158E+03  0.37034484158E+03  0.00000000000E+00 0. -1.
         21   -1    0    0  501  503 -0.00000000000E+00 -0.00000000000E+00 -0.48944506103E+03  0.48944506103E+03  0.00000000000E+00 0. -1.
          6    2    1    2  501    0 -0.63356560557E+02  0.31479850223E+03  0.16309200219E+03  0.39915115413E+03  0.17207699408E+03 0.  0.
         24    2    3    3    0    0  0.18222319943E+02  0.23895674574E+03  0.11825755145E+03  0.27898750012E+03  0.80104915387E+02 0.  0.
         -6    2    1    2    0  502  0.63356560557E+02 -0.31479850223E+03 -0.28219222164E+03  0.46063874848E+03  0.17159095510E+03 0.  0.
        -24    2    5    5    0    0  0.67613982825E+02 -0.13050474307E+03 -0.76989741118E+02  0.18475387517E+03  0.81261525422E+02 0.  0.
          5    1    3    3  501    0 -0.81578880500E+02  0.75841756489E+02  0.44834450737E+02  0.12016365401E+03  0.47000000000E+01 0. -1.
        -11    1    4    4    0    0 -0.14468824189E+02  0.57017111965E+02 -0.13030635220E+01  0.58838727933E+02  0.00000000000E+00 0.  1.
         12    1    4    4    0    0  0.32691144132E+02  0.18193963378E+03  0.11956061497E+03  0.22014877219E+03  0.00000000000E+00 0. -1.
         -5    1    5    5    0  502 -0.42574222674E+01 -0.18429375916E+03 -0.20520248052E+03  0.27588487331E+03  0.47000000000E+01 0.  1.
         13    1    6    6    0    0 -0.18153162369E+02 -0.17486823189E+02 -0.51533874892E+01  0.25727100339E+02  0.00000000000E+00 0. -1.
        -14    1    6    6    0    0  0.85767145194E+02 -0.11301791988E+03 -0.71836353629E+02  0.15902677483E+03  0.00000000000E+00 0.  1.
</event>
<event>
12    1  0.9873238E-001  0.1814620E+03  0.7818608E-02  0.1166525E+00
         21   -1    0    0  501  502  0.00000000000E+00  0.00000000000E+00  0.32929140881E+02  0.32929140881E+02  0.00000000000E+00 0.  1.
         21   -1    0    0  502  503 -0.00000000000E+00 -0.00000000000E+00 -0.10124889997E+04  0.10124889997E+04  0.00000000000E+00 0.  1.
         -6    2    1    2    0  503 -0.50987273531E+02  0.23966228684E+02 -0.42440297484E+03  0.46135682444E+03  0.17192484469E+03 0.  0.
        -24    2    3    3    0    0 -0.12728435423E+02  0.58179934092E+01 -0.83299514577E+02  0.11760290411E+03  0.81827695866E+02 0.  0.
          6    2    1    2  501    0  0.50987273531E+02 -0.23966228684E+02 -0.55515688402E+03  0.58406131618E+03  0.17249455936E+03 0.  0.
         24    2    5    5    0    0  0.19852024864E+02 -0.61661884221E+02 -0.49733670423E+03  0.50819545201E+03  0.81991031293E+02 0.  0.
          5    1    5    5  501    0  0.31135248666E+02  0.37695655537E+02 -0.57820179784E+02  0.75865864170E+02  0.47000000000E+01 0. -1.
        -11    1    6    6    0    0 -0.24744181099E+02 -0.87412016471E+01 -0.24954201379E+03  0.25091811364E+03  0.00000000000E+00 0.  1.
         12    1    6    6    0    0  0.44596205963E+02 -0.52920682574E+02 -0.24779469044E+03  0.25727733838E+03  0.00000000000E+00 0. -1.
         -5    1    3    3    0  503 -0.38258838108E+02  0.18148235275E+02 -0.34110346027E+03  0.34375392033E+03  0.47000000000E+01 0.  1.
         13    1    4    4    0    0 -0.10701020889E+02  0.12454079938E+02 -0.99044692063E+02  0.10039654865E+03  0.00000000000E+00 0. -1.
        -14    1    4    4    0    0 -0.20274145337E+01 -0.66360865293E+01  0.15745177486E+02  0.17206355459E+02  0.00000000000E+00 0.  1.
</event>
<event>
12    1  0.9873238E-001  0.2099521E+03  0.7818608E-02  0.1141741E+00
         21   -1    0    0  503  502  0.00000000000E+00  0.00000000000E+00  0.35098426660E+03  0.35098426660E+03  0.00000000000E+00 0. -1.
         21   -1    0    0  501  503 -0.00000000000E+00 -0.00000000000E+00 -0.22423953084E+03  0.22423953084E+03  0.00000000000E+00 0.  1.
          6    2    1    2  501    0  0.11867588224E+03  0.20021503898E+02 -0.12785004078E+03  0.24522626824E+03  0.17118838764E+03 0.  0.
         24    2    3    3    0    0  0.14413828940E+03  0.13706829821E+02 -0.13909885212E+03  0.21629816696E+03  0.80452984515E+02 0.  0.
         -6    2    1    2    0  502 -0.11867588224E+03 -0.20021503898E+02  0.25459477653E+03  0.32999752920E+03  0.17203209991E+03 0.  0.
        -24    2    5    5    0    0 -0.14142106690E+03 -0.21270660338E+01  0.14769928099E+03  0.21915398497E+03  0.78796884130E+02 0.  0.
          5    1    3    3  501    0 -0.25462407155E+02  0.63146740776E+01  0.11248811342E+02  0.28928101276E+02  0.47000000000E+01 0. -1.
        -13    1    4    4    0    0  0.10010864391E+01  0.29102917986E+01 -0.44006575961E+02  0.44114064653E+02  0.00000000000E+00 0.  1.
         14    1    4    4    0    0  0.14313720296E+03  0.10796538022E+02 -0.95092276157E+02  0.17218410231E+03  0.00000000000E+00 0. -1.
         -5    1    5    5    0  502  0.22745184661E+02 -0.17894437864E+02  0.10689549554E+03  0.11084354423E+03  0.47000000000E+01 0.  1.
         13    1    6    6    0    0 -0.71374300896E+02 -0.36114846915E+02  0.99173982624E+02  0.12741291860E+03  0.00000000000E+00 0. -1.
        -14    1    6    6    0    0 -0.70046766007E+02  0.33987780881E+02  0.48525298366E+02  0.91741066370E+02  0.00000000000E+00 0.  1.
</event>
<event>
12    1  0.9873238E-001  0.1810167E+03  0.7818608E-02  0.1167279E+00
         21   -1    0    0  503  502  0.00000000000E+00  0.00000000000E+00  0.20624419650E+03  0.20624419650E+03  0.00000000000E+00 0.  1.
         21   -1    0    0  501  503 -0.00000000000E+00 -0.00000000000E+00 -0.16355352445E+03  0.16355352445E+03  0.00000000000E+00 0.  1.
          6    2    1    2  501    0 -0.56301622551E+01  0.50976159615E+02  0.57829991323E+02  0.19002982849E+03  0.17359942467E+03 0.  0.
         24    2    3    3    0    0  0.41789173712E+02  0.63060252375E+02 -0.55763301428E+01  0.10979847351E+03  0.79383114435E+02 0.  0.
         -6    2    1    2    0  502  0.56301622551E+01 -0.50976159615E+02 -0.15139319275E+02  0.17976789246E+03  0.17163050019E+03 0.  0.
        -24    2    5    5    0    0 -0.78276994609E+01 -0.89460678129E+02 -0.43151858778E+02  0.13007921592E+03  0.83630339517E+02 0.  0.
          5    1    3    3  501    0 -0.47419335967E+02 -0.12084092760E+02  0.63406321466E+02  0.80231354988E+02  0.47000000000E+01 0. -1.
        -11    1    4    4    0    0 -0.14052757888E+02  0.36617509389E+02 -0.23172680985E+02  0.45555407387E+02  0.00000000000E+00 0.  1.
         12    1    4    4    0    0  0.55841931601E+02  0.26442742986E+02  0.17596350842E+02  0.64243066120E+02  0.00000000000E+00 0. -1.
         -5    1    5    5    0  502  0.13457861716E+02  0.38484518514E+02  0.28012539503E+02  0.49688676543E+02  0.47000000000E+01 0.  1.
         13    1    6    6    0    0  0.15192196285E+02 -0.16223661690E+02 -0.48267759333E+02  0.53139313296E+02  0.00000000000E+00 0. -1.
        -14    1    6    6    0    0 -0.23019895746E+02 -0.73237016439E+02  0.51159005544E+01  0.76939902622E+02  0.00000000000E+00 0.  1.
</event>
<event>
12    1  0.9873238E-001  0.1774167E+03  0.7818608E-02  0.1170649E+00
         21   -1    0    0  503  502  0.00000000000E+00  0.00000000000E+00  0.27932963366E+03  0.27932963366E+03  0.00000000000E+00 0. -1.
         21   -1    0    0  501  503 -0.00000000000E+00 -0.00000000000E+00 -0.11547735420E+03  0.11547735420E+03  0.00000000000E+00 0. -1.
          6    2    1    2  501    0  0.34526776573E+02 -0.18310968865E+02  0.46708091331E+02  0.18220539872E+03  0.17172586190E+03 0.  0.
         24    2    3    3    0    0 -0.14204732907E+02 -0.33776283461E+02  0.82652795018E+02  0.11953125976E+03  0.78189678176E+02 0.  0.
         -6    2    1    2    0  502 -0.34526776573E+02  0.18310968865E+02  0.11714418812E+03  0.21260158914E+03  0.17305861727E+03 0.  0.
        -24    2    5    5    0    0 -0.44901448858E+02 -0.37713317629E+02  0.11856010127E+03  0.15541374679E+03  0.81599636293E+02 0.  0.
          5    1    3    3  501    0  0.48731509480E+02  0.15465314596E+02 -0.35944703687E+02  0.62674138964E+02  0.47000000000E+01 0. -1.
        -13    1    4    4    0    0  0.19821222724E+02 -0.44849794563E+02  0.58633146377E+02  0.76434486959E+02  0.00000000000E+00 0.  1.
         14    1    4    4    0    0 -0.34025955631E+02  0.11073511102E+02  0.24019648640E+02  0.43096772797E+02  0.00000000000E+00 0. -1.
         -5    1    5    5    0  502  0.10374672285E+02  0.56024286494E+02 -0.14159131460E+01  0.57187842347E+02  0.47000000000E+01 0.  1.
         13    1    6    6    0    0 -0.63509657235E+02 -0.12737443938E+02  0.56401579828E+02  0.85888632817E+02  0.00000000000E+00 0. -1.
        -14    1    6    6    0    0  0.18608208376E+02 -0.24975873691E+02  0.62158521440E+02  0.69525113975E+02  0.00000000000E+00 0.  1.
</event>
<event>
12    1  0.9873238E-001  0.1843903E+03  0.7818608E-02  0.1163711E+00
         21   -1    0    0  501  502  0.00000000000E+00  0.00000000000E+00  0.76493791814E+02  0.76493791814E+02  0.00000000000E+00 0. -1.
         21   -1    0    0  502  503 -0.00000000000E+00 -0.00000000000E+00 -0.44530001499E+03  0.44530001499E+03  0.00000000000E+00 0. -1.
         -6    2    1    2    0  503 -0.56367362585E+02 -0.87225084110E+01 -0.16783633296E+03  0.24905095195E+03  0.17493993337E+03 0.  0.
        -24    2    3    3    0    0 -0.53219680054E+02  0.45014845488E+02 -0.46706006883E+02  0.11641514605E+03  0.80699222377E+02 0.  0.
          6    2    1    2  501    0  0.56367362585E+02  0.87225084110E+01 -0.20096989021E+03  0.27274285486E+03  0.17534653229E+03 0.  0.
         24    2    5    5    0    0  0.82277765637E+02 -0.40041868127E+02 -0.16130273831E+03  0.20458945182E+03  0.86401900948E+02 0.  0.
          5    1    5    5  501    0 -0.25910403052E+02  0.48764376538E+02 -0.39667151900E+02  0.68153403035E+02  0.47000000000E+01 0. -1.
        -13    1    6    6    0    0  0.11995206991E+02  0.26480446394E+02 -0.36331129542E+02  0.46530097848E+02  0.00000000000E+00 0.  1.
         14    1    6    6    0    0  0.70282558647E+02 -0.66522314521E+02 -0.12497160877E+03  0.15805935397E+03  0.00000000000E+00 0. -1.
         -5    1    3    3    0  503 -0.31476825317E+01 -0.53737353899E+02 -0.12113032608E+03  0.13263580589E+03  0.47000000000E+01 0.  1.
         13    1    4    4    0    0 -0.54474556263E+02  0.72505204852E+01 -0.54978839641E+02  0.77734935104E+02  0.00000000000E+00 0. -1.
        -14    1    4    4    0    0  0.12548762096E+01  0.37764325002E+02  0.82728327583E+01  0.38680210949E+02  0.00000000000E+00 0.  1.
</event>
<event>
12    1  0.9873238E-001  0.2315223E+03  0.7818608E-02  0.1125638E+00
         21   -1    0    0  501  502  0.00000000000E+00  0.00000000000E+00  0.16323350608E+04  0.16323350608E+04  0.00000000000E+00 0.  1.
         21   -1    0    0  502  503 -0.00000000000E+00 -0.00000000000E+00 -0.32945907751E+02  0.32945907751E+02  0.00000000000E+00 0.  1.
         -6    2    1    2    0  503  0.11277074912E+03  0.10698121010E+03  0.74095512911E+03  0.77617379556E+03  0.17108195807E+03 0.  0.
        -24    2    3    3    0    0  0.83672792156E+02 -0.53379373914E+00  0.45098557323E+03  0.46551224260E+03  0.79449604538E+02 0.  0.
          6    2    1    2  501    0 -0.11277074912E+03 -0.10698121010E+03  0.85843402397E+03  0.88910717303E+03  0.17158196424E+03 0.  0.
         24    2    5    5    0    0 -0.58076503457E+01 -0.96311156485E+01  0.41791620434E+03  0.42543036231E+03  0.78807056363E+02 0.  0.
          5    1    5    5  501    0 -0.10696309877E+03 -0.97350094447E+02  0.44051781963E+03  0.46367681072E+03  0.47000000000E+01 0. -1.
        -13    1    6    6    0    0  0.15608596767E+02  0.28443426904E+02  0.11919099653E+03  0.12352793401E+03  0.00000000000E+00 0.  1.
         14    1    6    6    0    0 -0.21416247113E+02 -0.38074542552E+02  0.29872520781E+03  0.30190242830E+03  0.00000000000E+00 0. -1.
         -5    1    3    3    0  503  0.29097956964E+02  0.10751500383E+03  0.28996955588E+03  0.31066155296E+03  0.47000000000E+01 0.  1.
         11    1    4    4    0    0  0.66358416809E+02  0.10239861501E+02  0.15617025954E+03  0.16999248280E+03  0.00000000000E+00 0. -1.
        -12    1    4    4    0    0  0.17314375347E+02 -0.10773655240E+02  0.29481531369E+03  0.29551975979E+03  0.00000000000E+00 0.  1.
</event>
<event>
12    1  0.9873238E-001  0.2771878E+03  0.7818608E-02  0.1098372E+00
         21   -1    0    0  501  502  0.00000000000E+00  0.00000000000E+00  0.27311475232E+03  0.27311475232E+03  0.00000000000E+00 0.  1.
         21   -1    0    0  502  503 -0.00000000000E+00 -0.00000000000E+00 -0.38543577821E+03  0.38543577821E+03  0.00000000000E+00 0. -1.
         -6    2    1    2    0  503  0.14474907685E+02 -0.20735761604E+03  0.12094272618E+03  0.30242390584E+03  0.18337494901E+03 0.  0.
        -24    2    3    3    0    0  0.21171038114E+02 -0.16167769267E+03  0.10308501669E+02  0.18245092890E+03  0.81204600162E+02 0.  0.
          6    2    1    2  501    0 -0.14474907685E+02  0.20735761604E+03 -0.23326375208E+03  0.35612662469E+03  0.17090199209E+03 0.  0.
         24    2    5    5    0    0 -0.48957775466E+02  0.12587513235E+03 -0.21592671454E+03  0.26584303710E+03  0.76202110198E+02 0.  0.
          5    1    5    5  501    0  0.34482867781E+02  0.81482483687E+02 -0.17337037536E+02  0.90283587594E+02  0.47000000000E+01 0. -1.
        -11    1    6    6    0    0 -0.63036010690E+02  0.65597435034E+02 -0.10600804837E+03  0.13969348033E+03  0.00000000000E+00 0.  1.
         12    1    6    6    0    0  0.14078235224E+02  0.60277697315E+02 -0.10991866617E+03  0.12614955677E+03  0.00000000000E+00 0. -1.
         -5    1    3    3    0  503 -0.66961304293E+01 -0.45679923362E+02  0.11063422451E+03  0.11997297693E+03  0.47000000000E+01 0.  1.
         11    1    4    4    0    0 -0.51241861981E+00 -0.15880049232E+03  0.16662830021E+02  0.15967313123E+03  0.00000000000E+00 0. -1.
        -12    1    4    4    0    0  0.21683456734E+02 -0.28772003543E+01 -0.63543283521E+01  0.22777797668E+02  0.00000000000E+00 0.  1.
</event>
<event>
12    1  0.9873238E-001  0.1846312E+03  0.7818608E-02  0.1163759E+00
         21   -1    0    0  501  502  0.00000000000E+00  0.00000000000E+00  0.55372504073E+02  0.55372504073E+02  0.00000000000E+00 0. -1.
         21   -1    0    0  502  503 -0.00000000000E+00 -0.00000000000E+00 -0.83158564288E+03  0.83158564288E+03  0.00000000000E+00 0. -1.
         -6    2    1    2    0  503  0.57283841794E+02  0.31080509130E+02 -0.61558509989E+03  0.64223372105E+03  0.17108974452E+03 0.  0.
        -24    2    3    3    0    0  0.66160853921E+02  0.55114913914E+02 -0.60091572853E+03  0.61233832988E+03  0.80272069338E+02 0.  0.
          6    2    1    2  501    0 -0.57283841794E+02 -0.31080509130E+02 -0.16062803892E+03  0.24472442590E+03  0.17274617554E+03 0.  0.
         24    2    5    5    0    0 -0.40776411946E+02 -0.84355077242E+02 -0.81237221289E+02  0.14758706557E+03  0.80024752247E+02 0.  0.
          5    1    5    5  501    0 -0.16507429848E+02  0.53274568112E+02 -0.79390817634E+02  0.97137360332E+02  0.47000000000E+01 0. -1.
        -13    1    6    6    0    0 -0.53820910304E+02 -0.40302124382E+02 -0.75797748193E+02  0.10132250612E+03  0.00000000000E+00 0.  1.
         14    1    6    6    0    0  0.13044498358E+02 -0.44052952860E+02 -0.54394730961E+01  0.46264559445E+02  0.00000000000E+00 0. -1.
         -5    1    3    3    0  503 -0.88770121265E+01 -0.24034404784E+02 -0.14669371353E+02  0.29895391175E+02  0.47000000000E+01 0.  1.
         11    1    4    4    0    0 -0.61495223154E+01  0.26746953486E+01 -0.25460857959E+03  0.25469687752E+03  0.00000000000E+00 0. -1.
        -12    1    4    4    0    0  0.72310376236E+02  0.52440218565E+02 -0.34630714894E+03  0.35764145236E+03  0.00000000000E+00 0.  1.
</event>
<event>
12    1  0.9873238E-001  0.2027683E+03  0.7818608E-02  0.1147452E+00
         21   -1    0    0  503  502  0.00000000000E+00  0.00000000000E+00  0.17798841187E+03  0.17798841187E+03  0.00000000000E+00 0.  1.
         21   -1    0    0  501  503 -0.00000000000E+00 -0.00000000000E+00 -0.28887849095E+03  0.28887849095E+03  0.00000000000E+00 0.  1.
          6    2    1    2  501    0 -0.83643778452E+02  0.67722018052E+02  0.49198478416E+02  0.20851959073E+03  0.17168976684E+03 0.  0.
         24    2    3    3    0    0 -0.10775819742E+03  0.18498989958E+02  0.27870519057E+01  0.13654374612E+03  0.81745857434E+02 0.  0.
         -6    2    1    2    0  502  0.83643778452E+02 -0.67722018052E+02 -0.16008855749E+03  0.25834731209E+03  0.17185003352E+03 0.  0.
        -24    2    5    5    0    0  0.49916511333E+02 -0.14046614795E+02 -0.10803144478E+02  0.96091951618E+02  0.80174745053E+02 0.  0.
          5    1    3    3  501    0  0.24114418963E+02  0.49223028094E+02  0.46411426511E+02  0.71975844611E+02  0.47000000000E+01 0. -1.
        -13    1    4    4    0    0 -0.61038596468E+02 -0.45918926223E+01  0.39452328184E+02  0.72823635832E+02  0.00000000000E+00 0.  1.
         14    1    4    4    0    0 -0.46719600947E+02  0.23090882580E+02 -0.36665276279E+02  0.63720110292E+02  0.00000000000E+00 0. -1.
         -5    1    5    5    0  502  0.33727267119E+02 -0.53675403257E+02 -0.14928541301E+03  0.16225536047E+03  0.47000000000E+01 0.  1.
         13    1    6    6    0    0  0.46512728979E+02  0.20319644358E+02  0.15062234193E+02  0.52945186776E+02  0.00000000000E+00 0. -1.
        -14    1    6    6    0    0  0.34037823538E+01 -0.34366259153E+02 -0.25865378671E+02  0.43146764842E+02  0.00000000000E+00 0.  1.
</event>
<event>
12    1  0.9873238E-001  0.2465029E+03  0.7818608E-02  0.1115690E+00
         21   -1    0    0  503  502  0.00000000000E+00  0.00000000000E+00  0.26679390833E+03  0.26679390833E+03  0.00000000000E+00 0.  1.
         21   -1    0    0  501  503 -0.00000000000E+00 -0.00000000000E+00 -0.28235017171E+03  0.28235017171E+03  0.00000000000E+00 0.  1.
          6    2    1    2  501    0 -0.17217738664E+03 -0.38294495588E+02  0.11394497316E+03  0.27069436418E+03  0.17082289375E+03 0.  0.
         24    2    3    3    0    0 -0.35470401729E+02  0.17069389848E+02  0.72708858173E+01  0.88608092200E+02  0.79050710017E+02 0.  0.
         -6    2    1    2    0  502  0.17217738664E+03  0.38294495588E+02 -0.12950123654E+03  0.27844971586E+03  0.17219800560E+03 0.  0.
        -24    2    5    5    0    0  0.38766990151E+02  0.27519631986E+02 -0.10810333981E+03  0.14282379075E+03  0.80324924244E+02 0.  0.
          5    1    3    3  501    0 -0.13670698491E+03 -0.55363885436E+02  0.10667408734E+03  0.18208627198E+03  0.47000000000E+01 0. -1.
        -11    1    4    4    0    0  0.21237500281E+02 -0.11861288633E+02  0.54092728530E+01  0.24919506797E+02  0.00000000000E+00 0.  1.
         12    1    4    4    0    0 -0.56707902010E+02  0.28930678482E+02  0.18616129643E+01  0.63688585403E+02  0.00000000000E+00 0. -1.
         -5    1    5    5    0  502  0.13341039649E+03  0.10774863602E+02 -0.21397896727E+02  0.13562592511E+03  0.47000000000E+01 0.  1.
         13    1    6    6    0    0  0.17197283948E+02 -0.16792512945E+02 -0.85113395011E+02  0.88442213205E+02  0.00000000000E+00 0. -1.
        -14    1    6    6    0    0  0.21569706203E+02  0.44312144932E+02 -0.22989944803E+02  0.54381577544E+02  0.00000000000E+00 0.  1.
</event>
<event>
12    1  0.9873238E-001  0.2063154E+03  0.7818608E-02  0.1145168E+00
         21   -1    0    0  503  502  0.00000000000E+00  0.00000000000E+00  0.27297536951E+03  0.27297536951E+03  0.00000000000E+00 0.  1.
         21   -1    0    0  501  503 -0.00000000000E+00 -0.00000000000E+00 -0.17325207449E+03  0.17325207449E+03  0.00000000000E+00 0.  1.
          6    2    1    2  501    0 -0.10643560151E+03  0.46718156553E+01  0.12477864759E+03  0.23839624269E+03  0.17295286787E+03 0.  0.
         24    2    3    3    0    0 -0.60028911454E+02  0.69610068713E+02  0.53879038623E+02  0.13153463994E+03  0.77132216510E+02 0.  0.
         -6    2    1    2    0  502  0.10643560151E+03 -0.46718156553E+01 -0.25055352565E+02  0.20783120131E+03  0.17667958121E+03 0.  0.
        -24    2    5    5    0    0  0.75673675806E+02 -0.52980390566E+02  0.31790125143E+02  0.12700105335E+03  0.81149420835E+02 0.  0.
          5    1    3    3  501    0 -0.46406690053E+02 -0.64938253057E+02  0.70899608965E+02  0.10686160275E+03  0.47000000000E+01 0. -1.
        -13    1    4    4    0    0 -0.28121366795E+02  0.56279661796E+02  0.69363686871E+02  0.93645782919E+02  0.00000000000E+00 0.  1.
         14    1    4    4    0    0 -0.31907544659E+02  0.13330406916E+02 -0.15484648247E+02  0.37888857017E+02  0.00000000000E+00 0. -1.
         -5    1    5    5    0  502  0.30761925701E+02  0.48308574911E+02 -0.56845477708E+02  0.80830147956E+02  0.47000000000E+01 0.  1.
         13    1    6    6    0    0  0.72729400054E+02 -0.29488305923E+01  0.17033057991E+02  0.74755510156E+02  0.00000000000E+00 0. -1.
        -14    1    6    6    0    0  0.29442757513E+01 -0.50031559974E+02  0.14757067152E+02  0.52245543198E+02  0.00000000000E+00 0.  1.
</event>
<event>
12    1  0.9873238E-001  0.2095679E+03  0.7818608E-02  0.1142567E+00
         21   -1    0    0  501  502  0.00000000000E+00  0.00000000000E+00  0.17914239695E+03  0.17914239695E+03  0.00000000000E+00 0. -1.
         21   -1    0    0  502  503 -0.00000000000E+00 -0.00000000000E+00 -0.26573998978E+03  0.26573998978E+03  0.00000000000E+00 0. -1.
         -6    2    1    2    0  503 -0.11695432326E+03  0.72085862918E+01  0.23810390279E+02  0.21091616382E+03  0.17374813964E+03 0.  0.
        -24    2    3    3    0    0 -0.56188488701E+02 -0.35545240467E+02 -0.41887426254E+02  0.11162533116E+03  0.79278292721E+02 0.  0.
          6    2    1    2  501    0  0.11695432326E+03 -0.72085862918E+01 -0.11040798311E+03  0.23396622291E+03  0.16976452304E+03 0.  0.
         24    2    5    5    0    0  0.14554962368E+03 -0.10788661793E+01 -0.11693673099E+03  0.20363506362E+03  0.81284581427E+02 0.  0.
          5    1    5    5  501    0 -0.28595300418E+02 -0.61297201124E+01  0.65287478799E+01  0.30331159284E+02  0.47000000000E+01 0. -1.
        -11    1    6    6    0    0  0.74986357882E+02 -0.23131709641E+02 -0.10118158794E+03  0.12804586521E+03  0.00000000000E+00 0.  1.
         12    1    6    6    0    0  0.70563265794E+02  0.22052843461E+02 -0.15755143049E+02  0.75589198413E+02  0.00000000000E+00 0. -1.
         -5    1    3    3    0  503 -0.60765834557E+02  0.42753826759E+02  0.65697816533E+02  0.99290832654E+02  0.47000000000E+01 0.  1.
         11    1    4    4    0    0  0.14894097538E+02 -0.26088223134E+02 -0.21922337783E+02  0.37188955641E+02  0.00000000000E+00 0. -1.
        -12    1    4    4    0    0 -0.71082586239E+02 -0.94570173334E+01 -0.19965088471E+02  0.74436375522E+02  0.00000000000E+00 0.  1.
</event>
<event>
12    1  0.9873238E-001  0.1716663E+03  0.7818608E-02  0.1176220E+00
         21   -1    0    0  503  502  0.00000000000E+00  0.00000000000E+00  0.46126917568E+02  0.46126917568E+02  0.00000000000E+00 0. -1.
         21   -1    0    0  501  503 -0.00000000000E+00 -0.00000000000E+00 -0.76976882101E+03  0.76976882101E+03  0.00000000000E+00 0. -1.
          6    2    1    2  501    0 -0.52031439604E+01  0.95555405816E+00 -0.53062077169E+03  0.55758103433E+03  0.17120228009E+03 0.  0.
         24    2    3    3    0    0  0.60285691489E+02  0.15455777753E+02 -0.39756477609E+03  0.40850041178E+03  0.70296440674E+02 0.  0.
         -6    2    1    2    0  502  0.52031439604E+01 -0.95555405816E+00 -0.19302113175E+03  0.25831470424E+03  0.17158479926E+03 0.  0.
        -24    2    5    5    0    0  0.34148217757E+02 -0.39515676072E+02 -0.18670855891E+03  0.20946146604E+03  0.79287012528E+02 0.  0.
          5    1    3    3  501    0 -0.65488835449E+02 -0.14500223694E+02 -0.13305599559E+03  0.14908062255E+03  0.47000000000E+01 0. -1.
        -13    1    4    4    0    0  0.14923602394E+02  0.34212638119E+02 -0.25509695008E+03  0.25781325112E+03  0.00000000000E+00 0.  1.
         14    1    4    4    0    0  0.45362089095E+02 -0.18756860366E+02 -0.14246782602E+03  0.15068716066E+03  0.00000000000E+00 0. -1.
         -5    1    5    5    0  502 -0.28945073797E+02  0.38560122014E+02 -0.63125728390E+01  0.48853238200E+02  0.47000000000E+01 0.  1.
         11    1    6    6    0    0 -0.96815636702E+01  0.10568378216E+02 -0.95405210418E+02  0.96475786953E+02  0.00000000000E+00 0. -1.
        -12    1    6    6    0    0  0.43829781427E+02 -0.50084054288E+02 -0.91303348492E+02  0.11298567909E+03  0.00000000000E+00 0.  1.
</event>
<event>
12    1  0.9873238E-001  0.3561223E+03  0.7818608E-02  0.1060157E+00
         21   -1    0    0  501  502  0.00000000000E+00  0.00000000000E+00  0.24184854117E+03  0.24184854117E+03  0.00000000000E+00 0.  1.
         21   -1    0    0  502  503 -0.00000000000E+00 -0.00000000000E+00 -0.52437531432E+03  0.52437531432E+03  0.00000000000E+00 0.  1.
         -6    2    1    2    0  503 -0.25468608080E+03 -0.17982199325E+03 -0.15172897012E+03  0.38709791269E+03  0.17211090793E+03 0.  0.
        -24    2    3    3    0    0 -0.11744016228E+03 -0.30062436629E+02 -0.10439061980E+03  0.17846575707E+03  0.79099198054E+02 0.  0.
          6    2    1    2  501    0  0.25468608080E+03  0.17982199325E+03 -0.13079780303E+03  0.37912594279E+03  0.17154435640E+03 0.  0.
         24    2    5    5    0    0  0.10325968403E+03  0.14629777865E+03 -0.10732975699E+03  0.22219708697E+03  0.76067511736E+02 0.  0.
          5    1    5    5  501    0  0.15142639677E+03  0.33524214598E+02 -0.23468046045E+02  0.15692885582E+03  0.47000000000E+01 0. -1.
        -11    1    6    6    0    0 -0.59447833754E+01  0.12234302600E+02  0.66068241936E+01  0.15121796699E+02  0.00000000000E+00 0.  1.
         12    1    6    6    0    0  0.10920446740E+03  0.13406347605E+03 -0.11393658118E+03  0.20707529027E+03  0.00000000000E+00 0. -1.
         -5    1    3    3    0  503 -0.13724591852E+03 -0.14975955662E+03 -0.47338350329E+02  0.20863215563E+03  0.47000000000E+01 0.  1.
         11    1    4    4    0    0 -0.10842074796E+03 -0.28604359534E+02 -0.11754463248E+03  0.16245001877E+03  0.00000000000E+00 0. -1.
        -12    1    4    4    0    0 -0.90194143194E+01 -0.14580770955E+01  0.13154012688E+02  0.16015738300E+02  0.00000000000E+00 0.  1.
</event>
<event>
12    1  0.9873238E-001  0.2127662E+03  0.7818608E-02  0.1139478E+00
         21   -1    0    0  503  502  0.00000000000E+00  0.00000000000E+00  0.87610506525E+02  0.87610506525E+02  0.00000000000E+00 0.  1.
         21   -1    0    0  501  503 -0.00000000000E+00 -0.00000000000E+00 -0.58548403569E+03  0.58548403569E+03  0.00000000000E+00 0.  1.
          6    2    1    2  501    0 -0.94110062817E+02  0.83285316800E+02 -0.13294304086E+03  0.25088503706E+03  0.17168663835E+03 0.  0.
         24    2    3    3    0    0 -0.11697542434E+03  0.32141250108E+02 -0.56338529567E+02  0.15586461049E+03  0.80021478557E+02 0.  0.
         -6    2    1    2    0  502  0.94110062817E+02 -0.83285316800E+02 -0.36493048831E+03  0.42220950516E+03  0.17115331440E+03 0.  0.
        -24    2    5    5    0    0  0.21100095740E+02  0.13816329962E+01 -0.24332142499E+03  0.25695272932E+03  0.79826476145E+02 0.  0.
          5    1    3    3  501    0  0.22865361524E+02  0.51144066693E+02 -0.76604511294E+02  0.95020426573E+02  0.47000000000E+01 0. -1.
        -11    1    4    4    0    0 -0.97897817857E+02  0.24469162133E+02 -0.76834670652E+02  0.12683173598E+03  0.00000000000E+00 0.  1.
         12    1    4    4    0    0 -0.19077606485E+02  0.76720879743E+01  0.20496141084E+02  0.29032874512E+02  0.00000000000E+00 0. -1.
         -5    1    5    5    0  502  0.73009967077E+02 -0.84666949797E+02 -0.12160906332E+03  0.16525677584E+03  0.47000000000E+01 0.  1.
         11    1    6    6    0    0  0.45189222570E+02 -0.20597265741E+02 -0.15754460186E+03  0.16518660590E+03  0.00000000000E+00 0. -1.
        -12    1    6    6    0    0 -0.24089126830E+02  0.21978898737E+02 -0.85776823128E+02  0.91766123417E+02  0.00000000000E+00 0.  1.
</event>
<event>
12    1  0.9873238E-001  0.2029856E+03  0.7818608E-02  0.1147746E+00
         21   -1    0    0  501  502  0.00000000000E+00  0.00000000000E+00  0.70453484430E+02  0.70453484430E+02  0.00000000000E+00 0.  1.
         21   -1    0    0  502  503 -0.00000000000E+00 -0.00000000000E+00 -0.58177090900E+03  0.58177090900E+03  0.00000000000E+00 0.  1.
         -6    2    1    2    0  503  0.91232639201E+02 -0.53517272268E+02 -0.23058300954E+03  0.30719974518E+03  0.17325029945E+03 0.  0.
        -24    2    3    3    0    0  0.37344516508E+02 -0.70917979087E+01 -0.28773333153E+02  0.93170565107E+02  0.80049628299E+02 0.  0.
          6    2    1    2  501    0 -0.91232639201E+02  0.53517272268E+02 -0.28073441503E+03  0.34502464825E+03  0.17041919855E+03 0.  0.
         24    2    5    5    0    0  0.82036651067E+01  0.61380837013E+02 -0.13815880323E+03  0.17095768027E+03  0.79396260985E+02 0.  0.
          5    1    5    5  501    0 -0.99436304307E+02 -0.78635647444E+01 -0.14257561180E+03  0.17406696799E+03  0.47000000000E+01 0. -1.
        -13    1    6    6    0    0 -0.85802472204E+01  0.73933713918E+02 -0.80637887808E+02  0.10973733934E+03  0.00000000000E+00 0.  1.
         14    1    6    6    0    0  0.16783912327E+02 -0.12552876906E+02 -0.57520915424E+02  0.61220340924E+02  0.00000000000E+00 0. -1.
         -5    1    3    3    0  503  0.53888122693E+02 -0.46425474359E+02 -0.20180967639E+03  0.21402918007E+03  0.47000000000E+01 0.  1.
         13    1    4    4    0    0  0.24535418552E+02 -0.42863617468E+02 -0.85360867394E+01  0.50121265375E+02  0.00000000000E+00 0. -1.
        -14    1    4    4    0    0  0.12809097955E+02  0.35771819559E+02 -0.20237246414E+02  0.43049299732E+02  0.00000000000E+00 0.  1.
</event>
<event>
12    1  0.9873238E-001  0.2134965E+03  0.7818608E-02  0.1139693E+00
         21   -1    0    0  501  502  0.00000000000E+00  0.00000000000E+00  0.13787234083E+04  0.13787234083E+04  0.00000000000E+00 0.  1.
         21   -1    0    0  502  503 -0.00000000000E+00 -0.00000000000E+00 -0.42590437332E+02  0.42590437332E+02  0.00000000000E+00 0.  1.
         -6    2    1    2    0  503  0.21058904381E+02  0.12415497408E+03  0.32541860519E+03  0.38920175247E+03  0.17240301761E+03 0.  0.
        -24    2    3    3    0    0  0.33730867609E+02  0.63246960953E+02  0.74526876612E+02  0.13066913522E+03  0.79888785578E+02 0.  0.
          6    2    1    2  501    0 -0.21058904381E+02 -0.12415497408E+03  0.10107143658E+04  0.10321120931E+04  0.16689490291E+03 0.  0.
         24    2    5    5    0    0 -0.35950519099E+02 -0.88587880880E+02  0.37653705667E+03  0.39674627122E+03  0.80543132649E+02 0.  0.
          5    1    5    5  501    0  0.14891614718E+02 -0.35567093201E+02  0.63417730908E+03  0.63536582192E+03  0.47000000000E+01 0. -1.
        -11    1    6    6    0    0 -0.41528746128E+02 -0.10148489829E+03  0.34916426588E+03  0.36597746638E+03  0.00000000000E+00 0.  1.
         12    1    6    6    0    0  0.55782270295E+01  0.12897017414E+02  0.27372790793E+02  0.30768804831E+02  0.00000000000E+00 0. -1.
         -5    1    3    3    0  503 -0.12671963228E+02  0.60908013128E+02  0.25089172858E+03  0.25853261726E+03  0.47000000000E+01 0.  1.
         13    1    4    4    0    0  0.26911406397E+02  0.74943324060E+02  0.82740400235E+02  0.11483335511E+03  0.00000000000E+00 0. -1.
        -14    1    4    4    0    0  0.68194612118E+01 -0.11696363108E+02 -0.82135236227E+01  0.15835780103E+02  0.00000000000E+00 0.  1.
</event>
<event>
12    1  0.9873238E-001  0.2263606E+03  0.7818608E-02  0.1129345E+00
         21   -1    0    0  503  502  0.00000000000E+00  0.00000000000E+00  0.10973730369E+04  0.10973730369E+04  0.00000000000E+00 0. -1.
         21   -1    0    0  501  503 -0.00000000000E+00 -0.00000000000E+00 -0.48293303061E+02  0.48293303061E+02  0.00000000000E+00 0. -1.
          6    2    1    2  501    0  0.14737769110E+03  0.16665611036E+02  0.63237187397E+03  0.67144640515E+03  0.17014159270E+03 0.  0.
         24    2    3    3    0    0  0.14527181218E+03  0.37099278645E+02  0.35765401229E+03  0.39592151875E+03  0.79732055106E+02 0.  0.
         -6    2    1    2    0  502 -0.14737769110E+03 -0.16665611036E+02  0.41670785987E+03  0.47421993481E+03  0.17100052536E+03 0.  0.
        -24    2    5    5    0    0 -0.14574434740E+03  0.80871018191E+00  0.42463211550E+03  0.45439814021E+03  0.70165287006E+02 0.  0.
          5    1    3    3  501    0  0.21058789268E+01 -0.20433667609E+02  0.27471786168E+03  0.27552488639E+03  0.47000000000E+01 0. -1.
        -11    1    4    4    0    0  0.82070540439E+02  0.11787684035E+02  0.10247563454E+03  0.13181721730E+03  0.00000000000E+00 0.  1.
         12    1    4    4    0    0  0.63201271739E+02  0.25311594610E+02  0.25517837775E+03  0.26410430145E+03  0.00000000000E+00 0. -1.
         -5    1    5    5    0  502 -0.16333437055E+01 -0.17474321218E+02 -0.79242556386E+01  0.19821794599E+02  0.47000000000E+01 0.  1.
         13    1    6    6    0    0 -0.12248998440E+02 -0.11616023302E+02  0.12504050009E+03  0.12617486526E+03  0.00000000000E+00 0. -1.
        -14    1    6    6    0    0 -0.13349534896E+03  0.12424733484E+02  0.29959161542E+03  0.32822327496E+03  0.00000000000E+00 0.  1.
</event>
<event>
12    1  0.9873238E-001  0.1742192E+03  0.7818608E-02  0.1173742E+00
         21   -1    0    0  503  502  0.00000000000E+00  0.00000000000E+00  0.17193883599E+04  0.17193883599E+04  0.00000000000E+00 0. -1.
         21   -1    0    0  501  503 -0.00000000000E+00 -0.00000000000E+00 -0.76674885317E+02  0.76674885317E+02  0.00000000000E+00 0. -1.
          6    2    1    2  501    0  0.71559968321E+01  0.75027126518E+01  0.33337566556E+02  0.17738016072E+03  0.17391040534E+03 0.  0.
         24    2    3    3    0    0 -0.29733078376E+02  0.50847743719E+02 -0.18733694474E+02  0.10009431588E+03  0.78729738798E+02 0.  0.
         -6    2    1    2    0  502 -0.71559968321E+01 -0.75027126518E+01  0.16093759080E+04  0.16186830845E+04  0.17302200932E+03 0.  0.
        -24    2    5    5    0    0 -0.83818059254E+01  0.89965381835E+01  0.33569578244E+03  0.34488683697E+03  0.78128609357E+02 0.  0.
          5    1    3    3  501    0  0.36889075208E+02 -0.43345031067E+02  0.52071261030E+02  0.77285844843E+02  0.47000000000E+01 0. -1.
        -11    1    4    4    0    0 -0.50408007976E+02  0.14588151246E+02 -0.24578551190E+02  0.57947274340E+02  0.00000000000E+00 0.  1.
         12    1    4    4    0    0  0.20674929600E+02  0.36259592473E+02  0.58448567164E+01  0.42147041537E+02  0.00000000000E+00 0. -1.
         -5    1    5    5    0  502  0.12258090933E+01 -0.16499250835E+02  0.12736801256E+04  0.12737962475E+04  0.47000000000E+01 0.  1.
         11    1    6    6    0    0 -0.14586949708E+01 -0.19591157656E+02  0.28921161722E+03  0.28987807917E+03  0.00000000000E+00 0. -1.
        -12    1    6    6    0    0 -0.69231109547E+01  0.28587695839E+02  0.46484165217E+02  0.55008757799E+02  0.00000000000E+00 0.  1.
</event>
<event>
12    1  0.9873238E-001  0.2949921E+03  0.7818608E-02  0.1087926E+00
         21   -1    0    0  503  502  0.00000000000E+00  0.00000000000E+00  0.16132251440E+04  0.16132251440E+04  0.00000000000E+00 0.  1.
         21   -1    0    0  501  503 -0.00000000000E+00 -0.00000000000E+00 -0.64349584566E+02  0.64349584566E+02  0.00000000000E+00 0.  1.
          6    2    1    2  501    0 -0.16660759739E+03  0.17216112174E+03  0.43222158066E+03  0.52261307394E+03  0.17003348763E+03 0.  0.
         24    2    3    3    0    0 -0.20631606921E+02  0.88496755437E+02  0.13160573915E+03  0.17808340882E+03  0.78334481496E+02 0.  0.
         -6    2    1    2    0  502  0.16660759739E+03 -0.17216112174E+03  0.11166539787E+04  0.11549616546E+04  0.17211267242E+03 0.  0.
        -24    2    5    5    0    0  0.49437794716E+02 -0.54566086339E+02  0.24973058288E+03  0.27227506282E+03  0.79666758970E+02 0.  0.
          5    1    3    3  501    0 -0.14597599047E+03  0.83664366298E+02  0.30061584151E+03  0.34452966512E+03  0.47000000000E+01 0. -1.
        -13    1    4    4    0    0 -0.28985742754E+02  0.90404359059E+02  0.13792172447E+03  0.16743811842E+03  0.00000000000E+00 0.  1.
         14    1    4    4    0    0  0.83541358335E+01 -0.19076036214E+01 -0.63159853170E+01  0.10645290396E+02  0.00000000000E+00 0. -1.
         -5    1    5    5    0  502  0.11716980267E+03 -0.11759503540E+03  0.86692339586E+03  0.88268659178E+03  0.47000000000E+01 0.  1.
         11    1    6    6    0    0  0.28237043705E+01 -0.29349804700E+02  0.19061172742E+03  0.19287875718E+03  0.00000000000E+00 0. -1.
        -12    1    6    6    0    0  0.46614090346E+02 -0.25216281639E+02  0.59118855462E+02  0.79396305642E+02  0.00000000000E+00 0.  1.
</event>
<event>
12    1  0.9873238E-001  0.1758784E+03  0.7818608E-02  0.1171893E+00
         21   -1    0    0  503  502  0.00000000000E+00  0.00000000000E+00  0.24918999513E+03  0.24918999513E+03  0.00000000000E+00 0. -1.
         21   -1    0    0  501  503 -0.00000000000E+00 -0.00000000000E+00 -0.12530501766E+03  0.12530501766E+03  0.00000000000E+00 0. -1.
          6    2    1    2  501    0  0.34016048788E+02 -0.13410709360E+02  0.80932389157E+02  0.19360597946E+03  0.17203570840E+03 0.  0.
         24    2    3    3    0    0  0.32547880672E+02  0.44794788074E+02  0.92774384983E+02  0.13400431577E+03  0.79272520846E+02 0.  0.
         -6    2    1    2    0  502 -0.34016048788E+02  0.13410709360E+02  0.42952588303E+02  0.18088903333E+03  0.17186907470E+03 0.  0.
        -24    2    5    5    0    0 -0.39245258038E+02  0.43331083988E+02 -0.27076423219E+02  0.10441207012E+03  0.82164314484E+02 0.  0.
          5    1    3    3  501    0  0.14681681168E+01 -0.58205497434E+02 -0.11841995826E+02  0.59601663687E+02  0.47000000000E+01 0. -1.
        -13    1    4    4    0    0  0.17793377084E+02  0.60608050715E+02  0.34779480040E+02  0.72107921281E+02  0.00000000000E+00 0.  1.
         14    1    4    4    0    0  0.14754503588E+02 -0.15813262641E+02  0.57994904943E+02  0.61896394490E+02  0.00000000000E+00 0. -1.
         -5    1    5    5    0  502  0.52292092497E+01 -0.29920374628E+02  0.70029011522E+02  0.76476963211E+02  0.47000000000E+01 0.  1.
         13    1    6    6    0    0 -0.25104286437E+02  0.57863734195E+02  0.83178132376E+01  0.63620931694E+02  0.00000000000E+00 0. -1.
        -14    1    6    6    0    0 -0.14140971601E+02 -0.14532650207E+02 -0.35394236457E+02  0.40791138428E+02  0.00000000000E+00 0.  1.
</event>
<event>
12    1  0.9873238E-001  0.1768246E+03  0.7818608E-02  0.1170932E+00
         21   -1    0    0  503  502  0.00000000000E+00  0.00000000000E+00  0.21218718484E+04  0.21218718484E+04  0.00000000000E+00 0. -1.
         21   -1    0    0  501  503 -0.00000000000E+00 -0.00000000000E+00 -0.15036634730E+02  0.15036634730E+02  0.00000000000E+00 0. -1.
          6    2    1    2  501    0 -0.29602925683E+02  0.28888234318E+02  0.12060803813E+04  0.12189617455E+04  0.17183418655E+03 0.  0.
         24    2    3    3    0    0  0.40180682657E+02 -0.13814795011E+02  0.74816787759E+03  0.75377441580E+03  0.81334869737E+02 0.  0.
         -6    2    1    2    0  502  0.29602925683E+02 -0.28888234318E+02  0.90075483237E+03  0.91794673758E+03  0.17191882301E+03 0.  0.
        -24    2    5    5    0    0 -0.46200602779E+02 -0.41936553152E+02  0.46424370155E+03  0.47468553819E+03  0.76882869054E+02 0.  0.
          5    1    3    3  501    0 -0.69783608339E+02  0.42703029328E+02  0.45791250367E+03  0.46518732971E+03  0.47000000000E+01 0. -1.
        -13    1    4    4    0    0  0.32585363714E+02 -0.40903045519E+02  0.28536837523E+03  0.29012062085E+03  0.00000000000E+00 0.  1.
         14    1    4    4    0    0  0.75953189423E+01  0.27088250508E+02  0.46279950236E+03  0.46365379495E+03  0.00000000000E+00 0. -1.
         -5    1    5    5    0  502  0.75803528461E+02  0.13048318834E+02  0.43651113082E+03  0.44326119939E+03  0.47000000000E+01 0.  1.
         13    1    6    6    0    0  0.98193761643E+00  0.20497320379E+02  0.11045495494E+03  0.11234501064E+03  0.00000000000E+00 0. -1.
        -14    1    6    6    0    0 -0.47182540395E+02 -0.62433873531E+02  0.35378874661E+03  0.36234052756E+03  0.00000000000E+00 0.  1.
</event>
<event>
12    1  0.9873238E-001  0.2048454E+03  0.7818608E-02  0.1145752E+00
         21   -1    0    0  501  502  0.00000000000E+00  0.00000000000E+00  0.77775362912E+03  0.77775362912E+03  0.00000000000E+00 0. -1.
         21   -1    0    0  502  503 -0.00000000000E+00 -0.00000000000E+00 -0.55254542827E+02  0.55254542827E+02  0.00000000000E+00 0. -1.
         -6    2    1    2    0  503 -0.21825664927E+02  0.10925612671E+03  0.29627943652E+03  0.36019875698E+03  0.17189641984E+03 0.  0.
        -24    2    3    3    0    0 -0.21992935870E+02  0.64891436857E+02  0.63086635049E+02  0.12277671432E+03  0.79997564036E+02 0.  0.
          6    2    1    2  501    0  0.21825664927E+02 -0.10925612671E+03  0.42621964978E+03  0.47280941497E+03  0.17167496076E+03 0.  0.
         24    2    5    5    0    0  0.67030925549E+02 -0.99508236588E+02  0.23275088223E+03  0.27383506746E+03  0.80110154558E+02 0.  0.
          5    1    5    5  501    0 -0.45205260622E+02 -0.97478901173E+01  0.19346876755E+03  0.19897434751E+03  0.47000000000E+01 0. -1.
        -13    1    6    6    0    0  0.23564536326E+02 -0.50046780212E+02  0.18336240547E+03  0.19152477469E+03  0.00000000000E+00 0.  1.
         14    1    6    6    0    0  0.43466389223E+02 -0.49461456376E+02  0.49388476767E+02  0.82310292772E+02  0.00000000000E+00 0. -1.
         -5    1    3    3    0  503  0.16727094336E+00  0.44364689849E+02  0.23319280147E+03  0.23742204266E+03  0.47000000000E+01 0.  1.
         11    1    4    4    0    0  0.11272694440E+02  0.16118393745E+02 -0.15105375728E+02  0.24800174047E+02  0.00000000000E+00 0. -1.
        -12    1    4    4    0    0 -0.33265630311E+02  0.48773043112E+02  0.78192010777E+02  0.97976540273E+02  0.00000000000E+00 0.  1.
</event>
<event>
12    1  0.9873238E-001  0.2353831E+03  0.7818608E-02  0.1123092E+00
         21   -1    0    0  501  502  0.00000000000E+00  0.00000000000E+00  0.20954772717E+03  0.20954772717E+03  0.00000000000E+00 0. -1.
         21   -1    0    0  502  503 -0.00000000000E+00 -0.00000000000E+00 -0.26434712864E+03  0.26434712864E+03  0.00000000000E+00 0. -1.
         -6    2    1    2    0  503  0.83909844596E+02 -0.13602933719E+03 -0.42996016626E+02  0.23821604782E+03  0.17132829712E+03 0.  0.
        -24    2    3    3    0    0  0.29291999901E+02 -0.11921036192E+02  0.20742075247E+02  0.88314034183E+02  0.79806031012E+02 0.  0.
          6    2    1    2  501    0 -0.83909844596E+02  0.13602933719E+03 -0.11803384842E+02  0.23567880800E+03  0.17280144110E+03 0.  0.
         24    2    5    5    0    0 -0.67064551523E+02  0.10782925789E+02 -0.27151384770E+02  0.10828933210E+03  0.79846453844E+02 0.  0.
          5    1    5    5  501    0 -0.16845293073E+02  0.12524641140E+03  0.15347999928E+02  0.12738947590E+03  0.47000000000E+01 0. -1.
        -13    1    6    6    0    0 -0.30549958633E+02  0.26279993222E+02 -0.48648813343E+02  0.63171552584E+02  0.00000000000E+00 0.  1.
         14    1    6    6    0    0 -0.36514592890E+02 -0.15497067433E+02  0.21497428572E+02  0.45117779513E+02  0.00000000000E+00 0. -1.
         -5    1    3    3    0  503  0.54617844695E+02 -0.12410830100E+03 -0.63738091873E+02  0.14990201363E+03  0.47000000000E+01 0.  1.
         13    1    4    4    0    0 -0.23438269329E+01  0.15844637612E+02 -0.22727781034E+02  0.27804641635E+02  0.00000000000E+00 0. -1.
        -14    1    4    4    0    0  0.31635826834E+02 -0.27765673805E+02  0.43469856281E+02  0.60509392547E+02  0.00000000000E+00 0.  1.
</event>
<event>
12    1  0.9873238E-001  0.1925945E+03  0.7818608E-02  0.1156481E+00
         21   -1    0    0  501  502  0.00000000000E+00  0.00000000000E+00  0.68540684749E+02  0.68540684749E+02  0.00000000000E+00 0.  1.
         21   -1    0    0  502  503 -0.00000000000E+00 -0.00000000000E+00 -0.53705857229E+03  0.53705857229E+03  0.00000000000E+00 0.  1.
         -6    2    1    2    0  503  0.28753125039E+02 -0.79997950241E+02 -0.24028223750E+03  0.30794189459E+03  0.17281852489E+03 0.  0.
        -24    2    3    3    0    0  0.44741594982E+02 -0.57931030088E+02 -0.57170750500E+02  0.12275418764E+03  0.80263823117E+02 0.  0.
          6    2    1    2  501    0 -0.28753125039E+02  0.79997950241E+02 -0.22823565004E+03  0.29765736244E+03  0.17111978035E+03 0.  0.
         24    2    5    5    0    0 -0.72794740263E+02  0.59426978932E+02 -0.21388832286E+03  0.24675780911E+03  0.79439043712E+02 0.  0.
          5    1    5    5  501    0  0.44041615224E+02  0.20570971309E+02 -0.14347327175E+02  0.50899553330E+02  0.47000000000E+01 0. -1.
        -11    1    6    6    0    0 -0.67643259176E+02  0.48369443077E+01 -0.10829379763E+03  0.12777540118E+03  0.00000000000E+00 0.  1.
         12    1    6    6    0    0 -0.51514810873E+01  0.54590034624E+02 -0.10559452524E+03  0.11898240793E+03  0.00000000000E+00 0. -1.
         -5    1    3    3    0  503 -0.15988469943E+02 -0.22066920153E+02 -0.18311148700E+03  0.18518770696E+03  0.47000000000E+01 0.  1.
         13    1    4    4    0    0 -0.97471021584E+01 -0.35795210032E+02 -0.51774448335E+02  0.63693771768E+02  0.00000000000E+00 0. -1.
        -14    1    4    4    0    0  0.54488697141E+02 -0.22135820056E+02 -0.53963021652E+01  0.59060415869E+02  0.00000000000E+00 0.  1.
</event>
<event>
12    1  0.9873238E-001  0.2528373E+03  0.7818608E-02  0.1111557E+00
         21   -1    0    0  503  502  0.00000000000E+00  0.00000000000E+00  0.75792602977E+03  0.75792602977E+03  0.00000000000E+00 0. -1.
         21   -1    0    0  501  503 -0.00000000000E+00 -0.00000000000E+00 -0.84293964345E+02  0.84293964345E+02  0.00000000000E+00 0. -1.
          6    2    1    2  501    0  0.16029826595E+03  0.91118363158E+02  0.34331157020E+03  0.42636781938E+03  0.17299882369E+03 0.  0.
         24    2    3    3    0    0  0.16495982780E+03  0.25971744737E+02  0.22732851131E+03  0.29317633316E+03  0.79923926076E+02 0.  0.
         -6    2    1    2    0  502 -0.16029826595E+03 -0.91118363158E+02  0.33032049523E+03  0.41585217474E+03  0.17269427175E+03 0.  0.
        -24    2    5    5    0    0 -0.70332212398E+02 -0.46894906518E+02  0.67250158605E+02  0.13428922100E+03  0.79782571315E+02 0.  0.
          5    1    3    3  501    0 -0.46615618523E+01  0.65146618422E+02  0.11598305889E+03  0.13319148622E+03  0.47000000000E+01 0. -1.
        -13    1    4    4    0    0  0.13197554046E+03  0.45325814271E+02  0.13916586157E+03  0.19707640586E+03  0.00000000000E+00 0.  1.
         14    1    4    4    0    0  0.32984287337E+02 -0.19354069534E+02  0.88162649732E+02  0.96099927297E+02  0.00000000000E+00 0. -1.
         -5    1    5    5    0  502 -0.89966053550E+02 -0.44223456641E+02  0.26307033663E+03  0.28156295374E+03  0.47000000000E+01 0.  1.
         11    1    6    6    0    0 -0.74467774913E+02 -0.29055405581E+02  0.79116464018E+02  0.11246813314E+03  0.00000000000E+00 0. -1.
        -12    1    6    6    0    0  0.41355625140E+01 -0.17839500937E+02 -0.11866305414E+02  0.21821087854E+02  0.00000000000E+00 0.  1.
</event>
<event>
12    1  0.9873238E-001  0.2829677E+03  0.7818608E-02  0.1094231E+00
         21   -1    0    0  503  502  0.00000000000E+00  0.00000000000E+00  0.21395833438E+03  0.21395833438E+03  0.00000000000E+00 0.  1.
         21   -1    0    0  501  503 -0.00000000000E+00 -0.00000000000E+00 -0.38910464418E+03  0.38910464418E+03  0.00000000000E+00 0.  1.
          6    2    1    2  501    0 -0.20024999189E+03  0.99776531407E+02 -0.25581195704E+02  0.28299981423E+03  0.17140327245E+03 0.  0.
         24    2    3    3    0    0 -0.17502467960E+03  0.35512672254E+02 -0.61566136549E+02  0.20500516094E+03  0.79636288746E+02 0.  0.
         -6    2    1    2    0  502  0.20024999189E+03 -0.99776531407E+02 -0.14956511410E+03  0.32006316433E+03  0.17324921452E+03 0.  0.
        -24    2    5    5    0    0  0.14987453861E+03  0.93562651724E+00 -0.79502487282E+02  0.18735488756E+03  0.79485569049E+02 0.  0.
          5    1    3    3  501    0 -0.25225312297E+02  0.64263859153E+02  0.35984940846E+02  0.77994653287E+02  0.47000000000E+01 0. -1.
        -13    1    4    4    0    0 -0.16893367479E+02  0.22899947966E+02 -0.33419915888E+02  0.43894011660E+02  0.00000000000E+00 0.  1.
         14    1    4    4    0    0 -0.15813131212E+03  0.12612724288E+02 -0.28146220661E+02  0.16111114928E+03  0.00000000000E+00 0. -1.
         -5    1    5    5    0  502  0.50375453282E+02 -0.10071215792E+03 -0.70062626815E+02  0.13270827677E+03  0.47000000000E+01 0.  1.
         11    1    6    6    0    0  0.10105926712E+03 -0.37061039776E+02 -0.54255004687E+02  0.12054087138E+03  0.00000000000E+00 0. -1.
        -12    1    6    6    0    0  0.48815271496E+02  0.37996666294E+02 -0.25247482594E+02  0.66814016180E+02  0.00000000000E+00 0.  1.
</event>
<event>
12    1  0.9873238E-001  0.2016439E+03  0.7818608E-02  0.1148385E+00
         21   -1    0    0  501  502  0.00000000000E+00  0.00000000000E+00  0.54274503463E+03  0.54274503463E+03  0.00000000000E+00 0. -1.
         21   -1    0    0  502  503 -0.00000000000E+00 -0.00000000000E+00 -0.79150050213E+02  0.79150050213E+02  0.00000000000E+00 0. -1.
         -6    2    1    2    0  503 -0.63803039349E+02  0.84089811727E+02  0.15955960545E+03  0.25713717149E+03  0.17180900153E+03 0.  0.
        -24    2    3    3    0    0 -0.36016470554E+02  0.15978800770E+01  0.14393192699E+03  0.16857461436E+03  0.80007884779E+02 0.  0.
          6    2    1    2  501    0  0.63803039349E+02 -0.84089811727E+02  0.30403537896E+03  0.36475791335E+03  0.17166507921E+03 0.  0.
         24    2    5    5    0    0  0.94857990119E+02 -0.59523779430E+02  0.14216691232E+03  0.19805041380E+03  0.80445116957E+02 0.  0.
          5    1    5    5  501    0 -0.31054950770E+02 -0.24566032297E+02  0.16186846664E+03  0.16670749954E+03  0.47000000000E+01 0. -1.
        -11    1    6    6    0    0  0.37681111522E+02 -0.69477268947E+02  0.92448588223E+02  0.12162934897E+03  0.00000000000E+00 0.  1.
         12    1    6    6    0    0  0.57176878597E+02  0.99534895174E+01  0.49718324099E+02  0.76421064837E+02  0.00000000000E+00 0. -1.
         -5    1    3    3    0  503 -0.27786568795E+02  0.82491931650E+02  0.15627678463E+02  0.88562557139E+02  0.47000000000E+01 0.  1.
         11    1    4    4    0    0 -0.39037410812E+02 -0.29271353255E+02  0.50903184649E+02  0.70511458443E+02  0.00000000000E+00 0. -1.
        -12    1    4    4    0    0  0.30209402580E+01  0.30869233332E+02  0.93028742338E+02  0.98063155912E+02  0.00000000000E+00 0.  1.
</event>
<event>
12    1  0.9873238E-001  0.2601458E+03  0.7818608E-02  0.1107417E+00
         21   -1    0    0  503  502  0.00000000000E+00  0.00000000000E+00  0.27160637163E+03  0.27160637163E+03  0.00000000000E+00 0.  1.
         21   -1    0    0  501  503 -0.00000000000E+00 -0.00000000000E+00 -0.24780696292E+03  0.24780696292E+03  0.00000000000E+00 0.  1.
          6    2    1    2  501    0 -0.13501983256E+03 -0.13704112534E+03 -0.40376591410E+01  0.25778236545E+03  0.17153664340E+03 0.  0.
         24    2    3    3    0    0 -0.23182340616E+02 -0.25555874797E+02  0.39904687739E+02  0.93801861909E+02  0.77562114083E+02 0.  0.
         -6    2    1    2    0  502  0.13501983256E+03  0.13704112534E+03  0.27837067854E+02  0.26163096911E+03  0.17511492350E+03 0.  0.
        -24    2    5    5    0    0  0.16047252792E+03  0.88812646206E+02  0.43505439690E+02  0.20469755382E+03  0.79807561753E+02 0.  0.
          5    1    3    3  501    0 -0.11183749194E+03 -0.11148525054E+03 -0.43942346880E+02  0.16398050354E+03  0.47000000000E+01 0. -1.
        -11    1    4    4    0    0 -0.29446966691E+01  0.61427616286E+01 -0.21080040846E+02  0.22153394344E+02  0.00000000000E+00 0.  1.
         12    1    4    4    0    0 -0.20237643946E+02 -0.31698636426E+02  0.60984728585E+02  0.71648467565E+02  0.00000000000E+00 0. -1.
         -5    1    5    5    0  502 -0.25452695362E+02  0.48228479132E+02 -0.15668371836E+02  0.56933415290E+02  0.47000000000E+01 0.  1.
         11    1    6    6    0    0 -0.49195226454E+01  0.25537395875E+01 -0.93055579848E+01  0.10831283320E+02  0.00000000000E+00 0. -1.
        -12    1    6    6    0    0  0.16539205057E+03  0.86258906618E+02  0.52810997675E+02  0.19386627050E+03  0.00000000000E+00 0.  1.
</event>
<event>
12    1  0.9873238E-001  0.1768259E+03  0.7818608E-02  0.1171174E+00
         21   -1    0    0  501  502  0.00000000000E+00  0.00000000000E+00  0.12916151321E+03  0.12916151321E+03  0.00000000000E+00 0.  1.
         21   -1    0    0  502  503 -0.00000000000E+00 -0.00000000000E+00 -0.24447648080E+03  0.24447648080E+03  0.00000000000E+00 0.  1.
         -6    2    1    2    0  503 -0.15599741709E+02 -0.30974429121E+02 -0.34064090843E+02  0.17903813652E+03  0.17231228871E+03 0.  0.
        -24    2    3    3    0    0 -0.21874748527E+02 -0.20763132185E+02  0.46475762469E+02  0.97475864187E+02  0.80199347383E+02 0.  0.
          6    2    1    2  501    0  0.15599741709E+02  0.30974429121E+02 -0.81250876749E+02  0.19459985749E+03  0.17339155793E+03 0.  0.
         24    2    5    5    0    0  0.20119432155E+02  0.84810623378E+02 -0.49529034636E+02  0.13177367918E+03  0.85519260203E+02 0.  0.
          5    1    5    5  501    0 -0.45196904452E+01 -0.53836194256E+02 -0.31721842113E+02  0.62826178308E+02  0.47000000000E+01 0. -1.
        -11    1    6    6    0    0  0.17230426906E+02  0.16895367334E+02  0.22314838861E+02  0.32867812250E+02  0.00000000000E+00 0.  1.
         12    1    6    6    0    0  0.28890052488E+01  0.67915256044E+02 -0.71843873497E+02  0.98905866933E+02  0.00000000000E+00 0. -1.
         -5    1    3    3    0  503  0.62750068179E+01 -0.10211296937E+02 -0.80539853312E+02  0.81562272328E+02  0.47000000000E+01 0.  1.
         11    1    4    4    0    0  0.11079850778E+02  0.19365710188E+02 -0.65566982614E+01  0.23254765457E+02  0.00000000000E+00 0. -1.
        -12    1    4    4    0    0 -0.32954599306E+02 -0.40128842373E+02  0.53032460731E+02  0.74221098730E+02  0.00000000000E+00 0.  1.
</event>
<event>
12    1  0.9873238E-001  0.2064060E+03  0.7818608E-02  0.1144629E+00
         21   -1    0    0  503  502  0.00000000000E+00  0.00000000000E+00  0.28811194596E+03  0.28811194596E+03  0.00000000000E+00 0.  1.
         21   -1    0    0  501  503 -0.00000000000E+00 -0.00000000000E+00 -0.17217031181E+03  0.17217031181E+03  0.00000000000E+00 0.  1.
          6    2    1    2  501    0  0.16131346573E+02 -0.11314098000E+03  0.14569156394E+03  0.25264492759E+03  0.17187881177E+03 0.  0.
         24    2    3    3    0    0 -0.89224639919E+01 -0.17844296651E+02  0.12757914399E+03  0.15234886068E+03  0.80843726306E+02 0.  0.
         -6    2    1    2    0  502 -0.16131346573E+02  0.11314098000E+03 -0.29749929788E+02  0.20763733018E+03  0.17078378396E+03 0.  0.
        -24    2    5    5    0    0  0.25226191269E+02  0.11332985896E+03 -0.63693411125E+02  0.15392763331E+03  0.78465584942E+02 0.  0.
          5    1    3    3  501    0  0.25053810565E+02 -0.95296683345E+02  0.18112419947E+02  0.10029606691E+03  0.47000000000E+01 0. -1.
        -11    1    4    4    0    0  0.23508685031E+02 -0.10480712913E+02  0.61714888848E+01  0.26468677528E+02  0.00000000000E+00 0.  1.
         12    1    4    4    0    0 -0.32431149023E+02 -0.73635837380E+01  0.12140765511E+03  0.12588018316E+03  0.00000000000E+00 0. -1.
         -5    1    5    5    0  502 -0.41357537842E+02 -0.18887895922E+00  0.33943481337E+02  0.53709696861E+02  0.47000000000E+01 0.  1.
         13    1    6    6    0    0  0.18492919517E+02  0.34956867574E+02 -0.64038087800E+02  0.75265180209E+02  0.00000000000E+00 0. -1.
        -14    1    6    6    0    0  0.67332717525E+01  0.78372991381E+02  0.34467667535E+00  0.78662453105E+02  0.00000000000E+00 0.  1.
</event>
<event>
12    1  0.9873238E-001  0.3326990E+03  0.7818608E-02  0.1070017E+00
         21   -1    0    0  501  502  0.00000000000E+00  0.00000000000E+00  0.51341999231E+03  0.51341999231E+03  0.00000000000E+00 0.  1.
         21   -1    0    0  502  503 -0.00000000000E+00 -0.00000000000E+00 -0.23775071780E+03  0.23775071780E+03  0.00000000000E+00 0.  1.
         -6    2    1    2    0  503  0.11627533573E+03 -0.26016782192E+03  0.22244976093E+02  0.33344182412E+03  0.17170137405E+03 0.  0.
        -24    2    3    3    0    0  0.79191714598E+02 -0.20008507072E+03  0.79115847160E+02  0.24265901780E+03  0.79490367102E+02 0.  0.
          6    2    1    2  501    0 -0.11627533573E+03  0.26016782192E+03  0.25342429841E+03  0.41772888599E+03  0.17048840988E+03 0.  0.
         24    2    5    5    0    0 -0.15493363295E+02  0.14112973468E+03  0.69807595295E+02  0.17676362740E+03  0.78832945489E+02 0.  0.
          5    1    5    5  501    0 -0.10078197244E+03  0.11903808723E+03  0.18361670312E+03  0.24096525859E+03  0.47000000000E+01 0. -1.
        -13    1    6    6    0    0  0.13183929131E+02  0.57012618475E+02 -0.74713784587E+01  0.58992170232E+02  0.00000000000E+00 0.  1.
         14    1    6    6    0    0 -0.28677292425E+02  0.84117116209E+02  0.77278973753E+02  0.11777145717E+03  0.00000000000E+00 0. -1.
         -5    1    3    3    0  503  0.37083621135E+02 -0.60082751201E+02 -0.56870871067E+02  0.90782806325E+02  0.47000000000E+01 0.  1.
         13    1    4    4    0    0 -0.11426775709E+02 -0.69058645023E+02  0.20999996460E+02  0.73079870736E+02  0.00000000000E+00 0. -1.
        -14    1    4    4    0    0  0.90618490307E+02 -0.13102642569E+03  0.58115850700E+02  0.16957914706E+03  0.00000000000E+00 0.  1.
</event>
<event>
12    1  0.9873238E-001  0.2223534E+03  0.7818608E-02  0.1132440E+00
         21   -1    0    0  501  502  0.00000000000E+00  0.00000000000E+00  0.32809409562E+02  0.32809409562E+02  0.00000000000E+00 0.  1.
         21   -1    0    0  502  503 -0.00000000000E+00 -0.00000000000E+00 -0.15684180039E+04  0.15684180039E+04  0.00000000000E+00 0.  1.
         -6    2    1    2    0  503 -0.72522810437E+02  0.11839220939E+03 -0.59304371208E+03  0.63279072894E+03  0.17160124975E+03 0.  0.
        -24    2    3    3    0    0 -0.53370441131E+02  0.12995555738E+03 -0.58780913943E+03  0.60933832997E+03  0.77696622106E+02 0.  0.
          6    2    1    2  501    0  0.72522810437E+02 -0.11839220939E+03 -0.94256488223E+03  0.96843668449E+03  0.17368011222E+03 0.  0.
         24    2    5    5    0    0  0.54665892359E+02 -0.13624362182E+03 -0.91773635068E+03  0.93271430456E+03  0.78519298922E+02 0.  0.
          5    1    5    5  501    0  0.17856918078E+02  0.17851412431E+02 -0.24828531554E+02  0.35722379933E+02  0.47000000000E+01 0. -1.
        -11    1    6    6    0    0 -0.57497204677E+01 -0.27509845083E+01 -0.45117345484E+01  0.78091580760E+01  0.00000000000E+00 0.  1.
         12    1    6    6    0    0  0.60415612827E+02 -0.13349263731E+03 -0.91322461613E+03  0.92490514648E+03  0.00000000000E+00 0. -1.
         -5    1    3    3    0  503 -0.19152369306E+02 -0.11563347987E+02 -0.52345726447E+01  0.23452398970E+02  0.47000000000E+01 0.  1.
         11    1    4    4    0    0 -0.63616848848E+02  0.74388372299E+02 -0.28601019510E+03  0.30229549300E+03  0.00000000000E+00 0. -1.
        -12    1    4    4    0    0  0.10246407717E+02  0.55567185078E+02 -0.30179894434E+03  0.30704283697E+03  0.00000000000E+00 0.  1.
</event>
<event>
12    1  0.9873238E-001  0.1748350E+03  0.7818608E-02  0.1176668E+00
         21   -1    0    0  501  502  0.00000000000E+00  0.00000000000E+00  0.19804785807E+03  0.19804785807E+03  0.00000000000E+00 0. -1.
         21   -1    0    0  502  503 -0.00000000000E+00 -0.00000000000E+00 -0.16239503141E+03  0.16239503141E+03  0.00000000000E+00 0. -1.
         -6    2    1    2    0  503 -0.16592400497E+01 -0.33684519386E+02  0.81053569116E+02  0.17980926643E+03  0.15692129015E+03 0.  0.
        -24    2    3    3    0    0  0.11445657336E+02 -0.46815081314E+02  0.11055061674E+03  0.14464798359E+03  0.79868300248E+02 0.  0.
          6    2    1    2  501    0  0.16592400497E+01  0.33684519386E+02 -0.45400742463E+02  0.18063362305E+03  0.17155138716E+03 0.  0.
         24    2    5    5    0    0 -0.90481979649E+01 -0.36276786065E+02  0.12410155329E+02  0.89127211292E+02  0.79948563113E+02 0.  0.
          5    1    5    5  501    0  0.10707438015E+02  0.69961305451E+02 -0.57810897792E+02  0.91506411757E+02  0.47000000000E+01 0. -1.
        -11    1    6    6    0    0 -0.17642754505E+02 -0.59783943569E+02  0.30574204618E+01  0.62407808126E+02  0.00000000000E+00 0.  1.
         12    1    6    6    0    0  0.85945565400E+01  0.23507157504E+02  0.93527348673E+01  0.26719403166E+02  0.00000000000E+00 0. -1.
         -5    1    3    3    0  503 -0.13104897386E+02  0.13130561928E+02 -0.29497047628E+02  0.35161282838E+02  0.47000000000E+01 0.  1.
         13    1    4    4    0    0  0.34918124226E+02 -0.19158444559E+02  0.15200202470E+02  0.42630594090E+02  0.00000000000E+00 0. -1.
        -14    1    4    4    0    0 -0.23472466890E+02 -0.27656636756E+02  0.95350414274E+02  0.10201738950E+03  0.00000000000E+00 0.  1.
</event>
<event>
12    1  0.9873238E-001  0.2298158E+03  0.7818608E-02  0.1127034E+00
         21   -1    0    0  503  502  0.00000000000E+00  0.00000000000E+00  0.39645280611E+03  0.39645280611E+03  0.00000000000E+00 0.  1.
         21   -1    0    0  501  503 -0.00000000000E+00 -0.00000000000E+00 -0.13819714356E+03  0.13819714356E+03  0.00000000000E+00 0.  1.
          6    2    1    2  501    0 -0.75737137886E+02 -0.13002429677E+03  0.18449643204E+03  0.29471045264E+03  0.17370344170E+03 0.  0.
         24    2    3    3    0    0 -0.83317314851E+02 -0.32183193369E+02  0.56715145636E+02  0.13352581395E+03  0.81455523793E+02 0.  0.
         -6    2    1    2    0  502  0.75737137886E+02  0.13002429677E+03  0.73759230509E+02  0.23993949703E+03  0.17172101311E+03 0.  0.
        -24    2    5    5    0    0  0.51746559088E+02  0.13248868941E+03  0.61472548463E+01  0.16800139617E+03  0.89194849473E+02 0.  0.
          5    1    3    3  501    0  0.75801769654E+01 -0.97841103400E+02  0.12778128640E+03  0.16118463870E+03  0.47000000000E+01 0. -1.
        -13    1    4    4    0    0 -0.38591196726E+02 -0.29450655682E+02 -0.13359003068E+02  0.50349623115E+02  0.00000000000E+00 0.  1.
         14    1    4    4    0    0 -0.44726118125E+02 -0.27325376869E+01  0.70074148704E+02  0.83176190832E+02  0.00000000000E+00 0. -1.
         -5    1    5    5    0  502  0.23990578798E+02 -0.24643926437E+01  0.67611975662E+02  0.71938100859E+02  0.47000000000E+01 0.  1.
         11    1    6    6    0    0  0.31699425427E+02  0.53629675703E+02  0.45959646494E+02  0.77416308323E+02  0.00000000000E+00 0. -1.
        -12    1    6    6    0    0  0.20047133660E+02  0.78859013709E+02 -0.39812391648E+02  0.90585087845E+02  0.00000000000E+00 0.  1.
</event>
<event>
12    1  0.9873238E-001  0.4393087E+03  0.7818608E-02  0.1030964E+00
         21   -1    0    0  501  502  0.00000000000E+00  0.00000000000E+00  0.14729878146E+04  0.14729878146E+04  0.00000000000E+00 0. -1.
         21   -1    0    0  502  503 -0.00000000000E+00 -0.00000000000E+00 -0.13177375546E+03  0.13177375546E+03  0.00000000000E+00 0. -1.
         -6    2    1    2    0  503 -0.27652080999E+03 -0.29481594078E+03  0.73191101810E+03  0.85360092012E+03  0.17193194908E+03 0.  0.
        -24    2    3    3    0    0 -0.15133930400E+03 -0.10218201073E+03  0.24358146633E+03  0.31391019240E+03  0.76569771475E+02 0.  0.
          6    2    1    2  501    0  0.27652080999E+03  0.29481594078E+03  0.60930304103E+03  0.75116064993E+03  0.17208116949E+03 0.  0.
         24    2    5    5    0    0  0.49439639569E+02  0.88026093706E+02  0.13840463123E+03  0.18893711683E+03  0.79677606873E+02 0.  0.
          5    1    5    5  501    0  0.22708117042E+03  0.20678984708E+03  0.47089840980E+03  0.56222353310E+03  0.47000000000E+01 0. -1.
        -11    1    6    6    0    0  0.70512494536E+02  0.58131876542E+02  0.89944973868E+02  0.12822412129E+03  0.00000000000E+00 0.  1.
         12    1    6    6    0    0 -0.21072854967E+02  0.29894217164E+02  0.48459657359E+02  0.60712995542E+02  0.00000000000E+00 0. -1.
         -5    1    3    3    0  503 -0.12518150599E+03 -0.19263393005E+03  0.48832955177E+03  0.53969072772E+03  0.47000000000E+01 0.  1.
         11    1    4    4    0    0 -0.15478771182E+03 -0.88403122245E+02  0.24053200029E+03  0.29938268306E+03  0.00000000000E+00 0. -1.
        -12    1    4    4    0    0  0.34484078269E+01 -0.13778888487E+02  0.30494660374E+01  0.14527509338E+02  0.00000000000E+00 0.  1.
</event>
<event>
12    1  0.9873238E-001  0.1738586E+03  0.7818608E-02  0.1174096E+00
         21   -1    0    0  501  502  0.00000000000E+00  0.00000000000E+00  0.10526263353E+03  0.10526263353E+03  0.00000000000E+00 0.  1.
         21   -1    0    0  502  503 -0.00000000000E+00 -0.00000000000E+00 -0.37691973085E+03  0.37691973085E+03  0.00000000000E+00 0.  1.
         -6    2    1    2    0  503  0.28055825278E+02 -0.71749709874E+01 -0.25413852473E+03  0.30744333724E+03  0.17057668752E+03 0.  0.
        -24    2    3    3    0    0  0.32603467402E+02  0.50608051220E+02 -0.21482591620E+03  0.23724981978E+03  0.80704038188E+02 0.  0.
          6    2    1    2  501    0 -0.28055825278E+02  0.71749709874E+01 -0.17518572594E+02  0.17473902714E+03  0.17142992060E+03 0.  0.
         24    2    5    5    0    0  0.54950024899E+02 -0.35005968739E+00 -0.17256479963E+02  0.91259952256E+02  0.70788169964E+02 0.  0.
          5    1    5    5  501    0 -0.83005850176E+02  0.75250306748E+01 -0.26209263077E+00  0.83479074879E+02  0.47000000000E+01 0. -1.
        -11    1    6    6    0    0 -0.16628120607E+02  0.60540564046E+01 -0.46727193528E+01  0.18302467047E+02  0.00000000000E+00 0.  1.
         12    1    6    6    0    0  0.71578145505E+02 -0.64041160920E+01 -0.12583760610E+02  0.72957485209E+02  0.00000000000E+00 0. -1.
         -5    1    3    3    0  503 -0.45476421244E+01 -0.57783022208E+02 -0.39312608521E+02  0.70193517458E+02  0.47000000000E+01 0.  1.
         11    1    4    4    0    0 -0.89550444647E+01  0.55551559821E+02 -0.14872796182E+03  0.15901627353E+03  0.00000000000E+00 0. -1.
        -12    1    4    4    0    0  0.41558511867E+02 -0.49435086011E+01 -0.66097954382E+02  0.78233546253E+02  0.00000000000E+00 0.  1.
</event>
<event>
12    1  0.9873238E-001  0.1965161E+03  0.7818608E-02  0.1152739E+00
         21   -1    0    0  501  502  0.00000000000E+00  0.00000000000E+00  0.65388703152E+03  0.65388703152E+03  0.00000000000E+00 0.  1.
         21   -1    0    0  502  503 -0.00000000000E+00 -0.00000000000E+00 -0.59204092781E+02  0.59204092781E+02  0.00000000000E+00 0.  1.
         -6    2    1    2    0  503 -0.11514846282E+02 -0.94914689071E+02  0.27751045861E+03  0.33997324797E+03  0.17154697553E+03 0.  0.
        -24    2    3    3    0    0  0.17853428006E+02 -0.13035747154E+02  0.22086548492E+03  0.23606271093E+03  0.80345289011E+02 0.  0.
          6    2    1    2  501    0  0.11514846282E+02  0.94914689071E+02  0.31717248013E+03  0.37311787633E+03  0.17168918894E+03 0.  0.
         24    2    5    5    0    0  0.71215077393E+02  0.60057258809E+02  0.23935838921E+03  0.26892439868E+03  0.79683324072E+02 0.  0.
          5    1    5    5  501    0 -0.59700231112E+02  0.34857430263E+02  0.77814090922E+02  0.10419347765E+03  0.47000000000E+01 0. -1.
        -11    1    6    6    0    0  0.33474534937E+02  0.73555259130E+02  0.13789475401E+03  0.15983079747E+03  0.00000000000E+00 0.  1.
         12    1    6    6    0    0  0.37740542456E+02 -0.13498000321E+02  0.10146363520E+03  0.10909360121E+03  0.00000000000E+00 0. -1.
         -5    1    3    3    0  503 -0.29368274288E+02 -0.81878941918E+02  0.56644973682E+02  0.10391053704E+03  0.47000000000E+01 0.  1.
         11    1    4    4    0    0 -0.25600188571E+02 -0.14900862468E+02  0.38466053983E+02  0.48549383788E+02  0.00000000000E+00 0. -1.
        -12    1    4    4    0    0  0.43453616578E+02  0.18651153147E+01  0.18239943094E+03  0.18751332714E+03  0.00000000000E+00 0.  1.
</event>
<event>
12    1  0.9873238E-001  0.2091016E+03  0.7818608E-02  0.1143205E+00
         21   -1    0    0  501  502  0.00000000000E+00  0.00000000000E+00  0.67051057071E+03  0.67051057071E+03  0.00000000000E+00 0. -1.
         21   -1    0    0  502  503 -0.00000000000E+00 -0.00000000000E+00 -0.67317092903E+02  0.67317092903E+02  0.00000000000E+00 0. -1.
         -6    2    1    2    0  503 -0.58828707757E+02 -0.89978185918E+02  0.22026840609E+03  0.30371311599E+03  0.17935048176E+03 0.  0.
        -24    2    3    3    0    0 -0.10013978525E+03 -0.80516139805E+02  0.21187110662E+03  0.26025347864E+03  0.79571866675E+02 0.  0.
          6    2    1    2  501    0  0.58828707757E+02  0.89978185918E+02  0.38292507172E+03  0.43411454762E+03  0.17397396101E+03 0.  0.
         24    2    5    5    0    0  0.22101145630E+02  0.53101268294E+02  0.36669590035E+03  0.37939437880E+03  0.78523919881E+02 0.  0.
          5    1    5    5  501    0  0.36727562127E+02  0.36876917624E+02  0.16229171367E+02  0.54720168827E+02  0.47000000000E+01 0. -1.
        -13    1    6    6    0    0  0.83457755075E+01  0.59901501344E+02  0.14419613532E+03  0.15636613212E+03  0.00000000000E+00 0.  1.
         14    1    6    6    0    0  0.13755370122E+02 -0.68002330498E+01  0.22249976504E+03  0.22302824668E+03  0.00000000000E+00 0. -1.
         -5    1    3    3    0  503  0.41311077490E+02 -0.94620461127E+01  0.83972994636E+01  0.43459637347E+02  0.47000000000E+01 0.  1.
         11    1    4    4    0    0 -0.89039930891E+02 -0.89054873240E+02  0.21160964302E+03  0.24624686954E+03  0.00000000000E+00 0. -1.
        -12    1    4    4    0    0 -0.11099854356E+02  0.85387334353E+01  0.26146360845E+00  0.14006609105E+02  0.00000000000E+00 0.  1.
</event>
<event>
12    1  0.9873238E-001  0.3433820E+03  0.7818608E-02  0.1065385E+00
         21   -1    0    0  503  502  0.00000000000E+00  0.00000000000E+00  0.14479398497E+03  0.14479398497E+03  0.00000000000E+00 0. -1.
         21   -1    0    0  501  503 -0.00000000000E+00 -0.00000000000E+00 -0.90057927220E+03  0.90057927220E+03  0.00000000000E+00 0.  1.
          6    2    1    2  501    0 -0.15125439120E+03 -0.25573225804E+03 -0.53998139847E+03  0.63980880001E+03  0.17175130629E+03 0.  0.
         24    2    3    3    0    0 -0.37024707920E+02 -0.17628185292E+03 -0.37686051352E+03  0.42535297583E+03  0.80344176722E+02 0.  0.
         -6    2    1    2    0  502  0.15125439120E+03  0.25573225804E+03 -0.21580388876E+03  0.40556445717E+03  0.17214625136E+03 0.  0.
        -24    2    5    5    0    0  0.17779648405E+02  0.43339684765E+02 -0.42395790750E+02  0.10057499735E+03  0.78252685868E+02 0.  0.
          5    1    3    3  501    0 -0.11422968328E+03 -0.79450405117E+02 -0.16312088495E+03  0.21445582417E+03  0.47000000000E+01 0. -1.
        -13    1    4    4    0    0 -0.52590276795E+02 -0.17179299098E+03 -0.35752234134E+03  0.40012597206E+03  0.00000000000E+00 0.  1.
         14    1    4    4    0    0  0.15565568875E+02 -0.44888619454E+01 -0.19338172183E+02  0.25227003773E+02  0.00000000000E+00 0. -1.
         -5    1    5    5    0  502  0.13347474279E+03  0.21239257328E+03 -0.17340809801E+03  0.30498945982E+03  0.47000000000E+01 0.  1.
         13    1    6    6    0    0  0.40062778534E+02  0.52860691096E+02 -0.25622196167E+02  0.71103978957E+02  0.00000000000E+00 0. -1.
        -14    1    6    6    0    0 -0.22283130129E+02 -0.95210063311E+01 -0.16773594583E+02  0.29471018393E+02  0.00000000000E+00 0.  1.
</event>
<event>
12    1  0.9873238E-001  0.1896769E+03  0.7818608E-02  0.1159150E+00
         21   -1    0    0  501  502  0.00000000000E+00  0.00000000000E+00  0.65127056198E+02  0.65127056198E+02  0.00000000000E+00 0. -1.
         21   -1    0    0  502  503 -0.00000000000E+00 -0.00000000000E+00 -0.60502041962E+03  0.60502041962E+03  0.00000000000E+00 0. -1.
         -6    2    1    2    0  503 -0.19388468962E+02 -0.73154414334E+02 -0.37453511400E+03  0.41982598723E+03  0.17392477360E+03 0.  0.
        -24    2    3    3    0    0 -0.16635433454E+02 -0.11858797149E+03 -0.29701533365E+03  0.32980824639E+03  0.78838609417E+02 0.  0.
          6    2    1    2  501    0  0.19388468962E+02  0.73154414334E+02 -0.16535824942E+03  0.25032148858E+03  0.17201748728E+03 0.  0.
         24    2    5    5    0    0  0.64808846451E+02  0.45619389243E+02 -0.51344512284E+02  0.12445485062E+03  0.81064391978E+02 0.  0.
          5    1    5    5  501    0 -0.45420377488E+02  0.27535025090E+02 -0.11401373714E+03  0.12586663797E+03  0.47000000000E+01 0. -1.
        -11    1    6    6    0    0  0.57758010979E+02  0.17642901221E+02  0.55663682591E+01  0.60648530496E+02  0.00000000000E+00 0.  1.
         12    1    6    6    0    0  0.70508354712E+01  0.27976488023E+02 -0.56910880543E+02  0.63806320119E+02  0.00000000000E+00 0. -1.
         -5    1    3    3    0  503 -0.27530355087E+01  0.45433557159E+02 -0.77519780348E+02  0.90017740840E+02  0.47000000000E+01 0.  1.
         13    1    4    4    0    0  0.30077503927E+02 -0.68729198011E+02 -0.15228975311E+03  0.16976609734E+03  0.00000000000E+00 0. -1.
        -14    1    4    4    0    0 -0.46712937381E+02 -0.49858773481E+02 -0.14472558054E+03  0.16004214905E+03  0.00000000000E+00 0.  1.
</event>
<event>
12    1  0.9873238E-001  0.2088227E+03  0.7818608E-02  0.1143119E+00
         21   -1    0    0  501  502  0.00000000000E+00  0.00000000000E+00  0.11116894654E+03  0.11116894654E+03  0.00000000000E+00 0. -1.
         21   -1    0    0  502  503 -0.00000000000E+00 -0.00000000000E+00 -0.61068493338E+03  0.61068493338E+03  0.00000000000E+00 0. -1.
         -6    2    1    2    0  503  0.11081505807E+03  0.39662142530E+02 -0.32255658011E+02  0.21129922177E+03  0.17249310421E+03 0.  0.
        -24    2    3    3    0    0  0.96760997985E+02  0.88997971369E+02 -0.40911588773E+02  0.15906364242E+03  0.79650201540E+02 0.  0.
          6    2    1    2  501    0 -0.11081505807E+03 -0.39662142530E+02 -0.46726032883E+03  0.51055465815E+03  0.16876250003E+03 0.  0.
         24    2    5    5    0    0 -0.19291562846E+02 -0.27215725005E+02 -0.35303606416E+03  0.36358276925E+03  0.80281426334E+02 0.  0.
          5    1    5    5  501    0 -0.91523495228E+02 -0.12446417525E+02 -0.11422426467E+03  0.14697188890E+03  0.47000000000E+01 0. -1.
        -13    1    6    6    0    0 -0.36854679316E+02 -0.43657803701E+02 -0.29933595301E+03  0.30473969872E+03  0.00000000000E+00 0.  1.
         14    1    6    6    0    0  0.17563116470E+02  0.16442078696E+02 -0.53700111147E+02  0.58843070529E+02  0.00000000000E+00 0. -1.
         -5    1    3    3    0  503  0.14054060090E+02 -0.49335828838E+02  0.86559307617E+01  0.52235579345E+02  0.47000000000E+01 0.  1.
         13    1    4    4    0    0  0.15357668110E+02 -0.14787624873E+01 -0.33793407113E+02  0.37148877137E+02  0.00000000000E+00 0. -1.
        -14    1    4    4    0    0  0.81403329874E+02  0.90476733856E+02 -0.71181816604E+01  0.12191476528E+03  0.00000000000E+00 0.  1.
</event>
<event>
12    1  0.9873238E-001  0.1736566E+03  0.7818608E-02  0.1174235E+00
         21   -1    0    0  503  502  0.00000000000E+00  0.00000000000E+00  0.17590605223E+03  0.17590605223E+03  0.00000000000E+00 0. -1.
         21   -1    0    0  501  503 -0.00000000000E+00 -0.00000000000E+00 -0.17659452614E+03  0.17659452614E+03  0.00000000000E+00 0. -1.
          6    2    1    2  501    0 -0.88172112007E+01 -0.25954337060E+02 -0.32094693584E+02  0.17659753724E+03  0.17147959056E+03 0.  0.
         24    2    3    3    0    0  0.11899483201E+02  0.26709606334E+02  0.28918721363E+02  0.93246477477E+02  0.83687587763E+02 0.  0.
         -6    2    1    2    0  502  0.88172112007E+01  0.25954337060E+02  0.31406219676E+02  0.17590304112E+03  0.17089224212E+03 0.  0.
        -24    2    5    5    0    0  0.26478782030E+02 -0.29163069940E+02 -0.24990756059E+02  0.94955104083E+02  0.82706247387E+02 0.  0.
          5    1    3    3  501    0 -0.20716694402E+02 -0.52663943393E+02 -0.61013414947E+02  0.83351059766E+02  0.47000000000E+01 0. -1.
        -11    1    4    4    0    0 -0.35155712720E+02  0.21705425309E+02  0.14239897710E+02  0.43701536718E+02  0.00000000000E+00 0.  1.
         12    1    4    4    0    0  0.47055195921E+02  0.50041810242E+01  0.14678823653E+02  0.49544940759E+02  0.00000000000E+00 0. -1.
         -5    1    5    5    0  502 -0.17661570829E+02  0.55117407000E+02  0.56396975735E+02  0.80947937037E+02  0.47000000000E+01 0.  1.
         13    1    6    6    0    0 -0.59318550465E+01  0.26170354698E+02 -0.23013382668E+01  0.26932703673E+02  0.00000000000E+00 0. -1.
        -14    1    6    6    0    0  0.32410637077E+02 -0.55333424638E+02 -0.22689417792E+02  0.68022400411E+02  0.00000000000E+00 0.  1.
</event>
<event>
12    1  0.9873238E-001  0.2165817E+03  0.7818608E-02  0.1137164E+00
         21   -1    0    0  503  502  0.00000000000E+00  0.00000000000E+00  0.36401255064E+03  0.36401255064E+03  0.00000000000E+00 0.  1.
         21   -1    0    0  501  503 -0.00000000000E+00 -0.00000000000E+00 -0.12675403199E+03  0.12675403199E+03  0.00000000000E+00 0.  1.
          6    2    1    2  501    0 -0.10904735182E+03  0.62553907085E+02  0.12350277812E+03  0.24612806951E+03  0.17181901573E+03 0.  0.
         24    2    3    3    0    0 -0.10577851304E+03  0.10706705438E+03  0.11111739053E+03  0.19957064888E+03  0.69490441524E+02 0.  0.
         -6    2    1    2    0  502  0.10904735182E+03 -0.62553907085E+02  0.11375574053E+03  0.24463851313E+03  0.17636132618E+03 0.  0.
        -24    2    5    5    0    0  0.41158153811E+02 -0.81925939211E+02  0.12319068265E+03  0.17325695411E+03  0.80225773389E+02 0.  0.
          5    1    3    3  501    0 -0.32688387802E+01 -0.44513147299E+02  0.12385387592E+02  0.46557420625E+02  0.47000000000E+01 0. -1.
        -11    1    4    4    0    0 -0.33958278820E+02  0.69341822558E+01  0.53000846323E+02  0.63327223963E+02  0.00000000000E+00 0.  1.
         12    1    4    4    0    0 -0.71820234217E+02  0.10013287213E+03  0.58116544207E+02  0.13624342492E+03  0.00000000000E+00 0. -1.
         -5    1    5    5    0  502  0.67889198006E+02  0.19372032127E+02 -0.94349421226E+01  0.71381559016E+02  0.47000000000E+01 0.  1.
         13    1    6    6    0    0  0.76224166375E+01  0.28397961982E+01  0.64117415905E+02  0.64631329091E+02  0.00000000000E+00 0. -1.
        -14    1    6    6    0    0  0.33535737174E+02 -0.84765735410E+02  0.59073266745E+02  0.10862562502E+03  0.00000000000E+00 0.  1.
</event>
<event>
12    1  0.9873238E-001  0.1817636E+03  0.7818608E-02  0.1166116E+00
         21   -1    0    0  503  502  0.00000000000E+00  0.00000000000E+00  0.12850495052E+03  0.12850495052E+03  0.00000000000E+00 0. -1.
         21   -1    0    0  501  503 -0.00000000000E+00 -0.00000000000E+00 -0.51848854034E+03  0.51848854034E+03  0.00000000000E+00 0. -1.
          6    2    1    2  501    0  0.24414806956E+01 -0.56907329185E+02  0.34735985386E+02  0.18501436249E+03  0.17256685865E+03 0.  0.
         24    2    3    3    0    0  0.35494865558E+02 -0.38144661532E+02  0.81165794123E+02  0.12482814241E+03  0.79241897488E+02 0.  0.
         -6    2    1    2    0  502 -0.24414806956E+01  0.56907329185E+02 -0.42471957520E+03  0.46197912837E+03  0.17260820533E+03 0.  0.
        -24    2    5    5    0    0  0.22063406034E+02  0.67906094257E+02 -0.42103597511E+03  0.43446329263E+03  0.79931400481E+02 0.  0.
          5    1    3    3  501    0 -0.33053384862E+02 -0.18762667653E+02 -0.46429808738E+02  0.60186220082E+02  0.47000000000E+01 0. -1.
        -13    1    4    4    0    0  0.35432709141E+02 -0.49295157224E+02  0.21923461720E+02  0.64545546528E+02  0.00000000000E+00 0.  1.
         14    1    4    4    0    0  0.62156416270E-01  0.11150495692E+02  0.59242332404E+02  0.60282595882E+02  0.00000000000E+00 0. -1.
         -5    1    5    5    0  502 -0.24504886729E+02 -0.10998765072E+02 -0.36836000868E+01  0.27515835737E+02  0.47000000000E+01 0.  1.
         13    1    6    6    0    0 -0.49464401423E+01  0.11695078341E+02 -0.47900744758E+01  0.13571548953E+02  0.00000000000E+00 0. -1.
        -14    1    6    6    0    0  0.27009846176E+02  0.56211015916E+02 -0.41624590064E+03  0.42089174368E+03  0.00000000000E+00 0.  1.
</event>
<event>
12    1  0.9873238E-001  0.1811262E+03  0.7818608E-02  0.1167771E+00
         21   -1    0    0  501  502  0.00000000000E+00  0.00000000000E+00  0.19097674170E+03  0.19097674170E+03  0.00000000000E+00 0. -1.
         21   -1    0    0  502  503 -0.00000000000E+00 -0.00000000000E+00 -0.25237264769E+03  0.25237264769E+03  0.00000000000E+00 0. -1.
         -6    2    1    2    0  503  0.46159673119E+02 -0.24814088493E+02 -0.15934015378E+03  0.24123844520E+03  0.17337891575E+03 0.  0.
        -24    2    3    3    0    0  0.66199435554E+02  0.27344241605E+02 -0.51240654835E+02  0.11946129156E+03  0.80717548627E+02 0.  0.
          6    2    1    2  501    0 -0.46159673119E+02  0.24814088493E+02  0.97944247792E+02  0.20211094419E+03  0.16884698303E+03 0.  0.
         24    2    5    5    0    0  0.27296402302E+02  0.40953413613E+01  0.93401647500E+02  0.12550946434E+03  0.79163706854E+02 0.  0.
          5    1    5    5  501    0 -0.73456075420E+02  0.20718747132E+02  0.45426002923E+01  0.76601479857E+02  0.47000000000E+01 0. -1.
        -13    1    6    6    0    0  0.33097961637E+02  0.18976106589E+02  0.84591661019E+01  0.39078449009E+02  0.00000000000E+00 0.  1.
         14    1    6    6    0    0 -0.58015593357E+01 -0.14880765227E+02  0.84942481398E+02  0.86431015327E+02  0.00000000000E+00 0. -1.
         -5    1    3    3    0  503 -0.20039762435E+02 -0.52158330098E+02 -0.10809949895E+03  0.12177715364E+03  0.47000000000E+01 0.  1.
         11    1    4    4    0    0  0.15089295869E+01  0.12039110867E+02  0.19132107535E+02  0.22655122991E+02  0.00000000000E+00 0. -1.
        -12    1    4    4    0    0  0.64690505967E+02  0.15305130738E+02 -0.70372762371E+02  0.96806168568E+02  0.00000000000E+00 0.  1.
</event>
<event>
12    1  0.9873238E-001  0.2472749E+03  0.7818608E-02  0.1115083E+00
         21   -1    0    0  501  502  0.00000000000E+00  0.00000000000E+00  0.21452581561E+03  0.21452581561E+03  0.00000000000E+00 0.  1.
         21   -1    0    0  502  503 -0.00000000000E+00 -0.00000000000E+00 -0.41376360758E+03  0.41376360758E+03  0.00000000000E+00 0.  1.
         -6    2    1    2    0  503 -0.17779072290E+03  0.46146561604E+01  0.75786285473E+02  0.25862799611E+03  0.17179651658E+03 0.  0.
        -24    2    3    3    0    0 -0.12953360251E+02  0.15538333897E+02  0.35036483090E+02  0.88412487850E+02  0.78612871073E+02 0.  0.
          6    2    1    2  501    0  0.17779072290E+03 -0.46146561604E+01 -0.27502407744E+03  0.36966142708E+03  0.17140738402E+03 0.  0.
         24    2    5    5    0    0  0.50993428898E+02  0.51745526137E+02 -0.10811691993E+03  0.15255750462E+03  0.79414070395E+02 0.  0.
          5    1    5    5  501    0  0.12679729400E+03 -0.56360182298E+02 -0.16690715752E+03  0.21710392245E+03  0.47000000000E+01 0. -1.
        -13    1    6    6    0    0  0.63705035668E+02  0.13614851463E+02 -0.51084459965E+02  0.82784767921E+02  0.00000000000E+00 0.  1.
         14    1    6    6    0    0 -0.12711606770E+02  0.38130674674E+02 -0.57032459961E+02  0.69772736702E+02  0.00000000000E+00 0. -1.
         -5    1    3    3    0  503 -0.16483736265E+03 -0.10923677737E+02  0.40749802383E+02  0.17021550826E+03  0.47000000000E+01 0.  1.
         13    1    4    4    0    0 -0.35053893411E+02 -0.19214605472E+02  0.16427017556E+02  0.43218322648E+02  0.00000000000E+00 0. -1.
        -14    1    4    4    0    0  0.22100533160E+02  0.34752939369E+02  0.18609465535E+02  0.45194165202E+02  0.00000000000E+00 0.  1.
</event>
<event>
12    1  0.9873238E-001  0.2365539E+03  0.7818608E-02  0.1122143E+00
         21   -1    0    0  503  502  0.00000000000E+00  0.00000000000E+00  0.38113159157E+02  0.38113159157E+02  0.00000000000E+00 0. -1.
         21   -1    0    0  501  503 -0.00000000000E+00 -0.00000000000E+00 -0.14822880355E+04  0.14822880355E+04  0.00000000000E+00 0. -1.
          6    2    1    2  501    0 -0.15952975997E+03 -0.27487683042E+02 -0.64514838160E+03  0.68714931007E+03  0.17248890694E+03 0.  0.
         24    2    3    3    0    0 -0.15430592324E+03 -0.72131368533E+02 -0.55978159993E+03  0.59055777557E+03  0.79936189514E+02 0.  0.
         -6    2    1    2    0  502  0.15952975997E+03  0.27487683042E+02 -0.79902649469E+03  0.83325188454E+03  0.17222092448E+03 0.  0.
        -24    2    5    5    0    0  0.17770487952E+03  0.54997444766E+02 -0.66576207965E+03  0.69588880260E+03  0.80114516493E+02 0.  0.
          5    1    3    3  501    0 -0.52238367284E+01  0.44643685492E+02 -0.85366781671E+02  0.96591534501E+02  0.47000000000E+01 0. -1.
        -13    1    4    4    0    0 -0.86383059845E+02  0.86555622678E+00 -0.21682869952E+03  0.23340408555E+03  0.00000000000E+00 0.  1.
         14    1    4    4    0    0 -0.67922863393E+02 -0.72996924760E+02 -0.34295290041E+03  0.35715369002E+03  0.00000000000E+00 0. -1.
         -5    1    5    5    0  502 -0.18175119558E+02 -0.27509761724E+02 -0.13326441505E+03  0.13736308193E+03  0.47000000000E+01 0.  1.
         13    1    6    6    0    0  0.13510969422E+03  0.56314845162E+02 -0.59945914130E+03  0.61707151397E+03  0.00000000000E+00 0. -1.
        -14    1    6    6    0    0  0.42595185300E+02 -0.13174003969E+01 -0.66302938346E+02  0.78817288635E+02  0.00000000000E+00 0.  1.
</event>
<event>
12    1  0.9873238E-001  0.2210632E+03  0.7818608E-02  0.1133631E+00
         21   -1    0    0  503  502  0.00000000000E+00  0.00000000000E+00  0.43727285586E+02  0.43727285586E+02  0.00000000000E+00 0.  1.
         21   -1    0    0  501  503 -0.00000000000E+00 -0.00000000000E+00 -0.18735476223E+04  0.18735476223E+04  0.00000000000E+00 0.  1.
          6    2    1    2  501    0 -0.13548050896E+03  0.38694368883E+01 -0.15332095190E+04  0.15490643538E+04  0.17463963608E+03 0.  0.
         24    2    3    3    0    0 -0.78283604869E+02  0.38692946770E+02 -0.50016166306E+03  0.51383774809E+03  0.79006805113E+02 0.  0.
         -6    2    1    2    0  502  0.13548050896E+03 -0.38694368883E+01 -0.29661081780E+03  0.36821055408E+03  0.17097103279E+03 0.  0.
        -24    2    5    5    0    0  0.22384877987E+02 -0.46758939762E+02 -0.10594484100E+03  0.14236605910E+03  0.79726433765E+02 0.  0.
          5    1    3    3  501    0 -0.57196904088E+02 -0.34823509882E+02 -0.10330478559E+04  0.10352266058E+04  0.47000000000E+01 0. -1.
        -11    1    4    4    0    0 -0.13055183438E+02 -0.18823176066E+02 -0.45582794712E+02  0.51015105072E+02  0.00000000000E+00 0.  1.
         12    1    4    4    0    0 -0.65228421431E+02  0.57516122836E+02 -0.45457886834E+03  0.46282264302E+03  0.00000000000E+00 0. -1.
         -5    1    5    5    0  502  0.11309563097E+03  0.42889502873E+02 -0.19066597680E+03  0.22584449497E+03  0.47000000000E+01 0.  1.
         13    1    6    6    0    0  0.80630973445E+01  0.22069930700E+02 -0.17049546037E+02  0.29030714768E+02  0.00000000000E+00 0. -1.
        -14    1    6    6    0    0  0.14321780643E+02 -0.68828870461E+02 -0.88895294961E+02  0.11333534434E+03  0.00000000000E+00 0.  1.
</event>
<event>
12    1  0.9873238E-001  0.2428701E+03  0.7818608E-02  0.1117971E+00
         21   -1    0    0  503  502  0.00000000000E+00  0.00000000000E+00  0.50959690632E+03  0.50959690632E+03  0.00000000000E+00 0.  1.
         21   -1    0    0  501  503 -0.00000000000E+00 -0.00000000000E+00 -0.15833087953E+03  0.15833087953E+03  0.00000000000E+00 0.  1.
          6    2    1    2  501    0  0.16500992051E+03  0.39547117320E+02  0.34914513504E+03  0.42504840607E+03  0.17312300199E+03 0.  0.
         24    2    3    3    0    0  0.91084465208E+02 -0.44263479178E+02  0.21834435051E+03  0.25294342571E+03  0.77784868843E+02 0.  0.
         -6    2    1    2    0  502 -0.16500992051E+03 -0.39547117320E+02  0.21208917501E+01  0.24287937978E+03  0.17376319111E+03 0.  0.
        -24    2    5    5    0    0 -0.13697801415E+03 -0.70681967221E+02  0.44374689965E+02  0.18319152410E+03  0.88493528236E+02 0.  0.
          5    1    3    3  501    0  0.73925455306E+02  0.83810596498E+02  0.13080078453E+03  0.17210498035E+03  0.47000000000E+01 0. -1.
        -13    1    4    4    0    0  0.60300180445E+02 -0.44483900804E+02  0.73857624923E+02  0.10521348750E+03  0.00000000000E+00 0.  1.
         14    1    4    4    0    0  0.30784284762E+02  0.22042162580E+00  0.14448672559E+03  0.14772993821E+03  0.00000000000E+00 0. -1.
         -5    1    5    5    0  502 -0.28031906362E+02  0.31134849901E+02 -0.42253798214E+02  0.59687855684E+02  0.47000000000E+01 0.  1.
         11    1    6    6    0    0 -0.74059272251E+02 -0.73364947483E+02 -0.31535158155E+01  0.10429350885E+03  0.00000000000E+00 0. -1.
        -12    1    6    6    0    0 -0.62918741900E+02  0.26829802625E+01  0.47528205780E+02  0.78898015248E+02  0.00000000000E+00 0.  1.
</event>
<event>
12    1  0.9873238E-001  0.2861896E+03  0.7818608E-02  0.1092358E+00
         21   -1    0    0  501  502  0.00000000000E+00  0.00000000000E+00  0.25025253602E+03  0.25025253602E+03  0.00000000000E+00 0. -1.
         21   -1    0    0  502  503 -0.00000000000E+00 -0.00000000000E+00 -0.38542694250E+03  0.38542694250E+03  0.00000000000E+00 0. -1.
         -6    2    1    2    0  503  0.32224248405E+02  0.22584335642E+03 -0.19105030789E+03  0.34408630175E+03  0.17277597947E+03 0.  0.
        -24    2    3    3    0    0 -0.26977317164E+01  0.67636572469E+02 -0.13822456435E+03  0.17361172779E+03  0.80330679986E+02 0.  0.
          6    2    1    2  501    0 -0.32224248405E+02 -0.22584335642E+03  0.55875901398E+02  0.29159317677E+03  0.17280289511E+03 0.  0.
         24    2    5    5    0    0  0.78696056982E+01 -0.22924922221E+03  0.33181016868E+02  0.24515757790E+03  0.79900698009E+02 0.  0.
          5    1    5    5  501    0 -0.40093854103E+02  0.34058657908E+01  0.22694884529E+02  0.46435598870E+02  0.47000000000E+01 0. -1.
        -11    1    6    6    0    0 -0.22865476769E+02 -0.19040845716E+03  0.14874371334E+02  0.19235243047E+03  0.00000000000E+00 0.  1.
         12    1    6    6    0    0  0.30735082467E+02 -0.38840765051E+02  0.18306645534E+02  0.52805147427E+02  0.00000000000E+00 0. -1.
         -5    1    3    3    0  503  0.34921980122E+02  0.15820678395E+03 -0.52825743539E+02  0.17047457395E+03  0.47000000000E+01 0.  1.
         11    1    4    4    0    0 -0.37841633887E+02  0.26048968172E+02 -0.38282878730E+02  0.59800642153E+02  0.00000000000E+00 0. -1.
        -12    1    4    4    0    0  0.35143902170E+02  0.41587604297E+02 -0.99941685616E+02  0.11381108564E+03  0.00000000000E+00 0.  1.
</event>
<event>
12    1  0.9873238E-001  0.1756854E+03  0.7818608E-02  0.1172253E+00
         21   -1    0    0  501  502  0.00000000000E+00  0.00000000000E+00  0.28075750222E+03  0.28075750222E+03  0.00000000000E+00 0. -1.
         21   -1    0    0  502  503 -0.00000000000E+00 -0.00000000000E+00 -0.10969423260E+03  0.10969423260E+03  0.00000000000E+00 0. -1.
         -6    2    1    2    0  503  0.22231657479E+02  0.25933764173E+02  0.75911140930E+02  0.19138406600E+03  0.17233268025E+03 0.  0.
        -24    2    3    3    0    0 -0.40810207117E+02 -0.17508089294E+02  0.13116339808E+02  0.92254109011E+02  0.79792080207E+02 0.  0.
          6    2    1    2  501    0 -0.22231657479E+02 -0.25933764173E+02  0.95152128692E+02  0.19906766882E+03  0.17148528350E+03 0.  0.
         24    2    5    5    0    0 -0.36181602594E+02  0.45067538489E+02  0.74823715599E+02  0.12376082765E+03  0.79862147806E+02 0.  0.
          5    1    5    5  501    0  0.13949945115E+02 -0.71001302661E+02  0.20328413093E+02  0.75306841171E+02  0.47000000000E+01 0. -1.
        -13    1    6    6    0    0 -0.37027019917E+02  0.34329519370E+02  0.91150319251E+02  0.10420123226E+03  0.00000000000E+00 0.  1.
         14    1    6    6    0    0  0.84541732379E+00  0.10738019119E+02 -0.16326603652E+02  0.19559595391E+02  0.00000000000E+00 0. -1.
         -5    1    3    3    0  503  0.63041864596E+02  0.43441853466E+02  0.62794801122E+02  0.99129956988E+02  0.47000000000E+01 0.  1.
         13    1    4    4    0    0  0.57159220062E+00 -0.42114036982E+02 -0.84376668911E+00  0.42126366694E+02  0.00000000000E+00 0. -1.
        -14    1    4    4    0    0 -0.41381799318E+02  0.24605947689E+02  0.13960106497E+02  0.50127742317E+02  0.00000000000E+00 0.  1.
</event>
<event>
12    1  0.9873238E-001  0.2009044E+03  0.7818608E-02  0.1149110E+00
         21   -1    0    0  501  502  0.00000000000E+00  0.00000000000E+00  0.76581822449E+03  0.76581822449E+03  0.00000000000E+00 0. -1.
         21   -1    0    0  502  503 -0.00000000000E+00 -0.00000000000E+00 -0.68700000947E+02  0.68700000947E+02  0.00000000000E+00 0. -1.
         -6    2    1    2    0  503  0.10098320271E+03  0.14439709742E+02  0.55134602390E+03  0.58680918895E+03  0.17307938560E+03 0.  0.
        -24    2    3    3    0    0  0.64889924325E+02 -0.56497826380E+02  0.30682174292E+03  0.32961456855E+03  0.84282116756E+02 0.  0.
          6    2    1    2  501    0 -0.10098320271E+03 -0.14439709742E+02  0.14577219963E+03  0.24770903648E+03  0.17234883266E+03 0.  0.
         24    2    5    5    0    0 -0.46604990659E+02  0.58961297168E+02  0.94343233505E+02  0.14277226352E+03  0.76385952926E+02 0.  0.
          5    1    5    5  501    0 -0.54378212055E+02 -0.73401006910E+02  0.51428966129E+02  0.10493677296E+03  0.47000000000E+01 0. -1.
        -11    1    6    6    0    0  0.76320410645E+01 -0.52824812821E+01 -0.66086620021E+01  0.11394168366E+02  0.00000000000E+00 0.  1.
         12    1    6    6    0    0 -0.54237031724E+02  0.64243778451E+02  0.10095189551E+03  0.13137809515E+03  0.00000000000E+00 0. -1.
         -5    1    3    3    0  503  0.36093278390E+02  0.70937536122E+02  0.24452428098E+03  0.25719462041E+03  0.47000000000E+01 0.  1.
         11    1    4    4    0    0 -0.51229875683E+01 -0.49048993922E+02  0.10901694522E+03  0.11965259359E+03  0.00000000000E+00 0. -1.
        -12    1    4    4    0    0  0.70012911893E+02 -0.74488324584E+01  0.19780479770E+03  0.20996197496E+03  0.00000000000E+00 0.  1.
</event>
<event>
12    1  0.9873238E-001  0.2037268E+03  0.7818608E-02  0.1148407E+00
         21   -1    0    0  503  502  0.00000000000E+00  0.00000000000E+00  0.48068343007E+02  0.48068343007E+02  0.00000000000E+00 0.  1.
         21   -1    0    0  501  503 -0.00000000000E+00 -0.00000000000E+00 -0.82841510394E+03  0.82841510394E+03  0.00000000000E+00 0.  1.
          6    2    1    2  501    0  0.87819181648E+02  0.50799031509E+02 -0.40679329707E+03  0.45495649015E+03  0.17666881761E+03 0.  0.
         24    2    3    3    0    0  0.24110402710E+02  0.78925319672E+02 -0.15024483866E+03  0.18908227531E+03  0.79800236145E+02 0.  0.
         -6    2    1    2    0  502 -0.87819181648E+02 -0.50799031509E+02 -0.37355346386E+03  0.42152695680E+03  0.16688329659E+03 0.  0.
        -24    2    5    5    0    0 -0.42735489791E+02 -0.16943080553E+02 -0.78844840848E+02  0.12143692504E+03  0.80106352856E+02 0.  0.
          5    1    3    3  501    0  0.63708778938E+02 -0.28126288162E+02 -0.25654845841E+03  0.26587421484E+03  0.47000000000E+01 0. -1.
        -13    1    4    4    0    0  0.45704689131E+02  0.62773263211E+02 -0.70419924454E+02  0.10482541172E+03  0.00000000000E+00 0.  1.
         14    1    4    4    0    0 -0.21594286421E+02  0.16152056461E+02 -0.79824914203E+02  0.84256863587E+02  0.00000000000E+00 0. -1.
         -5    1    5    5    0  502 -0.45083691858E+02 -0.33855950957E+02 -0.29470862301E+03  0.30009003176E+03  0.47000000000E+01 0.  1.
         11    1    6    6    0    0  0.53780253441E+01 -0.38518888358E+02 -0.25989472310E+02  0.46776923669E+02  0.00000000000E+00 0. -1.
        -12    1    6    6    0    0 -0.48113515135E+02  0.21575807806E+02 -0.52855368538E+02  0.74660001368E+02  0.00000000000E+00 0.  1.
</event>
<event>
12    1  0.9873238E-001  0.1928673E+03  0.7818608E-02  0.1155945E+00
         21   -1    0    0  503  502  0.00000000000E+00  0.00000000000E+00  0.11243326113E+03  0.11243326113E+03  0.00000000000E+00 0.  1.
         21   -1    0    0  501  503 -0.00000000000E+00 -0.00000000000E+00 -0.47949681413E+03  0.47949681413E+03  0.00000000000E+00 0.  1.
          6    2    1    2  501    0  0.74554092225E+02 -0.44952455361E+02 -0.18481764869E+02  0.19354953132E+03  0.17187440045E+03 0.  0.
         24    2    3    3    0    0  0.79377231193E+02  0.30838335633E+02 -0.78793614674E+01  0.11672500641E+03  0.79441141788E+02 0.  0.
         -6    2    1    2    0  502 -0.74554092225E+02  0.44952455361E+02 -0.34858178813E+03  0.39838054394E+03  0.17210101355E+03 0.  0.
        -24    2    5    5    0    0 -0.10101256723E+03  0.63132720458E+02 -0.33205544005E+03  0.36196923911E+03  0.81065625659E+02 0.  0.
          5    1    3    3  501    0 -0.48231389676E+01 -0.75790790994E+02 -0.10602403401E+02  0.76824524905E+02  0.47000000000E+01 0. -1.
        -11    1    4    4    0    0 -0.13850169807E+02  0.83312180669E+01  0.10224754639E+02  0.19125428246E+02  0.00000000000E+00 0.  1.
         12    1    4    4    0    0  0.93227401000E+02  0.22507117566E+02 -0.18104116107E+02  0.97599578167E+02  0.00000000000E+00 0. -1.
         -5    1    5    5    0  502  0.26458475006E+02 -0.18180265097E+02 -0.16526348078E+02  0.36411304830E+02  0.47000000000E+01 0.  1.
         13    1    6    6    0    0 -0.73178831617E+02  0.60157854004E+02 -0.14748469762E+03  0.17528789128E+03  0.00000000000E+00 0. -1.
        -14    1    6    6    0    0 -0.27833735614E+02  0.29748664537E+01 -0.18457074243E+03  0.18668134783E+03  0.00000000000E+00 0.  1.
</event>
<event>
12    1  0.9873238E-001  0.2001625E+03  0.7818608E-02  0.1149829E+00
         21   -1    0    0  501  502  0.00000000000E+00  0.00000000000E+00  0.40855191064E+03  0.40855191064E+03  0.00000000000E+00 0. -1.
         21   -1    0    0  502  503 -0.00000000000E+00 -0.00000000000E+00 -0.98118145336E+02  0.98118145336E+02  0.00000000000E+00 0. -1.
         -6    2    1    2    0  503  0.64006013503E+02  0.79873559116E+02  0.13534832114E+03  0.24073783265E+03  0.17076000944E+03 0.  0.
        -24    2    3    3    0    0  0.13387644634E+02  0.86983499618E+02  0.28311397775E+02  0.12202909884E+03  0.79650533485E+02 0.  0.
          6    2    1    2  501    0 -0.64006013503E+02 -0.79873559116E+02  0.17508544417E+03  0.26593222332E+03  0.17201302111E+03 0.  0.
         24    2    5    5    0    0 -0.51991932840E+02 -0.85732690720E+02  0.47212446861E+02  0.13727663271E+03  0.81009896988E+02 0.  0.
          5    1    5    5  501    0 -0.12014080663E+02  0.58591316039E+01  0.12787299730E+03  0.12865559062E+03  0.47000000000E+01 0. -1.
        -13    1    6    6    0    0 -0.19794989601E+02 -0.59406512565E+02  0.66579022480E+02  0.91398805150E+02  0.00000000000E+00 0.  1.
         14    1    6    6    0    0 -0.32196943238E+02 -0.26326178155E+02 -0.19366575618E+02  0.45877827556E+02  0.00000000000E+00 0. -1.
         -5    1    3    3    0  503  0.50618368869E+02 -0.71099405025E+01  0.10703692336E+03  0.11870873381E+03  0.47000000000E+01 0.  1.
         11    1    4    4    0    0  0.15410812518E+02  0.77965518540E+01 -0.22166156316E+02  0.28100139663E+02  0.00000000000E+00 0. -1.
        -12    1    4    4    0    0 -0.20231678844E+01  0.79186947764E+02  0.50477554091E+02  0.93928959174E+02  0.00000000000E+00 0.  1.
</event>
<event>
12    1  0.9873238E-001  0.1883161E+03  0.7818608E-02  0.1160741E+00
         21   -1    0    0  501  502  0.00000000000E+00  0.00000000000E+00  0.35616177591E+03  0.35616177591E+03  0.00000000000E+00 0.  1.
         21   -1    0    0  502  503 -0.00000000000E+00 -0.00000000000E+00 -0.99498973697E+02  0.99498973697E+02  0.00000000000E+00 0.  1.
         -6    2    1    2    0  503  0.53101267265E+02  0.57699520459E+02  0.15655795244E+03  0.24239108828E+03  0.16761285141E+03 0.  0.
        -24    2    3    3    0    0  0.10782800570E+02 -0.29261942103E+02  0.10124836826E+03  0.13088149813E+03  0.76851834283E+02 0.  0.
          6    2    1    2  501    0 -0.53101267265E+02 -0.57699520459E+02  0.10010484977E+03  0.21326966133E+03  0.17121328292E+03 0.  0.
         24    2    5    5    0    0 -0.90151137766E+02 -0.82862636078E+02  0.80771709093E+02  0.16426215557E+03  0.73922545037E+02 0.  0.
          5    1    5    5  501    0  0.37049870502E+02  0.25163115619E+02  0.19333140681E+02  0.49007505756E+02  0.47000000000E+01 0. -1.
        -11    1    6    6    0    0 -0.34267063609E+02 -0.21216335547E+02 -0.95880499008E+01  0.41428193822E+02  0.00000000000E+00 0.  1.
         12    1    6    6    0    0 -0.55884074157E+02 -0.61646300531E+02  0.90359758994E+02  0.12283396175E+03  0.00000000000E+00 0. -1.
         -5    1    3    3    0  503  0.42318466694E+02  0.86961462562E+02  0.55309584179E+02  0.11150959015E+03  0.47000000000E+01 0.  1.
         11    1    4    4    0    0  0.80894984016E+01  0.12909708663E+02 -0.54021714785E+01  0.16164282193E+02  0.00000000000E+00 0. -1.
        -12    1    4    4    0    0  0.26933021686E+01 -0.42171650765E+02  0.10665053974E+03  0.11471721593E+03  0.00000000000E+00 0.  1.
</event>
<event>
12    1  0.9873238E-001  0.1778601E+03  0.7818608E-02  0.1169893E+00
         21   -1    0    0  503  502  0.00000000000E+00  0.00000000000E+00  0.85804509328E+03  0.85804509328E+03  0.00000000000E+00 0. -1.
         21   -1    0    0  501  503 -0.00000000000E+00 -0.00000000000E+00 -0.37445760756E+02  0.37445760756E+02  0.00000000000E+00 0. -1.
          6    2    1    2  501    0 -0.35476394490E+02 -0.25703871732E+02  0.35454475688E+03  0.39665110719E+03  0.17236836315E+03 0.  0.
         24    2    3    3    0    0 -0.33363128707E+02  0.51687661106E+02  0.21405163260E+03  0.23616957175E+03  0.78570048572E+02 0.  0.
         -6    2    1    2    0  502  0.35476394490E+02  0.25703871732E+02  0.46605457564E+03  0.49883974685E+03  0.17238028301E+03 0.  0.
        -24    2    5    5    0    0  0.76747148995E+02  0.56724797092E+02  0.35412025244E+03  0.37548272151E+03  0.80487846820E+02 0.  0.
          5    1    3    3  501    0 -0.21132657833E+01 -0.77391532837E+02  0.14049312428E+03  0.16048153544E+03  0.47000000000E+01 0. -1.
        -13    1    4    4    0    0  0.24714468529E+02  0.27013212454E+02  0.74232580610E+02  0.82770735322E+02  0.00000000000E+00 0.  1.
         14    1    4    4    0    0 -0.58077597236E+02  0.24674448651E+02  0.13981905199E+03  0.15339883643E+03  0.00000000000E+00 0. -1.
         -5    1    5    5    0  502 -0.41270754505E+02 -0.31020925360E+02  0.11193432321E+03  0.12335702533E+03  0.47000000000E+01 0.  1.
         13    1    6    6    0    0  0.44383103580E+02  0.31760033204E+02  0.71638001584E+02  0.90058663456E+02  0.00000000000E+00 0. -1.
        -14    1    6    6    0    0  0.32364045415E+02  0.24964763888E+02  0.28248225085E+03  0.28542405806E+03  0.00000000000E+00 0.  1.
</event>
<event>
12    1  0.9873238E-001  0.6115921E+03  0.7818608E-02  0.9881652E-01
         21   -1    0    0  503  502  0.00000000000E+00  0.00000000000E+00  0.67709657340E+03  0.67709657340E+03  0.00000000000E+00 0. -1.
         21   -1    0    0  501  503 -0.00000000000E+00 -0.00000000000E+00 -0.61129147059E+03  0.61129147059E+03  0.00000000000E+00 0. -1.
          6    2    1    2  501    0 -0.19737050326E+03 -0.55263369547E+03 -0.16703002851E+03  0.63399051405E+03  0.17229574736E+03 0.  0.
         24    2    3    3    0    0 -0.21136871777E+03 -0.40983334264E+03 -0.12126117132E+03  0.48330949645E+03  0.79017049392E+02 0.  0.
         -6    2    1    2    0  502  0.19737050326E+03  0.55263369547E+03  0.23283513132E+03  0.65439752994E+03  0.17223475807E+03 0.  0.
        -24    2    5    5    0    0  0.95034801301E+02  0.40510467491E+03  0.11234929805E+03  0.43811915880E+03  0.78642364197E+02 0.  0.
          5    1    3    3  501    0  0.13998214512E+02 -0.14280035283E+03 -0.45768857187E+02  0.15068101760E+03  0.47000000000E+01 0. -1.
        -13    1    4    4    0    0 -0.10552438596E+03 -0.24239231021E+03 -0.32898637594E+02  0.26640523350E+03  0.00000000000E+00 0.  1.
         14    1    4    4    0    0 -0.10584433181E+03 -0.16744103243E+03 -0.88362533725E+02  0.21690426295E+03  0.00000000000E+00 0. -1.
         -5    1    5    5    0  502  0.10233570195E+03  0.14752902056E+03  0.12048583327E+03  0.21627837114E+03  0.47000000000E+01 0.  1.
         11    1    6    6    0    0  0.57595215022E+01  0.16314010911E+02  0.23929300699E+02  0.29528468837E+02  0.00000000000E+00 0. -1.
        -12    1    6    6    0    0  0.89275279799E+02  0.38879066400E+03  0.88419997351E+02  0.40859068996E+03  0.00000000000E+00 0.  1.
</event>
<event>
12    1  0.1491360E+000  0.2227086E+03  0.7818608E-02  0.1132140E+00
         21   -1    0    0  501  502  0.00000000000E+00  0.00000000000E+00  0.21772284877E+03  0.21772284877E+03  0.00000000000E+00 0.  1.
         21   -1    0    0  502  503 -0.00000000000E+00 -0.00000000000E+00 -0.17137875452E+04  0.17137875452E+04  0.00000000000E+00 0.  1.
         -6    2    1    2    0  503 -0.85166816121E+02  0.11146775935E+03  0.15136939275E+03  0.26928017760E+03  0.17297593198E+03 0.  0.
        -24    2    3    3    0    0  0.28874351201E+01  0.89427450353E+02  0.12895175638E+03  0.17566411700E+03  0.78890559445E+02 0.  0.
          6    2    1    2  501    0  0.85166816121E+02 -0.11146775935E+03 -0.16474340891E+04  0.16622302163E+04  0.17114837439E+03 0.  0.
         24    2    5    5    0    0  0.63939274357E+02  0.90033108294E+01 -0.58792779703E+03  0.59567521994E+03  0.70714798484E+02 0.  0.
          5    1    5    5  501    0  0.21227541763E+02 -0.12047107018E+03 -0.10595062921E+04  0.10665549964E+04  0.47000000000E+01 0. -1.
        -13    1    6    6    0    0  0.59016453899E+02  0.44850600900E+01 -0.58562395564E+03  0.58860723323E+03  0.00000000000E+00 0.  1.
         14    1    6    6    0    0  0.49228204580E+01  0.45182507394E+01 -0.23038413897E+01  0.70679867115E+01  0.00000000000E+00 0. -1.
         -5    1    3    3    0  503 -0.88054251241E+02  0.22040308998E+02  0.22417636374E+02  0.93616060603E+02  0.47000000000E+01 0.  1.
         13    1    4    4    0    0  0.21559514029E+02  0.65375459820E+02  0.35655393593E+02  0.77524644366E+02  0.00000000000E+00 0. -1.
        -14    1    4    4    0    0 -0.18672078909E+02  0.24051990533E+02  0.93296362787E+02  0.98139472633E+02  0.00000000000E+00 0.  1.
</event>
<event>
12    1  0.9873238E-001  0.1889108E+03  0.7818608E-02  0.1159647E+00
         21   -1    0    0  501  502  0.00000000000E+00  0.00000000000E+00  0.49727576715E+03  0.49727576715E+03  0.00000000000E+00 0.  1.
         21   -1    0    0  502  503 -0.00000000000E+00 -0.00000000000E+00 -0.72199435314E+02  0.72199435314E+02  0.00000000000E+00 0.  1.
         -6    2    1    2    0  503 -0.74872394520E+02  0.11129686443E+02  0.18270649523E+03  0.26217984244E+03  0.17212455084E+03 0.  0.
        -24    2    3    3    0    0 -0.19630111207E+02 -0.70074051779E+01  0.18737523927E+03  0.20366017798E+03  0.77029493129E+02 0.  0.
          6    2    1    2  501    0  0.74872394520E+02 -0.11129686443E+02  0.24236983661E+03  0.30729536002E+03  0.17308250984E+03 0.  0.
         24    2    5    5    0    0  0.74320679624E+02 -0.18369113948E+02  0.58183746861E+02  0.12290631654E+03  0.76548197104E+02 0.  0.
          5    1    5    5  501    0  0.55171489618E+00  0.72394275047E+01  0.18418608975E+03  0.18438904348E+03  0.47000000000E+01 0. -1.
        -13    1    6    6    0    0  0.20192888232E+02  0.21640336845E+02  0.45701897959E+02  0.54449246010E+02  0.00000000000E+00 0.  1.
         14    1    6    6    0    0  0.54127791391E+02 -0.40009450793E+02  0.12481848902E+02  0.68457070531E+02  0.00000000000E+00 0. -1.
         -5    1    3    3    0  503 -0.55242283312E+02  0.18137091621E+02 -0.46687440364E+01  0.58519664464E+02  0.47000000000E+01 0.  1.
         11    1    4    4    0    0 -0.49319685111E+02 -0.84783379415E+01  0.11480616706E+03  0.12523885000E+03  0.00000000000E+00 0. -1.
        -12    1    4    4    0    0  0.29689573904E+02  0.14709327636E+01  0.72569072202E+02  0.78421327979E+02  0.00000000000E+00 0.  1.
</event>
<event>
12    1  0.9873238E-001  0.2141463E+03  0.7818608E-02  0.1138511E+00
         21   -1    0    0  503  502  0.00000000000E+00  0.00000000000E+00  0.50247821766E+03  0.50247821766E+03  0.00000000000E+00 0. -1.
         21   -1    0    0  501  503 -0.00000000000E+00 -0.00000000000E+00 -0.11517726362E+03  0.11517726362E+03  0.00000000000E+00 0. -1.
          6    2    1    2  501    0 -0.11400317997E+03  0.56725314631E+02  0.33522482036E+03  0.39726814168E+03  0.17097312609E+03 0.  0.
         24    2    3    3    0    0 -0.46978401673E+02  0.92971956884E+02  0.25312875318E+03  0.28516107577E+03  0.79949474411E+02 0.  0.
         -6    2    1    2    0  502  0.11400317997E+03 -0.56725314631E+02  0.52076133684E+02  0.22038733959E+03  0.17217482217E+03 0.  0.
        -24    2    5    5    0    0  0.16662041185E+02  0.18849474322E+02  0.49719231243E+02  0.97040304705E+02  0.79447419614E+02 0.  0.
          5    1    3    3  501    0 -0.67024778301E+02 -0.36246642253E+02  0.82096067186E+02  0.11210706592E+03  0.47000000000E+01 0. -1.
        -11    1    4    4    0    0 -0.52958364568E+02  0.24400190295E+02  0.81211426655E+02  0.99976264601E+02  0.00000000000E+00 0.  1.
         12    1    4    4    0    0  0.59799628946E+01  0.68571766589E+02  0.17191732652E+03  0.18518481117E+03  0.00000000000E+00 0. -1.
         -5    1    5    5    0  502  0.97341138789E+02 -0.75574788953E+02  0.23569024412E+01  0.12334703489E+03  0.47000000000E+01 0.  1.
         11    1    6    6    0    0  0.14551285549E+01 -0.25164597330E+02 -0.44607638925E+01  0.25598296279E+02  0.00000000000E+00 0. -1.
        -12    1    6    6    0    0  0.15206912630E+02  0.44014071652E+02  0.54179995135E+02  0.71442008426E+02  0.00000000000E+00 0.  1.
</event>
<event>
12    1  0.9873238E-001  0.2753769E+03  0.7818608E-02  0.1098360E+00
         21   -1    0    0  501  502  0.00000000000E+00  0.00000000000E+00  0.42572253881E+03  0.42572253881E+03  0.00000000000E+00 0.  1.
         21   -1    0    0  502  503 -0.00000000000E+00 -0.00000000000E+00 -0.22099337576E+03  0.22099337576E+03  0.00000000000E+00 0. -1.
         -6    2    1    2    0  503  0.17324203410E+03  0.12701423462E+03  0.24556262784E+03  0.36832806357E+03  0.17093607004E+03 0.  0.
        -24    2    3    3    0    0  0.16869631783E+02  0.37236429461E+02  0.55291076479E+02  0.10614923955E+03  0.80866691306E+02 0.  0.
          6    2    1    2  501    0 -0.17324203410E+03 -0.12701423462E+03 -0.40833464794E+02  0.27838785100E+03  0.17229917458E+03 0.  0.
         24    2    5    5    0    0 -0.13156620342E+03 -0.99730826362E+02  0.34171132966E+02  0.18822666803E+03  0.83700111226E+02 0.  0.
          5    1    5    5  501    0 -0.41675830681E+02 -0.27283408255E+02 -0.75004597760E+02  0.90161182967E+02  0.47000000000E+01 0. -1.
        -13    1    6    6    0    0 -0.86785450307E+02 -0.10216787852E+03  0.38802315539E+01  0.13410833674E+03  0.00000000000E+00 0.  1.
         14    1    6    6    0    0 -0.44780753117E+02  0.24370521614E+01  0.30290901412E+02  0.54118331287E+02  0.00000000000E+00 0. -1.
         -5    1    3    3    0  503  0.15637240232E+03  0.89777805157E+02  0.19027155137E+03  0.26217882402E+03  0.47000000000E+01 0.  1.
         11    1    4    4    0    0  0.20966555260E+02  0.11349162839E+02 -0.16981739594E+02  0.29270794595E+02  0.00000000000E+00 0. -1.
        -12    1    4    4    0    0 -0.40969234763E+01  0.25887266622E+02  0.72272816073E+02  0.76878444952E+02  0.00000000000E+00 0.  1.
</event>
<event>
12    1  0.9873238E-001  0.3545279E+03  0.7818608E-02  0.1060899E+00
         21   -1    0    0  501  502  0.00000000000E+00  0.00000000000E+00  0.22353720464E+03  0.22353720464E+03  0.00000000000E+00 0. -1.
         21   -1    0    0  502  503 -0.00000000000E+00 -0.00000000000E+00 -0.11105282992E+04  0.11105282992E+04  0.00000000000E+00 0. -1.
         -6    2    1    2    0  503  0.21356127480E+03 -0.22173444534E+03 -0.91262420787E+03  0.97861215480E+03  0.17327499068E+03 0.  0.
        -24    2    3    3    0    0  0.32573590863E+02 -0.91816911419E+02 -0.41186042000E+03  0.43050489468E+03  0.78829402746E+02 0.  0.
          6    2    1    2  501    0 -0.21356127480E+03  0.22173444534E+03  0.25633113291E+02  0.35545334907E+03  0.17582788323E+03 0.  0.
         24    2    5    5    0    0 -0.75227195625E+02  0.25494116263E+02  0.20957640667E+02  0.11526481008E+03  0.80855876806E+02 0.  0.
          5    1    5    5  501    0 -0.13833407917E+03  0.19624032908E+03  0.46754726234E+01  0.24018853899E+03  0.47000000000E+01 0. -1.
        -11    1    6    6    0    0 -0.47078583899E+01  0.34075151595E+02  0.27338336974E+02  0.43939328117E+02  0.00000000000E+00 0.  1.
         12    1    6    6    0    0 -0.70519337235E+02 -0.85810353319E+01 -0.63806963067E+01  0.71325481960E+02  0.00000000000E+00 0. -1.
         -5    1    3    3    0  503  0.18098768394E+03 -0.12991753392E+03 -0.50076378787E+03  0.54810726012E+03  0.47000000000E+01 0.  1.
         11    1    4    4    0    0  0.94148482458E+01  0.22603963489E+01 -0.16542642640E+03  0.16570953898E+03  0.00000000000E+00 0. -1.
        -12    1    4    4    0    0  0.23158742617E+02 -0.94077307768E+02 -0.24643399360E+03  0.26479535570E+03  0.00000000000E+00 0.  1.
</event>
<event>
12    1  0.9873238E-001  0.2098076E+03  0.7818608E-02  0.1142222E+00
         21   -1    0    0  501  502  0.00000000000E+00  0.00000000000E+00  0.63832107175E+02  0.63832107175E+02  0.00000000000E+00 0.  1.
         21   -1    0    0  502  503 -0.00000000000E+00 -0.00000000000E+00 -0.72873686700E+03  0.72873686700E+03  0.00000000000E+00 0. -1.
         -6    2    1    2    0  503  0.17989423321E+02 -0.11366086927E+03 -0.23327148453E+03  0.31374321453E+03  0.17543319701E+03 0.  0.
        -24    2    3    3    0    0 -0.17733470648E+02 -0.12261533903E+03 -0.23488526115E+03  0.27658137984E+03  0.77312200991E+02 0.  0.
          6    2    1    2  501    0 -0.17989423321E+02  0.11366086927E+03 -0.43163327529E+03  0.47882575964E+03  0.17240768895E+03 0.  0.
         24    2    5    5    0    0 -0.54886869023E+02  0.47764775045E+02 -0.35553783154E+03  0.37151162594E+03  0.79496518337E+02 0.  0.
          5    1    5    5  501    0  0.36897445702E+02  0.65896094220E+02 -0.76095443751E+02  0.10731413370E+03  0.47000000000E+01 0. -1.
        -11    1    6    6    0    0  0.64422047901E+01  0.43143212502E+02 -0.10867886715E+03  0.11710651114E+03  0.00000000000E+00 0.  1.
         12    1    6    6    0    0 -0.61329073813E+02  0.46215625432E+01 -0.24685896439E+03  0.25440511480E+03  0.00000000000E+00 0. -1.
         -5    1    3    3    0  503  0.35722893969E+02  0.89544697637E+01  0.16137766211E+01  0.37161834686E+02  0.47000000000E+01 0.  1.
         13    1    4    4    0    0  0.12525799098E+02  0.59310092379E+01 -0.19223248146E+02  0.23698223202E+02  0.00000000000E+00 0. -1.
        -14    1    4    4    0    0 -0.30259269746E+02 -0.12854634827E+03 -0.21566201300E+03  0.25288315664E+03  0.00000000000E+00 0.  1.
</event>
<event>
12    1  0.9873238E-001  0.1854208E+03  0.7818608E-02  0.1163206E+00
         21   -1    0    0  503  502  0.00000000000E+00  0.00000000000E+00  0.16080676124E+03  0.16080676124E+03  0.00000000000E+00 0.  1.
         21   -1    0    0  501  503 -0.00000000000E+00 -0.00000000000E+00 -0.28209862183E+03  0.28209862183E+03  0.00000000000E+00 0.  1.
          6    2    1    2  501    0  0.56851125736E+02 -0.32365769591E+02  0.50727209772E+02  0.18997960531E+03  0.17099534229E+03 0.  0.
         24    2    3    3    0    0 -0.24744192059E+02 -0.19041264461E+02 -0.12578752411E+02  0.85743943604E+02  0.78860345293E+02 0.  0.
         -6    2    1    2    0  502 -0.56851125736E+02  0.32365769591E+02 -0.17201907036E+03  0.25292577776E+03  0.17349724767E+03 0.  0.
        -24    2    5    5    0    0 -0.71742527618E+02 -0.38963119513E+02 -0.12682315192E+03  0.16705188583E+03  0.71812991485E+02 0.  0.
          5    1    3    3  501    0  0.81595317795E+02 -0.13324505130E+02  0.63305962183E+02  0.10423566170E+03  0.47000000000E+01 0. -1.
        -11    1    4    4    0    0  0.86928611317E+00  0.24105450773E+02  0.15082048839E+02  0.28448138999E+02  0.00000000000E+00 0.  1.
         12    1    4    4    0    0 -0.25613478172E+02 -0.43146715234E+02 -0.27660801250E+02  0.57295804605E+02  0.00000000000E+00 0. -1.
         -5    1    5    5    0  502  0.14891401882E+02  0.71328889104E+02 -0.45195918441E+02  0.85873891926E+02  0.47000000000E+01 0.  1.
         11    1    6    6    0    0 -0.64332731416E+02 -0.62884233931E+01 -0.45357156854E+02  0.78965285272E+02  0.00000000000E+00 0. -1.
        -12    1    6    6    0    0 -0.74097962021E+01 -0.32674696120E+02 -0.81465995064E+02  0.88086600559E+02  0.00000000000E+00 0.  1.
</event>
<event>
12    1  0.9873238E-001  0.2849611E+03  0.7818608E-02  0.1093241E+00
         21   -1    0    0  503  502  0.00000000000E+00  0.00000000000E+00  0.17145194246E+03  0.17145194246E+03  0.00000000000E+00 0.  1.
         21   -1    0    0  501  503 -0.00000000000E+00 -0.00000000000E+00 -0.49386786157E+03  0.49386786157E+03  0.00000000000E+00 0. -1.
          6    2    1    2  501    0 -0.22775320509E+03  0.97416028751E+01 -0.23363280881E+03  0.36849300178E+03  0.17098649581E+03 0.  0.
         24    2    3    3    0    0 -0.21556529416E+03  0.26789457407E+02 -0.13554571567E+03  0.26808213405E+03  0.79431218599E+02 0.  0.
         -6    2    1    2    0  502  0.22775320509E+03 -0.97416028751E+01 -0.88783110301E+02  0.29682680224E+03  0.16809904402E+03 0.  0.
        -24    2    5    5    0    0  0.20841645704E+03 -0.51347342463E+02 -0.98435950479E+02  0.24970764780E+03  0.81180686623E+02 0.  0.
          5    1    3    3  501    0 -0.12187910937E+02 -0.17047854532E+02 -0.98087093141E+02  0.10041086773E+03  0.47000000000E+01 0. -1.
        -13    1    4    4    0    0 -0.16978820739E+03 -0.13469657123E+01 -0.13042887859E+03  0.21410638023E+03  0.00000000000E+00 0.  1.
         14    1    4    4    0    0 -0.45777086768E+02  0.28136423120E+02 -0.51168370813E+01  0.53975753822E+02  0.00000000000E+00 0. -1.
         -5    1    5    5    0  502  0.19336748052E+02  0.41605739587E+02  0.96528401785E+01  0.47119154443E+02  0.47000000000E+01 0.  1.
         13    1    6    6    0    0  0.47959964142E+02  0.12722071960E+02 -0.49612083803E+02  0.70166716716E+02  0.00000000000E+00 0. -1.
        -14    1    6    6    0    0  0.16045649290E+03 -0.64069414423E+02 -0.48823866676E+02  0.17954093109E+03  0.00000000000E+00 0.  1.
</event>
<event>
12    1  0.9873238E-001  0.1881231E+03  0.7818608E-02  0.1160318E+00
         21   -1    0    0  501  502  0.00000000000E+00  0.00000000000E+00  0.13238455940E+03  0.13238455940E+03  0.00000000000E+00 0.  1.
         21   -1    0    0  502  503 -0.00000000000E+00 -0.00000000000E+00 -0.26688490979E+03  0.26688490979E+03  0.00000000000E+00 0.  1.
         -6    2    1    2    0  503  0.65640401691E+02  0.37776953549E+02 -0.75827175062E+02  0.20220892755E+03  0.17147282394E+03 0.  0.
        -24    2    3    3    0    0  0.61096458947E+02  0.57366921458E+02  0.71981193767E+01  0.11665366018E+03  0.80824022033E+02 0.  0.
          6    2    1    2  501    0 -0.65640401691E+02 -0.37776953549E+02 -0.58673175326E+02  0.19706054164E+03  0.17220497965E+03 0.  0.
         24    2    5    5    0    0 -0.27582768405E+02  0.25394380846E+02 -0.82319269999E+02  0.11947040867E+03  0.78045068030E+02 0.  0.
          5    1    5    5  501    0 -0.38057633286E+02 -0.63171334395E+02  0.23646094672E+02  0.77590132967E+02  0.47000000000E+01 0. -1.
        -13    1    6    6    0    0  0.25948148443E+02 -0.27464840855E+01 -0.23849331263E+02  0.35350250129E+02  0.00000000000E+00 0.  1.
         14    1    6    6    0    0 -0.53530916848E+02  0.28140864932E+02 -0.58469938735E+02  0.84120158544E+02  0.00000000000E+00 0. -1.
         -5    1    3    3    0  503  0.45439427440E+01 -0.19589967909E+02 -0.83025294439E+02  0.85555267371E+02  0.47000000000E+01 0.  1.
         11    1    4    4    0    0 -0.57644574378E+01  0.17467138445E+02 -0.26133728616E+02  0.31957810726E+02  0.00000000000E+00 0. -1.
        -12    1    4    4    0    0  0.66860916385E+02  0.39899783013E+02  0.33331847993E+02  0.84695849455E+02  0.00000000000E+00 0.  1.
</event>
<event>
12    1  0.9873238E-001  0.3408569E+03  0.7818608E-02  0.1066479E+00
         21   -1    0    0  503  502  0.00000000000E+00  0.00000000000E+00  0.66792861846E+03  0.66792861846E+03  0.00000000000E+00 0. -1.
         21   -1    0    0  501  503 -0.00000000000E+00 -0.00000000000E+00 -0.29838573688E+03  0.29838573688E+03  0.00000000000E+00 0. -1.
          6    2    1    2  501    0  0.15063627010E+03  0.25253224439E+03 -0.12760283105E+03  0.36353969647E+03  0.17150745783E+03 0.  0.
         24    2    3    3    0    0  0.20425736561E+02  0.43020050083E+02 -0.31732696852E+02  0.98844937856E+02  0.80594182588E+02 0.  0.
         -6    2    1    2    0  502 -0.15063627010E+03 -0.25253224439E+03  0.49714571263E+03  0.60277465887E+03  0.17239376281E+03 0.  0.
        -24    2    5    5    0    0 -0.18639787095E+02 -0.33819465938E+02  0.10579915607E+03  0.13540695746E+03  0.75169041264E+02 0.  0.
          5    1    3    3  501    0  0.13021053354E+03  0.20951219431E+03 -0.95870134197E+02  0.26469475862E+03  0.47000000000E+01 0. -1.
        -11    1    4    4    0    0  0.78342273190E+01  0.64939784156E+02 -0.33527046112E+02  0.73502472781E+02  0.00000000000E+00 0.  1.
         12    1    4    4    0    0  0.12591509242E+02 -0.21919734073E+02  0.17943492600E+01  0.25342465075E+02  0.00000000000E+00 0. -1.
         -5    1    5    5    0  502 -0.13199648300E+03 -0.21871277845E+03  0.39134655656E+03  0.46736770141E+03  0.47000000000E+01 0.  1.
         13    1    6    6    0    0 -0.32186099033E+01 -0.54655169562E+02  0.51168510073E+02  0.74938397585E+02  0.00000000000E+00 0. -1.
        -14    1    6    6    0    0 -0.15421177192E+02  0.20835703623E+02  0.54630645999E+02  0.60468559878E+02  0.00000000000E+00 0.  1.
</event>
<event>
12    1  0.9873238E-001  0.1853948E+03  0.7818608E-02  0.1163377E+00
         21   -1    0    0  503  502  0.00000000000E+00  0.00000000000E+00  0.68725663299E+03  0.68725663299E+03  0.00000000000E+00 0. -1.
         21   -1    0    0  501  503 -0.00000000000E+00 -0.00000000000E+00 -0.49219121183E+02  0.49219121183E+02  0.00000000000E+00 0. -1.
          6    2    1    2  501    0  0.23183941673E+02 -0.59591093095E+02  0.31922050794E+03  0.36767292495E+03  0.17085974810E+03 0.  0.
         24    2    3    3    0    0 -0.40346421464E+02 -0.62059716425E+02  0.27552735541E+03  0.29038526280E+03  0.54120561227E+02 0.  0.
         -6    2    1    2    0  502 -0.23183941673E+02  0.59591093095E+02  0.31881700387E+03  0.36880282923E+03  0.17401911206E+03 0.  0.
        -24    2    5    5    0    0 -0.32916180678E+02 -0.28213413333E+02  0.21047339866E+03  0.22892869075E+03  0.78929223128E+02 0.  0.
          5    1    3    3  501    0  0.63530363136E+02  0.24686233305E+01  0.43693152532E+02  0.77287662144E+02  0.47000000000E+01 0. -1.
        -13    1    4    4    0    0  0.46366935751E+01 -0.39841641982E+02  0.14813903490E+03  0.15347321924E+03  0.00000000000E+00 0.  1.
         14    1    4    4    0    0 -0.44983115039E+02 -0.22218074443E+02  0.12738832051E+03  0.13691204356E+03  0.00000000000E+00 0. -1.
         -5    1    5    5    0  502  0.97322390051E+01  0.87804506428E+02  0.10834360521E+03  0.13987413848E+03  0.47000000000E+01 0.  1.
         11    1    6    6    0    0  0.19637266509E+02  0.97310390705E+01  0.29887779491E+02  0.37062038803E+02  0.00000000000E+00 0. -1.
        -12    1    6    6    0    0 -0.52553447187E+02 -0.37944452403E+02  0.18058561917E+03  0.19186665195E+03  0.00000000000E+00 0.  1.
</event>
<event>
12    1  0.9873238E-001  0.1790294E+03  0.7818608E-02  0.1169045E+00
         21   -1    0    0  503  502  0.00000000000E+00  0.00000000000E+00  0.58623371071E+02  0.58623371071E+02  0.00000000000E+00 0. -1.
         21   -1    0    0  501  503 -0.00000000000E+00 -0.00000000000E+00 -0.67296960533E+03  0.67296960533E+03  0.00000000000E+00 0. -1.
          6    2    1    2  501    0  0.43893299143E+02 -0.23072296010E+01 -0.14556935093E+03  0.22979293377E+03  0.17228584232E+03 0.  0.
         24    2    3    3    0    0  0.25920777371E+02  0.61748446833E+02 -0.60823104016E+02  0.12194972542E+03  0.81777308350E+02 0.  0.
         -6    2    1    2    0  502 -0.43893299143E+02  0.23072296010E+01 -0.46877688333E+03  0.50180004263E+03  0.17354991047E+03 0.  0.
        -24    2    5    5    0    0 -0.80924468451E+02  0.44682362850E+02 -0.29501898020E+03  0.31909575063E+03  0.78997571128E+02 0.  0.
          5    1    3    3  501    0  0.17972521772E+02 -0.64055676434E+02 -0.84746246912E+02  0.10784320835E+03  0.47000000000E+01 0. -1.
        -11    1    4    4    0    0 -0.43027381488E-01  0.18273814695E+02  0.19673118390E+02  0.26850805240E+02  0.00000000000E+00 0.  1.
         12    1    4    4    0    0  0.25963804752E+02  0.43474632138E+02 -0.80496222407E+02  0.95098920175E+02  0.00000000000E+00 0. -1.
         -5    1    5    5    0  502  0.37031169307E+02 -0.42375133249E+02 -0.17375790313E+03  0.18270429201E+03  0.47000000000E+01 0.  1.
         13    1    6    6    0    0 -0.33110875694E+02  0.28554597025E+02 -0.24193988934E+03  0.24585891311E+03  0.00000000000E+00 0. -1.
        -14    1    6    6    0    0 -0.47813592756E+02  0.16127765825E+02 -0.53079090857E+02  0.73236837514E+02  0.00000000000E+00 0.  1.
</event>
<event>
12    1  0.9873238E-001  0.2902266E+03  0.7818608E-02  0.1090309E+00
         21   -1    0    0  503  502  0.00000000000E+00  0.00000000000E+00  0.11790456460E+04  0.11790456460E+04  0.00000000000E+00 0.  1.
         21   -1    0    0  501  503 -0.00000000000E+00 -0.00000000000E+00 -0.71332998230E+02  0.71332998230E+02  0.00000000000E+00 0.  1.
          6    2    1    2  501    0  0.23069929949E+03 -0.38670892327E+02  0.53849191961E+03  0.61143911193E+03  0.17078242129E+03 0.  0.
         24    2    3    3    0    0  0.38834337347E+02 -0.37233474706E+02  0.18855480281E+03  0.21232471032E+03  0.81452019937E+02 0.  0.
         -6    2    1    2    0  502 -0.23069929949E+03  0.38670892327E+02  0.56922072818E+03  0.63893953231E+03  0.17179605312E+03 0.  0.
        -24    2    5    5    0    0 -0.64039920717E+02  0.54842269000E+02  0.16779579597E+03  0.20396720198E+03  0.79614096893E+02 0.  0.
          5    1    3    3  501    0  0.19186496214E+03 -0.14374176208E+01  0.34993711679E+03  0.39911440161E+03  0.47000000000E+01 0. -1.
        -13    1    4    4    0    0 -0.95653293978E+01 -0.28690147989E+02  0.18826576149E+02  0.35623869633E+02  0.00000000000E+00 0.  1.
         14    1    4    4    0    0  0.48399666745E+02 -0.85433267175E+01  0.16972822666E+03  0.17670084068E+03  0.00000000000E+00 0. -1.
         -5    1    5    5    0  502 -0.16665937877E+03 -0.16171376672E+02  0.40142493221E+03  0.43497233033E+03  0.47000000000E+01 0.  1.
         11    1    6    6    0    0 -0.52890011160E+02  0.37669533037E+02  0.17130051588E+03  0.18319446973E+03  0.00000000000E+00 0. -1.
        -12    1    6    6    0    0 -0.11149909557E+02  0.17172735963E+02 -0.35047199064E+01  0.20772732252E+02  0.00000000000E+00 0.  1.
</event>
<event>
12    1  0.9873238E-001  0.5405906E+03  0.7818608E-02  0.1003735E+00
         21   -1    0    0  501  502  0.00000000000E+00  0.00000000000E+00  0.37205430738E+04  0.37205430738E+04  0.00000000000E+00 0. -1.
         21   -1    0    0  502  503 -0.00000000000E+00 -0.00000000000E+00 -0.11625871412E+03  0.11625871412E+03  0.00000000000E+00 0. -1.
         -6    2    1    2    0  503  0.50839594637E+03 -0.60782189954E+02  0.70888222758E+03  0.89148874926E+03  0.17342798096E+03 0.  0.
        -24    2    3    3    0    0  0.24636598919E+03 -0.21815307822E+02  0.24703166523E+03  0.35903579519E+03  0.81914286378E+02 0.  0.
          6    2    1    2  501    0 -0.50839594637E+03  0.60782189954E+02  0.28954021321E+04  0.29453130387E+04  0.17133148044E+03 0.  0.
         24    2    5    5    0    0 -0.32555646854E+03  0.19517439017E+02  0.21836657971E+04  0.22092941837E+04  0.78844986933E+02 0.  0.
          5    1    5    5  501    0 -0.18283947783E+03  0.41264750937E+02  0.71173633500E+03  0.73601885498E+03  0.47000000000E+01 0. -1.
        -13    1    6    6    0    0 -0.15680424795E+03  0.85012950770E+01  0.79429780658E+03  0.80967206307E+03  0.00000000000E+00 0.  1.
         14    1    6    6    0    0 -0.16875222059E+03  0.11016143940E+02  0.13893679905E+04  0.13996221206E+04  0.00000000000E+00 0. -1.
         -5    1    3    3    0  503  0.26202995718E+03 -0.38966882132E+02  0.46185056234E+03  0.53245295407E+03  0.47000000000E+01 0.  1.
         13    1    4    4    0    0  0.12259628688E+03 -0.49008616899E+02  0.10500666603E+03  0.16869526964E+03  0.00000000000E+00 0. -1.
        -14    1    4    4    0    0  0.12376970231E+03  0.27193309076E+02  0.14202499920E+03  0.19034052555E+03  0.00000000000E+00 0.  1.
</event>
<event>
12    1  0.9873238E-001  0.2427476E+03  0.7818608E-02  0.1119148E+00
         21   -1    0    0  501  502  0.00000000000E+00  0.00000000000E+00  0.93125610936E+02  0.93125610936E+02  0.00000000000E+00 0.  1.
         21   -1    0    0  502  503 -0.00000000000E+00 -0.00000000000E+00 -0.13026969642E+04  0.13026969642E+04  0.00000000000E+00 0.  1.
         -6    2    1    2    0  503  0.13095204242E+03 -0.94744213205E+02 -0.10176467218E+03  0.26321555163E+03  0.18111177423E+03 0.  0.
        -24    2    3    3    0    0  0.15933590726E+03 -0.94096846745E+02 -0.11455500692E+03  0.23172356011E+03  0.79566392334E+02 0.  0.
          6    2    1    2  501    0 -0.13095204242E+03  0.94744213205E+02 -0.11078066811E+04  0.11326070235E+04  0.17157541693E+03 0.  0.
         24    2    5    5    0    0 -0.42267582982E+02  0.10751659396E+03 -0.74785078050E+03  0.76163747298E+03  0.86397244167E+02 0.  0.
          5    1    5    5  501    0 -0.88684459437E+02 -0.12772380755E+02 -0.35995590057E+03  0.37096955052E+03  0.47000000000E+01 0. -1.
        -13    1    6    6    0    0 -0.31816216770E+02  0.11214186212E+03 -0.73599837579E+03  0.74517224724E+03  0.00000000000E+00 0.  1.
         14    1    6    6    0    0 -0.10451366211E+02 -0.46252681610E+01 -0.11852404717E+02  0.16465225745E+02  0.00000000000E+00 0. -1.
         -5    1    3    3    0  503 -0.28383864841E+02 -0.64736645954E+00  0.12790334747E+02  0.31491991515E+02  0.47000000000E+01 0.  1.
         11    1    4    4    0    0  0.40533029065E+02 -0.61634113300E+02 -0.19933423576E+02  0.76413557324E+02  0.00000000000E+00 0. -1.
        -12    1    4    4    0    0  0.11880287819E+03 -0.32462733445E+02 -0.94621583348E+02  0.15531000279E+03  0.00000000000E+00 0.  1.
</event>
<event>
12    1  0.9873238E-001  0.2556808E+03  0.7818608E-02  0.1109840E+00
         21   -1    0    0  503  502  0.00000000000E+00  0.00000000000E+00  0.73662972952E+03  0.73662972952E+03  0.00000000000E+00 0.  1.
         21   -1    0    0  501  503 -0.00000000000E+00 -0.00000000000E+00 -0.16650356077E+03  0.16650356077E+03  0.00000000000E+00 0. -1.
          6    2    1    2  501    0 -0.25680655509E+02  0.18764557459E+03  0.59412846917E+03  0.64680857667E+03  0.17176245007E+03 0.  0.
         24    2    3    3    0    0  0.47009892863E+02  0.12596805018E+03  0.30893770562E+03  0.34606966258E+03  0.79017882212E+02 0.  0.
         -6    2    1    2    0  502  0.25680655509E+02 -0.18764557459E+03 -0.24002300415E+02  0.25632471362E+03  0.17104353438E+03 0.  0.
        -24    2    5    5    0    0 -0.51644796864E+02 -0.11239115597E+03 -0.18113152699E+02  0.14816175708E+03  0.79529007136E+02 0.  0.
          5    1    3    3  501    0 -0.72690548371E+02  0.61677524415E+02  0.28519076355E+03  0.30073891410E+03  0.47000000000E+01 0. -1.
        -11    1    4    4    0    0  0.15218522153E+02  0.12243551833E+03  0.23246815228E+03  0.26317959911E+03  0.00000000000E+00 0.  1.
         12    1    4    4    0    0  0.31791370710E+02  0.35325318501E+01  0.76469553343E+02  0.82890063466E+02  0.00000000000E+00 0. -1.
         -5    1    5    5    0  502  0.77325452372E+02 -0.75254418620E+02 -0.58891477165E+01  0.10816295654E+03  0.47000000000E+01 0.  1.
         13    1    6    6    0    0 -0.40833744544E+02 -0.34622284722E+02  0.24445077420E+02  0.58852859769E+02  0.00000000000E+00 0. -1.
        -14    1    6    6    0    0 -0.10811052319E+02 -0.77768871252E+02 -0.42558230119E+02  0.89308897311E+02  0.00000000000E+00 0.  1.
</event>
<event>
12    1  0.9873238E-001  0.1830318E+03  0.7818608E-02  0.1165541E+00
         21   -1    0    0  501  502  0.00000000000E+00  0.00000000000E+00  0.25848703161E+03  0.25848703161E+03  0.00000000000E+00 0.  1.
         21   -1    0    0  502  503 -0.00000000000E+00 -0.00000000000E+00 -0.23268958317E+03  0.23268958317E+03  0.00000000000E+00 0.  1.
         -6    2    1    2    0  503 -0.60557615562E+02  0.12588918562E+02 -0.15200327560E+03  0.23791935997E+03  0.17226410068E+03 0.  0.
        -24    2    3    3    0    0 -0.34490337620E+02  0.78573064528E+02 -0.77351021319E+02  0.13482493933E+03  0.69507365852E+02 0.  0.
          6    2    1    2  501    0  0.60557615562E+02 -0.12588918562E+02  0.17780072403E+03  0.25325725482E+03  0.16941202430E+03 0.  0.
         24    2    5    5    0    0  0.93737284482E+02  0.51864317115E+01  0.17742420991E+03  0.21532197744E+03  0.77914222894E+02 0.  0.
          5    1    5    5  501    0 -0.33179668920E+02 -0.17775350274E+02  0.37651411931E+00  0.37935277380E+02  0.47000000000E+01 0. -1.
        -13    1    6    6    0    0  0.32629380385E+02 -0.22432714043E+02  0.12218408166E+03  0.12844007527E+03  0.00000000000E+00 0.  1.
         14    1    6    6    0    0  0.61107904097E+02  0.27619145755E+02  0.55240128248E+02  0.86881902167E+02  0.00000000000E+00 0. -1.
         -5    1    3    3    0  503 -0.26067277942E+02 -0.65984145965E+02 -0.74652254276E+02  0.10309442064E+03  0.47000000000E+01 0.  1.
         13    1    4    4    0    0  0.92027996048E+00  0.39587833850E+02 -0.71632361841E+02  0.81848877616E+02  0.00000000000E+00 0. -1.
        -14    1    4    4    0    0 -0.35410617580E+02  0.38985230677E+02 -0.57186594780E+01  0.52976061713E+02  0.00000000000E+00 0.  1.
</event>
<event>
12    1  0.9873238E-001  0.2208974E+03  0.7818608E-02  0.1133710E+00
         21   -1    0    0  501  502  0.00000000000E+00  0.00000000000E+00  0.35906639179E+03  0.35906639179E+03  0.00000000000E+00 0.  1.
         21   -1    0    0  502  503 -0.00000000000E+00 -0.00000000000E+00 -0.17208790530E+03  0.17208790530E+03  0.00000000000E+00 0.  1.
         -6    2    1    2    0  503 -0.11590230115E+03 -0.66071708672E+02  0.21842106707E+03  0.31065002604E+03  0.17605925717E+03 0.  0.
        -24    2    3    3    0    0 -0.49172979350E+02 -0.72749926824E+02  0.21198642606E+03  0.24311562302E+03  0.80351898372E+02 0.  0.
          6    2    1    2  501    0  0.11590230115E+03  0.66071708672E+02 -0.31442580585E+02  0.22050427106E+03  0.17272719410E+03 0.  0.
         24    2    5    5    0    0  0.64069427692E+02  0.12510099697E+02  0.58927055531E+02  0.10326838125E+03  0.54134707286E+02 0.  0.
          5    1    5    5  501    0  0.51832873459E+02  0.53561608975E+02 -0.90369636116E+02  0.11723588981E+03  0.47000000000E+01 0. -1.
        -11    1    6    6    0    0  0.56638557767E+02  0.28568018745E+02  0.32003891070E+02  0.71051438863E+02  0.00000000000E+00 0.  1.
         12    1    6    6    0    0  0.74308699249E+01 -0.16057919049E+02  0.26923164462E+02  0.32216942385E+02  0.00000000000E+00 0. -1.
         -5    1    3    3    0  503 -0.66729321801E+02  0.66782181514E+01  0.64346410153E+01  0.67534403016E+02  0.47000000000E+01 0.  1.
         11    1    4    4    0    0  0.65965755235E+01 -0.33962250185E+02  0.13969306070E+03  0.14391351727E+03  0.00000000000E+00 0. -1.
        -12    1    4    4    0    0 -0.55769554873E+02 -0.38787676639E+02  0.72293365364E+02  0.99202105751E+02  0.00000000000E+00 0.  1.
</event>
<event>
12    1  0.9873238E-001  0.2706318E+03  0.7818608E-02  0.1101042E+00
         21   -1    0    0  501  502  0.00000000000E+00  0.00000000000E+00  0.55516341111E+03  0.55516341111E+03  0.00000000000E+00 0.  1.
         21   -1    0    0  502  503 -0.00000000000E+00 -0.00000000000E+00 -0.13351513297E+03  0.13351513297E+03  0.00000000000E+00 0.  1.
         -6    2    1    2    0  503 -0.16017164031E+03  0.13211795800E+03  0.16824565132E+03  0.31792999925E+03  0.17222884790E+03 0.  0.
        -24    2    3    3    0    0 -0.13441555081E+03  0.71847623598E+02  0.44049708747E+02  0.17742159556E+03  0.79425590433E+02 0.  0.
          6    2    1    2  501    0  0.16017164031E+03 -0.13211795800E+03  0.25340262683E+03  0.37074854482E+03  0.17358422457E+03 0.  0.
         24    2    5    5    0    0  0.17226921518E+03 -0.66590084013E+02  0.19949781348E+03  0.28491106764E+03  0.85229203301E+02 0.  0.
          5    1    5    5  501    0 -0.12097574862E+02 -0.65527873991E+02  0.53904813350E+02  0.85837477186E+02  0.47000000000E+01 0. -1.
        -11    1    6    6    0    0  0.50784866200E+02 -0.28426232822E+02  0.12373573659E+03  0.13673948171E+03  0.00000000000E+00 0.  1.
         12    1    6    6    0    0  0.12148434898E+03 -0.38163851191E+02  0.75762076882E+02  0.14817158593E+03  0.00000000000E+00 0. -1.
         -5    1    3    3    0  503 -0.25756089505E+02  0.60270334406E+02  0.12419594257E+03  0.14050840369E+03  0.47000000000E+01 0.  1.
         13    1    4    4    0    0 -0.10021830581E+03  0.98213135575E+01  0.31330992201E+02  0.10545993596E+03  0.00000000000E+00 0. -1.
        -14    1    4    4    0    0 -0.34197244996E+02  0.62026310040E+02  0.12718716546E+02  0.71961659605E+02  0.00000000000E+00 0.  1.
</event>
<event>
12    1  0.9873238E-001  0.3361973E+03  0.7818608E-02  0.1068495E+00
         21   -1    0    0  501  502  0.00000000000E+00  0.00000000000E+00  0.73810411316E+03  0.73810411316E+03  0.00000000000E+00 0. -1.
         21   -1    0    0  502  503 -0.00000000000E+00 -0.00000000000E+00 -0.24069379423E+03  0.24069379423E+03  0.00000000000E+00 0.  1.
         -6    2    1    2    0  503 -0.20918646700E+03 -0.19834146582E+03  0.54421626504E+03  0.63935804267E+03  0.17178197970E+03 0.  0.
        -24    2    3    3    0    0 -0.65023657124E+02 -0.11941023322E+03  0.17817317401E+03  0.23808171678E+03  0.80314034537E+02 0.  0.
          6    2    1    2  501    0  0.20918646700E+03  0.19834146582E+03 -0.46805946109E+02  0.33943986472E+03  0.17300378645E+03 0.  0.
         24    2    5    5    0    0  0.54409693881E+02  0.13271878266E+03  0.87715079457E+01  0.16231524914E+03  0.75462644356E+02 0.  0.
          5    1    5    5  501    0  0.15477677312E+03  0.65622683161E+02 -0.55577454054E+02  0.17712461558E+03  0.47000000000E+01 0. -1.
        -11    1    6    6    0    0  0.54163870784E+02  0.14184928168E+03  0.37341434467E+01  0.15188445424E+03  0.00000000000E+00 0.  1.
         12    1    6    6    0    0  0.24582309656E+00 -0.91304990171E+01  0.50373644990E+01  0.10430794907E+02  0.00000000000E+00 0. -1.
         -5    1    3    3    0  503 -0.14416280988E+03 -0.78931232609E+02  0.36604309102E+03  0.40127632589E+03  0.47000000000E+01 0.  1.
         11    1    4    4    0    0 -0.44755676774E+02 -0.60663954679E+02  0.15388695016E+03  0.17136037882E+03  0.00000000000E+00 0. -1.
        -12    1    4    4    0    0 -0.20267980350E+02 -0.58746278537E+02  0.24286223852E+02  0.66721337954E+02  0.00000000000E+00 0.  1.
</event>
<event>
12    1  0.9873238E-001  0.2100845E+03  0.7818608E-02  0.1141561E+00
         21   -1    0    0  501  502  0.00000000000E+00  0.00000000000E+00  0.13646211693E+04  0.13646211693E+04  0.00000000000E+00 0. -1.
         21   -1    0    0  502  503 -0.00000000000E+00 -0.00000000000E+00 -0.33015500849E+02  0.33015500849E+02  0.00000000000E+00 0.  1.
         -6    2    1    2    0  503 -0.80461648515E+02  0.87599796470E+02  0.76952755343E+03  0.79768926960E+03  0.17316961086E+03 0.  0.
        -24    2    3    3    0    0 -0.18547594183E+02  0.10730716432E+03  0.38525839070E+03  0.40793728449E+03  0.78294059233E+02 0.  0.
          6    2    1    2  501    0  0.80461648515E+02 -0.87599796470E+02  0.56207811500E+03  0.59994740053E+03  0.17279257743E+03 0.  0.
         24    2    5    5    0    0  0.84255996292E+02 -0.47780236407E+02  0.20175521511E+03  0.23738061134E+03  0.79135099116E+02 0.  0.
          5    1    5    5  501    0 -0.37943477770E+01 -0.39819560063E+02  0.36032289989E+03  0.36256678919E+03  0.47000000000E+01 0. -1.
        -13    1    6    6    0    0  0.13530398816E+02  0.21932362402E+02  0.41555800241E+02  0.48897696738E+02  0.00000000000E+00 0.  1.
         14    1    6    6    0    0  0.70725597476E+02 -0.69712598808E+02  0.16019941487E+03  0.18848291460E+03  0.00000000000E+00 0. -1.
         -5    1    3    3    0  503 -0.61914054332E+02 -0.19707367845E+02  0.38426916273E+03  0.38975198511E+03  0.47000000000E+01 0.  1.
         11    1    4    4    0    0  0.22736892341E+02  0.21948189108E+02  0.16713154016E+03  0.17009303629E+03  0.00000000000E+00 0. -1.
        -12    1    4    4    0    0 -0.41284486525E+02  0.85358975207E+02  0.21812685054E+03  0.23784424820E+03  0.00000000000E+00 0.  1.
</event>
<event>
12    1  0.9873238E-001  0.1828029E+03  0.7818608E-02  0.1165225E+00
         21   -1    0    0  503  502  0.00000000000E+00  0.00000000000E+00  0.64178623856E+02  0.64178623856E+02  0.00000000000E+00 0. -1.
         21   -1    0    0  501  503 -0.00000000000E+00 -0.00000000000E+00 -0.66246335667E+03  0.66246335667E+03  0.00000000000E+00 0. -1.
          6    2    1    2  501    0 -0.35185089562E+02 -0.47276419211E+02 -0.13059242259E+03  0.22465815849E+03  0.17304293397E+03 0.  0.
         24    2    3    3    0    0  0.27593315540E+02  0.24053608604E+02 -0.67207616680E+02  0.11033919840E+03  0.79485267910E+02 0.  0.
         -6    2    1    2    0  502  0.35185089562E+02  0.47276419211E+02 -0.46769231023E+03  0.50198382204E+03  0.17256480001E+03 0.  0.
        -24    2    5    5    0    0  0.50579907879E+02  0.70557072880E+02 -0.19230079551E+03  0.22514169077E+03  0.78565624514E+02 0.  0.
          5    1    3    3  501    0 -0.62778405101E+02 -0.71330027815E+02 -0.63384805906E+02  0.11431896008E+03  0.47000000000E+01 0. -1.
        -13    1    4    4    0    0  0.19319941207E+02 -0.11299830561E+02  0.10383409408E+02  0.24673092426E+02  0.00000000000E+00 0.  1.
         14    1    4    4    0    0  0.82733743326E+01  0.35353439166E+02 -0.77591026088E+02  0.85666105976E+02  0.00000000000E+00 0. -1.
         -5    1    5    5    0  502 -0.15394818318E+02 -0.23280653669E+02 -0.27539151472E+03  0.27684213127E+03  0.47000000000E+01 0.  1.
         11    1    6    6    0    0 -0.48085245131E+01  0.11258755418E+02  0.38795631253E+01  0.12842604549E+02  0.00000000000E+00 0. -1.
        -12    1    6    6    0    0  0.55388432393E+02  0.59298317461E+02 -0.19618035864E+03  0.21229908622E+03  0.00000000000E+00 0.  1.
</event>
<event>
12    1  0.9873238E-001  0.2617903E+03  0.7818608E-02  0.1107223E+00
         21   -1    0    0  503  502  0.00000000000E+00  0.00000000000E+00  0.70448177686E+03  0.70448177686E+03  0.00000000000E+00 0.  1.
         21   -1    0    0  501  503 -0.00000000000E+00 -0.00000000000E+00 -0.12498563077E+03  0.12498563077E+03  0.00000000000E+00 0.  1.
          6    2    1    2  501    0  0.18204037682E+03  0.64069259690E+02  0.81634792102E+02  0.26697286451E+03  0.16542884354E+03 0.  0.
         24    2    3    3    0    0  0.13437778012E+03  0.17222773042E+02  0.11213529210E+03  0.19336113355E+03  0.80375322904E+02 0.  0.
         -6    2    1    2    0  502 -0.18204037682E+03 -0.64069259690E+02  0.49786135398E+03  0.56249454312E+03  0.17689153291E+03 0.  0.
        -24    2    5    5    0    0 -0.12029550623E+03 -0.34822851807E+02  0.46157381953E+03  0.48499192010E+03  0.80517897751E+02 0.  0.
          5    1    3    3  501    0  0.47662596699E+02  0.46846486647E+02 -0.30500499999E+02  0.73611730964E+02  0.47000000000E+01 0. -1.
        -11    1    4    4    0    0  0.62346502367E+01 -0.14104768271E+02 -0.57376689606E+01  0.16454063226E+02  0.00000000000E+00 0.  1.
         12    1    4    4    0    0  0.12814312988E+03  0.31327541314E+02  0.11787296106E+03  0.17690707032E+03  0.00000000000E+00 0. -1.
         -5    1    5    5    0  502 -0.61744870587E+02 -0.29246407883E+02  0.36287534455E+02  0.77502623018E+02  0.47000000000E+01 0.  1.
         13    1    6    6    0    0 -0.45493106580E+01 -0.31373868424E+02  0.74406853493E+02  0.80878895232E+02  0.00000000000E+00 0. -1.
        -14    1    6    6    0    0 -0.11574619557E+03 -0.34489833833E+01  0.38716696604E+03  0.40411302487E+03  0.00000000000E+00 0.  1.
</event>
<event>
12    1  0.9873238E-001  0.2057572E+03  0.7818608E-02  0.1145102E+00
         21   -1    0    0  501  502  0.00000000000E+00  0.00000000000E+00  0.16871069462E+03  0.16871069462E+03  0.00000000000E+00 0.  1.
         21   -1    0    0  502  503 -0.00000000000E+00 -0.00000000000E+00 -0.25039371344E+03  0.25039371344E+03  0.00000000000E+00 0.  1.
         -6    2    1    2    0  503  0.91090700045E+02  0.65617527734E+02 -0.34370859067E+02  0.20860821387E+03  0.17243217612E+03 0.  0.
        -24    2    3    3    0    0  0.12846635517E+03  0.44912875160E+02 -0.44397028258E+02  0.16446938399E+03  0.80983401919E+02 0.  0.
          6    2    1    2  501    0 -0.91090700045E+02 -0.65617527734E+02 -0.47312159758E+02  0.21049619418E+03  0.17165963918E+03 0.  0.
         24    2    5    5    0    0 -0.82400334024E+02  0.19097296968E+02 -0.47379189704E+02  0.12520716512E+03  0.79230832262E+02 0.  0.
          5    1    5    5  501    0 -0.86903660203E+01 -0.84714824702E+02  0.67029945947E-01  0.85289029065E+02  0.47000000000E+01 0. -1.
        -11    1    6    6    0    0 -0.24870593322E+02 -0.23747031118E+02  0.71260105334E+01  0.35117629835E+02  0.00000000000E+00 0.  1.
         12    1    6    6    0    0 -0.57529740702E+02  0.42844328086E+02 -0.54505200237E+02  0.90089535282E+02  0.00000000000E+00 0. -1.
         -5    1    3    3    0  503 -0.37375655129E+02  0.20704652574E+02  0.10026169191E+02  0.44138829880E+02  0.47000000000E+01 0.  1.
         13    1    4    4    0    0  0.62569930983E+02 -0.64910266662E+01 -0.50505722510E+02  0.80671913927E+02  0.00000000000E+00 0. -1.
        -14    1    4    4    0    0  0.65896424191E+02  0.51403901826E+02  0.61086942521E+01  0.83797470067E+02  0.00000000000E+00 0.  1.
</event>
<event>
12    1  0.9873238E-001  0.2267940E+03  0.7818608E-02  0.1129066E+00
         21   -1    0    0  501  502  0.00000000000E+00  0.00000000000E+00  0.69663975833E+02  0.69663975833E+02  0.00000000000E+00 0. -1.
         21   -1    0    0  502  503 -0.00000000000E+00 -0.00000000000E+00 -0.75279016581E+03  0.75279016581E+03  0.00000000000E+00 0. -1.
         -6    2    1    2    0  503  0.76180906714E+01  0.14671904626E+03 -0.40423955617E+03  0.46351388962E+03  0.17277439989E+03 0.  0.
        -24    2    3    3    0    0 -0.56716750265E+02  0.12405146666E+03 -0.26409891332E+03  0.30758351830E+03  0.79081151784E+02 0.  0.
          6    2    1    2  501    0 -0.76180906714E+01 -0.14671904626E+03 -0.27888663380E+03  0.35894025202E+03  0.17168528231E+03 0.  0.
         24    2    5    5    0    0  0.62836726554E+02 -0.85782688086E+02 -0.18465754529E+03  0.22635694937E+03  0.76367111496E+02 0.  0.
          5    1    5    5  501    0 -0.70454817225E+02 -0.60936358178E+02 -0.94229088515E+02  0.13258330265E+03  0.47000000000E+01 0. -1.
        -13    1    6    6    0    0  0.36995765839E+02 -0.28464939119E+02 -0.14425915286E+03  0.15162335781E+03  0.00000000000E+00 0.  1.
         14    1    6    6    0    0  0.25840960715E+02 -0.57317748967E+02 -0.40398392425E+02  0.74733591563E+02  0.00000000000E+00 0. -1.
         -5    1    3    3    0  503  0.64334840936E+02  0.22667579599E+02 -0.14014064285E+03  0.15593037133E+03  0.47000000000E+01 0.  1.
         13    1    4    4    0    0 -0.55770077506E+02  0.47241706129E+02 -0.17673314644E+03  0.19125032129E+03  0.00000000000E+00 0. -1.
        -14    1    4    4    0    0 -0.94667275822E+00  0.76809760536E+02 -0.87365766885E+02  0.11633319701E+03  0.00000000000E+00 0.  1.
</event>
<event>
12    1  0.9873238E-001  0.1978286E+03  0.7818608E-02  0.1153543E+00
         21   -1    0    0  501  502  0.00000000000E+00  0.00000000000E+00  0.44439737064E+02  0.44439737064E+02  0.00000000000E+00 0.  1.
         21   -1    0    0  502  503 -0.00000000000E+00 -0.00000000000E+00 -0.90505391433E+03  0.90505391433E+03  0.00000000000E+00 0.  1.
         -6    2    1    2    0  503 -0.50286978122E+02 -0.86357263205E+02 -0.56548469607E+03  0.59909022153E+03  0.17073311033E+03 0.  0.
        -24    2    3    3    0    0 -0.27329360606E+02 -0.21387588323E+02 -0.49065807392E+03  0.49726083363E+03  0.72929200456E+02 0.  0.
          6    2    1    2  501    0  0.50286978122E+02  0.86357263205E+02 -0.29512948119E+03  0.35040342987E+03  0.16029596350E+03 0.  0.
         24    2    5    5    0    0 -0.15595469787E+02  0.48026596931E+02 -0.23221655885E+03  0.25145969475E+03  0.82205080088E+02 0.  0.
          5    1    5    5  501    0  0.65882447910E+02  0.38330666274E+02 -0.62912922348E+02  0.98943735112E+02  0.47000000000E+01 0. -1.
        -13    1    6    6    0    0  0.17447029472E+02 -0.16197879750E+02 -0.68503198734E+02  0.72522123401E+02  0.00000000000E+00 0.  1.
         14    1    6    6    0    0 -0.33042499259E+02  0.64224476681E+02 -0.16371336011E+03  0.17893757135E+03  0.00000000000E+00 0. -1.
         -5    1    3    3    0  503 -0.22957617517E+02 -0.64969674881E+02 -0.74826622153E+02  0.10182938790E+03  0.47000000000E+01 0.  1.
         13    1    4    4    0    0 -0.51160979268E+02 -0.22672896892E+02 -0.37637079411E+03  0.38050818745E+03  0.00000000000E+00 0. -1.
        -14    1    4    4    0    0  0.23831618662E+02  0.12853085683E+01 -0.11428727980E+03  0.11675264618E+03  0.00000000000E+00 0.  1.
</event>
<event>
12    1  0.9873238E-001  0.2132671E+03  0.7818608E-02  0.1139396E+00
         21   -1    0    0  501  502  0.00000000000E+00  0.00000000000E+00  0.40802357405E+03  0.40802357405E+03  0.00000000000E+00 0.  1.
         21   -1    0    0  502  503 -0.00000000000E+00 -0.00000000000E+00 -0.11063066818E+03  0.11063066818E+03  0.00000000000E+00 0.  1.
         -6    2    1    2    0  503 -0.10348407237E+03  0.64518353407E+02  0.16062222081E+03  0.26698754780E+03  0.17496080047E+03 0.  0.
        -24    2    3    3    0    0 -0.13274238422E+03  0.53758824398E+02  0.85681331677E+02  0.18568537599E+03  0.81407717632E+02 0.  0.
          6    2    1    2  501    0  0.10348407237E+03 -0.64518353407E+02  0.13677068506E+03  0.25166669443E+03  0.17250603942E+03 0.  0.
         24    2    5    5    0    0  0.10832071716E+03 -0.66973556066E+02  0.16477156988E+03  0.22276062753E+03  0.79080920332E+02 0.  0.
          5    1    5    5  501    0 -0.48366447902E+01  0.24552026591E+01 -0.28000884822E+02  0.28906066902E+02  0.47000000000E+01 0. -1.
        -11    1    6    6    0    0  0.36025672177E+02  0.16143204306E+02  0.37690350501E+02  0.54580350145E+02  0.00000000000E+00 0.  1.
         12    1    6    6    0    0  0.72295044979E+02 -0.83116760372E+02  0.12708121938E+03  0.16818027739E+03  0.00000000000E+00 0. -1.
         -5    1    3    3    0  503  0.29258311853E+02  0.10759529009E+02  0.74940889134E+02  0.81302171811E+02  0.47000000000E+01 0.  1.
         11    1    4    4    0    0 -0.23505971286E+02  0.10337557070E+02  0.60139701596E+02  0.65392503243E+02  0.00000000000E+00 0. -1.
        -12    1    4    4    0    0 -0.10923641293E+03  0.43421267328E+02  0.25541630081E+02  0.12029287275E+03  0.00000000000E+00 0.  1.
</event>
<event>
12    1  0.9873238E-001  0.1913565E+03  0.7818608E-02  0.1157281E+00
         21   -1    0    0  503  502  0.00000000000E+00  0.00000000000E+00  0.75036261853E+03  0.75036261853E+03  0.00000000000E+00 0. -1.
         21   -1    0    0  501  503 -0.00000000000E+00 -0.00000000000E+00 -0.63311300396E+02  0.63311300396E+02  0.00000000000E+00 0. -1.
          6    2    1    2  501    0 -0.17239236875E+02  0.84767045128E+02  0.14834838165E+03  0.24199380711E+03  0.17050254284E+03 0.  0.
         24    2    3    3    0    0 -0.27622169404E+02  0.26315180015E+02  0.83193705282E+01  0.89827320068E+02  0.80896616510E+02 0.  0.
         -6    2    1    2    0  502  0.17239236875E+02 -0.84767045128E+02  0.53870293648E+03  0.57168011182E+03  0.17068876132E+03 0.  0.
        -24    2    5    5    0    0 -0.31769508286E+02 -0.14566782981E+02  0.15022050768E+03  0.17384770816E+03  0.80220520332E+02 0.  0.
          5    1    3    3  501    0  0.10382932529E+02  0.58451865113E+02  0.14002901112E+03  0.15216648704E+03  0.47000000000E+01 0. -1.
        -13    1    4    4    0    0  0.26354878092E+02  0.21390406414E+02  0.10654081203E+02  0.35575813864E+02  0.00000000000E+00 0.  1.
         14    1    4    4    0    0 -0.53977047496E+02  0.49247736004E+01 -0.23347106750E+01  0.54251506204E+02  0.00000000000E+00 0. -1.
         -5    1    5    5    0  502  0.49008745161E+02 -0.70200262147E+02  0.38848242881E+03  0.39783240366E+03  0.47000000000E+01 0.  1.
         11    1    6    6    0    0  0.26061762886E+02 -0.12576399883E+02  0.60835638527E+02  0.67367323190E+02  0.00000000000E+00 0. -1.
        -12    1    6    6    0    0 -0.57831271172E+02 -0.19903830979E+01  0.89384869153E+02  0.10648038497E+03  0.00000000000E+00 0.  1.
</event>
<event>
12    1  0.9873238E-001  0.3711597E+03  0.7818608E-02  0.1054884E+00
         21   -1    0    0  501  502  0.00000000000E+00  0.00000000000E+00  0.25933528669E+03  0.25933528669E+03  0.00000000000E+00 0.  1.
         21   -1    0    0  502  503 -0.00000000000E+00 -0.00000000000E+00 -0.80114595718E+03  0.80114595718E+03  0.00000000000E+00 0.  1.
         -6    2    1    2    0  503 -0.43904092406E+02  0.32385354121E+03  0.40601696604E+02  0.37337379550E+03  0.17592841701E+03 0.  0.
        -24    2    3    3    0    0  0.18158187540E+02  0.11783422567E+03  0.63914520621E+02  0.15689917174E+03  0.79483706708E+02 0.  0.
          6    2    1    2  501    0  0.43904092406E+02 -0.32385354121E+03 -0.58241236709E+03  0.68710744837E+03  0.16156668837E+03 0.  0.
         24    2    5    5    0    0  0.16208315096E+02 -0.30908322107E+03 -0.56949496464E+03  0.65284131751E+03  0.77987973979E+02 0.  0.
          5    1    5    5  501    0  0.27695777311E+02 -0.14770320143E+02 -0.12917402452E+02  0.34266130859E+02  0.47000000000E+01 0. -1.
        -11    1    6    6    0    0 -0.18574405075E+01 -0.20247497663E+03 -0.29488600364E+03  0.35771122625E+03  0.00000000000E+00 0.  1.
         12    1    6    6    0    0  0.18065755603E+02 -0.10660824444E+03 -0.27460896100E+03  0.29513009126E+03  0.00000000000E+00 0. -1.
         -5    1    3    3    0  503 -0.62062279946E+02  0.20601931554E+03 -0.23312824017E+02  0.21647462376E+03  0.47000000000E+01 0.  1.
         13    1    4    4    0    0  0.35389638903E+01  0.78531820957E+02 -0.21605035609E+01  0.78641203856E+02  0.00000000000E+00 0. -1.
        -14    1    4    4    0    0  0.14619223649E+02  0.39302404710E+02  0.66075024182E+02  0.78257967880E+02  0.00000000000E+00 0.  1.
</event>
<event>
12    1  0.9873238E-001  0.1942583E+03  0.7818608E-02  0.1155197E+00
         21   -1    0    0  503  502  0.00000000000E+00  0.00000000000E+00  0.12581902550E+03  0.12581902550E+03  0.00000000000E+00 0. -1.
         21   -1    0    0  501  503 -0.00000000000E+00 -0.00000000000E+00 -0.29761973198E+03  0.29761973198E+03  0.00000000000E+00 0. -1.
          6    2    1    2  501    0 -0.39586870641E+02  0.77549637875E+02 -0.10059289007E+03  0.21875831323E+03  0.17365253644E+03 0.  0.
         24    2    3    3    0    0 -0.72541471323E+02  0.44742420032E+02 -0.12792166646E+02  0.11929286052E+03  0.82480287537E+02 0.  0.
         -6    2    1    2    0  502  0.39586870641E+02 -0.77549637875E+02 -0.71207816411E+02  0.20468044426E+03  0.17100428206E+03 0.  0.
        -24    2    5    5    0    0  0.37890009575E+02  0.44491036119E+01 -0.83592779863E+02  0.12160126358E+03  0.79647141250E+02 0.  0.
          5    1    3    3  501    0  0.32954600682E+02  0.32807217843E+02 -0.87800723422E+02  0.99465452707E+02  0.47000000000E+01 0. -1.
        -13    1    4    4    0    0  0.18519295834E+02  0.10433571491E+02 -0.34734194732E+01  0.21538068045E+02  0.00000000000E+00 0.  1.
         14    1    4    4    0    0 -0.91060767158E+02  0.34308848542E+02 -0.93187471733E+01  0.97754792478E+02  0.00000000000E+00 0. -1.
         -5    1    5    5    0  502  0.16968610657E+01 -0.81998741487E+02  0.12384963452E+02  0.83079180681E+02  0.47000000000E+01 0.  1.
         11    1    6    6    0    0  0.17598730565E+02  0.51128793382E+01  0.13274735953E+02  0.22629084542E+02  0.00000000000E+00 0. -1.
        -12    1    6    6    0    0  0.20291279011E+02 -0.66377572638E+00 -0.96867515816E+02  0.98972179033E+02  0.00000000000E+00 0.  1.
</event>
<event>
12    1  0.9873238E-001  0.1798284E+03  0.7818608E-02  0.1169487E+00
         21   -1    0    0  503  502  0.00000000000E+00  0.00000000000E+00  0.40054318940E+02  0.40054318940E+02  0.00000000000E+00 0.  1.
         21   -1    0    0  501  503 -0.00000000000E+00 -0.00000000000E+00 -0.86565966560E+03  0.86565966560E+03  0.00000000000E+00 0.  1.
          6    2    1    2  501    0  0.33700026191E+02 -0.18866382465E+02 -0.56172109724E+03  0.58980406281E+03  0.17563202801E+03 0.  0.
         24    2    3    3    0    0  0.19735262447E+01 -0.74122196821E+02 -0.26997536893E+03  0.29114466515E+03  0.79878165661E+02 0.  0.
         -6    2    1    2    0  502 -0.33700026191E+02  0.18866382465E+02 -0.26388424941E+03  0.31590992173E+03  0.16932970621E+03 0.  0.
        -24    2    5    5    0    0  0.16709580158E+01 -0.36553431326E+02 -0.75915310541E+02  0.11671937410E+03  0.80754767495E+02 0.  0.
          5    1    3    3  501    0  0.31726499946E+02  0.55255814357E+02 -0.29174572832E+03  0.29865939766E+03  0.47000000000E+01 0. -1.
        -11    1    4    4    0    0  0.22371195688E+02 -0.73169478974E+02 -0.25383565766E+03  0.26511654824E+03  0.00000000000E+00 0.  1.
         12    1    4    4    0    0 -0.20397669443E+02 -0.95271784723E+00 -0.16139711261E+02  0.26028116905E+02  0.00000000000E+00 0. -1.
         -5    1    5    5    0  502 -0.35370984207E+02  0.55419813791E+02 -0.18796893887E+03  0.19919054763E+03  0.47000000000E+01 0.  1.
         13    1    6    6    0    0  0.17613603834E+02 -0.99443745160E+01 -0.82555343911E+02  0.84997143674E+02  0.00000000000E+00 0. -1.
        -14    1    6    6    0    0 -0.15942645818E+02 -0.26609056810E+02  0.66400333700E+01  0.31722230425E+02  0.00000000000E+00 0.  1.
</event>
<event>
12    1  0.9873238E-001  0.1831737E+03  0.7818608E-02  0.1165989E+00
         21   -1    0    0  503  502  0.00000000000E+00  0.00000000000E+00  0.57591307085E+03  0.57591307085E+03  0.00000000000E+00 0.  1.
         21   -1    0    0  501  503 -0.00000000000E+00 -0.00000000000E+00 -0.57670489477E+02  0.57670489477E+02  0.00000000000E+00 0.  1.
          6    2    1    2  501    0 -0.45124182290E+02 -0.43921412085E+02  0.21341804048E+03  0.27795650250E+03  0.16657513323E+03 0.  0.
         24    2    3    3    0    0  0.13899984689E+02  0.25897837649E+02  0.11288216290E+03  0.14198542983E+03  0.80954135251E+02 0.  0.
         -6    2    1    2    0  502  0.45124182290E+02  0.43921412085E+02  0.30482454089E+03  0.35562705782E+03  0.17200965457E+03 0.  0.
        -24    2    5    5    0    0  0.76222024248E+01  0.64059445314E+02  0.98324249346E+02  0.14473277321E+03  0.84369467988E+02 0.  0.
          5    1    3    3  501    0 -0.59024166979E+02 -0.69819249735E+02  0.10053587758E+03  0.13597107267E+03  0.47000000000E+01 0. -1.
        -13    1    4    4    0    0 -0.65029035310E+01  0.50388846540E+02  0.87734678043E+02  0.10138391066E+03  0.00000000000E+00 0.  1.
         14    1    4    4    0    0  0.20402888220E+02 -0.24491008891E+02  0.25147484860E+02  0.40601519171E+02  0.00000000000E+00 0. -1.
         -5    1    5    5    0  502  0.37501979865E+02 -0.20138033228E+02  0.20650029154E+03  0.21089428461E+03  0.47000000000E+01 0.  1.
         11    1    6    6    0    0  0.29182638626E+02  0.90531314475E+01  0.75408217443E+02  0.81363289290E+02  0.00000000000E+00 0. -1.
        -12    1    6    6    0    0 -0.21560436201E+02  0.55006313866E+02  0.22916031903E+02  0.63369483922E+02  0.00000000000E+00 0.  1.
</event>
<event>
12    1  0.9873238E-001  0.1979544E+03  0.7818608E-02  0.1151998E+00
         21   -1    0    0  501  502  0.00000000000E+00  0.00000000000E+00  0.17327232835E+03  0.17327232835E+03  0.00000000000E+00 0. -1.
         21   -1    0    0  502  503 -0.00000000000E+00 -0.00000000000E+00 -0.23370981826E+03  0.23370981826E+03  0.00000000000E+00 0. -1.
         -6    2    1    2    0  503  0.83001260822E+02 -0.40222241705E+02  0.12713486030E+02  0.19594424699E+03  0.17241078034E+03 0.  0.
        -24    2    3    3    0    0  0.45345796738E+02  0.35485191042E+02  0.27575285197E+02  0.10996452599E+03  0.89534130687E+02 0.  0.
          6    2    1    2  501    0 -0.83001260822E+02  0.40222241705E+02 -0.73150975940E+02  0.21103789962E+03  0.17515390881E+03 0.  0.
         24    2    5    5    0    0 -0.10319706805E+03  0.55511290281E+02 -0.93151465332E+01  0.14219947465E+03  0.80017375823E+02 0.  0.
          5    1    5    5  501    0  0.20195807232E+02 -0.15289048576E+02 -0.63835829407E+02  0.68838424969E+02  0.47000000000E+01 0. -1.
        -11    1    6    6    0    0 -0.66990522534E+02  0.53853029610E+02 -0.39911774876E+02  0.94767234218E+02  0.00000000000E+00 0.  1.
         12    1    6    6    0    0 -0.36206545520E+02  0.16582606712E+01  0.30596628343E+02  0.47432240437E+02  0.00000000000E+00 0. -1.
         -5    1    3    3    0  503  0.37655464084E+02 -0.75707432747E+02 -0.14861799167E+02  0.85979720999E+02  0.47000000000E+01 0.  1.
         11    1    4    4    0    0  0.19214452058E+02  0.35802120716E+02  0.57389956524E+02  0.70317808026E+02  0.00000000000E+00 0. -1.
        -12    1    4    4    0    0  0.26131344680E+02 -0.31692967477E+00 -0.29814671327E+02  0.39646717967E+02  0.00000000000E+00 0.  1.
</event>
<event>
12    1  0.9873238E-001  0.2997816E+03  0.7818608E-02  0.1086866E+00
         21   -1    0    0  501  502  0.00000000000E+00  0.00000000000E+00  0.94664306591E+03  0.94664306591E+03  0.00000000000E+00 0.  1.
         21   -1    0    0  502  503 -0.00000000000E+00 -0.00000000000E+00 -0.96882897182E+02  0.96882897182E+02  0.00000000000E+00 0.  1.
         -6    2    1    2    0  503 -0.65351777781E+02  0.22308703535E+03  0.29061904821E+03  0.40909091948E+03  0.16987427415E+03 0.  0.
        -24    2    3    3    0    0  0.26599730588E+02  0.13539014492E+03  0.13389224144E+03  0.20727118199E+03  0.77434963388E+02 0.  0.
          6    2    1    2  501    0  0.65351777781E+02 -0.22308703535E+03  0.55914112051E+03  0.63443504361E+03  0.18928906918E+03 0.  0.
         24    2    5    5    0    0  0.45243971673E+02 -0.18504612833E+03  0.55349638248E+03  0.59078429859E+03  0.79867111268E+02 0.  0.
          5    1    5    5  501    0  0.20107806108E+02 -0.38040907022E+02  0.56447380387E+01  0.43650745023E+02  0.47000000000E+01 0. -1.
        -13    1    6    6    0    0 -0.74514417863E+01 -0.40755521365E+02  0.21650306847E+03  0.22043165644E+03  0.00000000000E+00 0.  1.
         14    1    6    6    0    0  0.52695413459E+02 -0.14429060696E+03  0.33699331401E+03  0.37035264214E+03  0.00000000000E+00 0. -1.
         -5    1    3    3    0  503 -0.91951508368E+02  0.87696890428E+02  0.15672680677E+03  0.20181973749E+03  0.47000000000E+01 0.  1.
         11    1    4    4    0    0 -0.14174321836E+02  0.10783056426E+03  0.86710421681E+02  0.13909363470E+03  0.00000000000E+00 0. -1.
        -12    1    4    4    0    0  0.40774052423E+02  0.27559580664E+02  0.47181819763E+02  0.68177547283E+02  0.00000000000E+00 0.  1.
</event>
<event>
12    1  0.9873238E-001  0.3279284E+03  0.7818608E-02  0.1072109E+00
         21   -1    0    0  501  502  0.00000000000E+00  0.00000000000E+00  0.25788099539E+03  0.25788099539E+03  0.00000000000E+00 0.  1.
         21   -1    0    0  502  503 -0.00000000000E+00 -0.00000000000E+00 -0.58666761750E+03  0.58666761750E+03  0.00000000000E+00 0.  1.
         -6    2    1    2    0  503  0.92496823586E+01 -0.27869041525E+03  0.63005522335E+02  0.33392624531E+03  0.17257791657E+03 0.  0.
        -24    2    3    3    0    0 -0.20158974990E+02 -0.22219575281E+03  0.10319769913E+03  0.25846753417E+03  0.79864662260E+02 0.  0.
          6    2    1    2  501    0 -0.92496823586E+01  0.27869041525E+03 -0.39179214445E+03  0.51062236759E+03  0.17169803043E+03 0.  0.
         24    2    5    5    0    0 -0.33327787661E+01  0.15567621018E+03 -0.11853532444E+03  0.21085765305E+03  0.78512017439E+02 0.  0.
          5    1    5    5  501    0 -0.59169035924E+01  0.12301420507E+03 -0.27325682001E+03  0.29976471453E+03  0.47000000000E+01 0. -1.
        -11    1    6    6    0    0  0.32872953887E+02  0.10056772108E+03 -0.54807561462E+02  0.11915689831E+03  0.00000000000E+00 0.  1.
         12    1    6    6    0    0 -0.36205732653E+02  0.55108489096E+02 -0.63727762973E+02  0.91700754746E+02  0.00000000000E+00 0. -1.
         -5    1    3    3    0  503  0.29408657349E+02 -0.56494662442E+02 -0.40192176790E+02  0.75458711138E+02  0.47000000000E+01 0.  1.
         13    1    4    4    0    0 -0.45704456773E+02 -0.18734854432E+03  0.75225573585E+02  0.20699580031E+03  0.00000000000E+00 0. -1.
        -14    1    4    4    0    0  0.25545481783E+02 -0.34847208491E+02  0.27972125540E+02  0.51471733858E+02  0.00000000000E+00 0.  1.
</event>
<event>
12    1  0.9873238E-001  0.2442245E+03  0.7818608E-02  0.1117143E+00
         21   -1    0    0  501  502  0.00000000000E+00  0.00000000000E+00  0.40839858175E+03  0.40839858175E+03  0.00000000000E+00 0. -1.
         21   -1    0    0  502  503 -0.00000000000E+00 -0.00000000000E+00 -0.15725673349E+03  0.15725673349E+03  0.00000000000E+00 0. -1.
         -6    2    1    2    0  503  0.11170558614E+02  0.17181381901E+03  0.20289581920E+03  0.31750953275E+03  0.17320744832E+03 0.  0.
        -24    2    3    3    0    0 -0.12998753823E+02  0.48212497239E+02  0.24815792262E+02  0.99344392540E+02  0.82219658797E+02 0.  0.
          6    2    1    2  501    0 -0.11170558614E+02 -0.17181381901E+03  0.48246029058E+02  0.24814578249E+03  0.17205778176E+03 0.  0.
         24    2    5    5    0    0  0.46463228020E+02 -0.58466737453E+02 -0.64548749250E+01  0.10964129463E+03  0.80014730719E+02 0.  0.
          5    1    5    5  501    0 -0.57633786634E+02 -0.11334708156E+03  0.54700903983E+02  0.13850448786E+03  0.47000000000E+01 0. -1.
        -11    1    6    6    0    0 -0.14846019355E+02 -0.34522131687E+02  0.14928545221E+02  0.40435669023E+02  0.00000000000E+00 0.  1.
         12    1    6    6    0    0  0.61309247375E+02 -0.23944605766E+02 -0.21383420146E+02  0.69205625610E+02  0.00000000000E+00 0. -1.
         -5    1    3    3    0  503  0.24169312437E+02  0.12360132177E+03  0.17808002694E+03  0.21816514021E+03  0.47000000000E+01 0.  1.
         11    1    4    4    0    0  0.85652971823E+01  0.42733309448E+00  0.43006064961E+02  0.43852805530E+02  0.00000000000E+00 0. -1.
        -12    1    4    4    0    0 -0.21564051005E+02  0.47785164145E+02 -0.18190272699E+02  0.55491587011E+02  0.00000000000E+00 0.  1.
</event>
<event>
12    1  0.9873238E-001  0.2654833E+03  0.7818608E-02  0.1104094E+00
         21   -1    0    0  503  502  0.00000000000E+00  0.00000000000E+00  0.36075580901E+03  0.36075580901E+03  0.00000000000E+00 0.  1.
         21   -1    0    0  501  503 -0.00000000000E+00 -0.00000000000E+00 -0.19438153542E+03  0.19438153542E+03  0.00000000000E+00 0.  1.
          6    2    1    2  501    0  0.25043882283E+02  0.19895064585E+03  0.85754442627E+02  0.27768292633E+03  0.17188783442E+03 0.  0.
         24    2    3    3    0    0 -0.77799814771E+01  0.96243652905E+02 -0.21314171139E+02  0.12565690722E+03  0.77537059561E+02 0.  0.
         -6    2    1    2    0  502 -0.25043882283E+02 -0.19895064585E+03  0.80619830961E+02  0.27745441811E+03  0.17399092349E+03 0.  0.
        -24    2    5    5    0    0 -0.85073237325E+01 -0.17126242790E+03 -0.15420063394E-01  0.19048184260E+03  0.82946599421E+02 0.  0.
          5    1    3    3  501    0  0.32823863760E+02  0.10270699295E+03  0.10706861377E+03  0.15202601911E+03  0.47000000000E+01 0. -1.
        -11    1    4    4    0    0 -0.39077254824E+01 -0.11877593121E+02 -0.11557784987E+02  0.17027328933E+02  0.00000000000E+00 0.  1.
         12    1    4    4    0    0 -0.38722559948E+01  0.10812124603E+03 -0.97563861522E+01  0.10862957829E+03  0.00000000000E+00 0. -1.
         -5    1    5    5    0  502 -0.16536558551E+02 -0.27688217951E+02  0.80635251024E+02  0.86972575504E+02  0.47000000000E+01 0.  1.
         13    1    6    6    0    0 -0.54431160911E+01 -0.15835324340E+03  0.26674121397E+02  0.16067633915E+03  0.00000000000E+00 0. -1.
        -14    1    6    6    0    0 -0.30642076415E+01 -0.12909184497E+02 -0.26689541460E+02  0.29805503455E+02  0.00000000000E+00 0.  1.
</event>
<event>
12    1  0.9873238E-001  0.2194845E+03  0.7818608E-02  0.1135528E+00
         21   -1    0    0  503  502  0.00000000000E+00  0.00000000000E+00  0.45001499700E+03  0.45001499700E+03  0.00000000000E+00 0.  1.
         21   -1    0    0  501  503 -0.00000000000E+00 -0.00000000000E+00 -0.10508965342E+03  0.10508965342E+03  0.00000000000E+00 0.  1.
          6    2    1    2  501    0 -0.13570753125E+03 -0.13134348318E+02  0.20012119908E+03  0.29215656072E+03  0.16345616080E+03 0.  0.
         24    2    3    3    0    0 -0.22518550131E+02 -0.38388502705E+02  0.12200943312E+03  0.15225282331E+03  0.79459789790E+02 0.  0.
         -6    2    1    2    0  502  0.13570753125E+03  0.13134348318E+02  0.14480414450E+03  0.26294808970E+03  0.17200119903E+03 0.  0.
        -24    2    5    5    0    0  0.99035788333E+02 -0.50255922106E+02  0.12431538692E+03  0.18675739276E+03  0.84203700906E+02 0.  0.
          5    1    3    3  501    0 -0.11318898112E+03  0.25254154387E+02  0.78111765959E+02  0.13990373741E+03  0.47000000000E+01 0. -1.
        -11    1    4    4    0    0  0.26135258515E+02  0.54957068370E-01  0.55356490237E+02  0.61215976422E+02  0.00000000000E+00 0.  1.
         12    1    4    4    0    0 -0.48653808646E+02 -0.38443459773E+02  0.66652942886E+02  0.91036846883E+02  0.00000000000E+00 0. -1.
         -5    1    5    5    0  502  0.36671742920E+02  0.63390270424E+02  0.20488757579E+02  0.76190696941E+02  0.47000000000E+01 0.  1.
         13    1    6    6    0    0  0.28204829882E+02  0.21493286700E+02  0.50917249321E+02  0.62048691205E+02  0.00000000000E+00 0. -1.
        -14    1    6    6    0    0  0.70830958450E+02 -0.71749208806E+02  0.73398137601E+02  0.12470870155E+03  0.00000000000E+00 0.  1.
</event>
<event>
12    1  0.9873238E-001  0.1979564E+03  0.7818608E-02  0.1152970E+00
         21   -1    0    0  501  502  0.00000000000E+00  0.00000000000E+00  0.51758551823E+03  0.51758551823E+03  0.00000000000E+00 0.  1.
         21   -1    0    0  502  503 -0.00000000000E+00 -0.00000000000E+00 -0.78473360178E+02  0.78473360178E+02  0.00000000000E+00 0.  1.
         -6    2    1    2    0  503  0.36777936101E+02 -0.81850496383E+02  0.29386633306E+03  0.35053275727E+03  0.16871180122E+03 0.  0.
        -24    2    3    3    0    0 -0.13048656694E+02 -0.85400207463E+02  0.26591359183E+03  0.29309813757E+03  0.87937574732E+02 0.  0.
          6    2    1    2  501    0 -0.36777936101E+02  0.81850496383E+02  0.14524582499E+03  0.24552612113E+03  0.17645001032E+03 0.  0.
         24    2    5    5    0    0  0.32062890876E+02  0.43884688094E+02  0.23709171656E+02  0.10070309064E+03  0.81394673190E+02 0.  0.
          5    1    5    5  501    0 -0.68840826978E+02  0.37965808289E+02  0.12153665333E+03  0.14482303049E+03  0.47000000000E+01 0. -1.
        -11    1    6    6    0    0  0.10495512693E+02 -0.14139720419E+02 -0.18684651690E+02  0.25674962298E+02  0.00000000000E+00 0.  1.
         12    1    6    6    0    0  0.21567378183E+02  0.58024408512E+02  0.42393823346E+02  0.75028128344E+02  0.00000000000E+00 0. -1.
         -5    1    3    3    0  503  0.49826592796E+02  0.35497110802E+01  0.27952741236E+02  0.57434619707E+02  0.47000000000E+01 0.  1.
         11    1    4    4    0    0  0.28978513694E+02 -0.57670628909E+02  0.19998233585E+03  0.21013945452E+03  0.00000000000E+00 0. -1.
        -12    1    4    4    0    0 -0.42027170389E+02 -0.27729578555E+02  0.65931255979E+02  0.82958683046E+02  0.00000000000E+00 0.  1.
</event>
<event>
12    1  0.9873238E-001  0.2732927E+03  0.7818608E-02  0.1099493E+00
         21   -1    0    0  503  502  0.00000000000E+00  0.00000000000E+00  0.31049648667E+03  0.31049648667E+03  0.00000000000E+00 0.  1.
         21   -1    0    0  501  503 -0.00000000000E+00 -0.00000000000E+00 -0.31396345939E+03  0.31396345939E+03  0.00000000000E+00 0.  1.
          6    2    1    2  501    0 -0.17713389838E+03 -0.11687984282E+03  0.14978613095E+03  0.31113039302E+03  0.17125688548E+03 0.  0.
         24    2    3    3    0    0 -0.11553963372E+03  0.10502340649E+01  0.75007605872E+02  0.15843699340E+03  0.78266403967E+02 0.  0.
         -6    2    1    2    0  502  0.17713389838E+03  0.11687984282E+03 -0.15325310367E+03  0.31332955305E+03  0.17219633973E+03 0.  0.
        -24    2    5    5    0    0  0.15972965886E+03  0.39548464712E+02 -0.14570669120E+03  0.23356685541E+03  0.79027786911E+02 0.  0.
          5    1    3    3  501    0 -0.61594264662E+02 -0.11793007688E+03  0.74778525077E+02  0.15269339961E+03  0.47000000000E+01 0. -1.
        -13    1    4    4    0    0 -0.12511310827E+02 -0.26384504161E+02  0.21036176766E+01  0.29276273085E+02  0.00000000000E+00 0.  1.
         14    1    4    4    0    0 -0.10302832289E+03  0.27434738226E+02  0.72903988195E+02  0.12916072032E+03  0.00000000000E+00 0. -1.
         -5    1    5    5    0  502  0.17404239513E+02  0.77331378107E+02 -0.75464124682E+01  0.79762697635E+02  0.47000000000E+01 0.  1.
         11    1    6    6    0    0  0.58084647945E+02  0.47141349478E+02 -0.91279832425E+02  0.11801754516E+03  0.00000000000E+00 0. -1.
        -12    1    6    6    0    0  0.10164501092E+03 -0.75928847663E+01 -0.54426858775E+02  0.11554931025E+03  0.00000000000E+00 0.  1.
</event>
<event>
12    1  0.9873238E-001  0.1943502E+03  0.7818608E-02  0.1155696E+00
         21   -1    0    0  501  502  0.00000000000E+00  0.00000000000E+00  0.22172120770E+02  0.22172120770E+02  0.00000000000E+00 0.  1.
         21   -1    0    0  502  503 -0.00000000000E+00 -0.00000000000E+00 -0.16778603870E+04  0.16778603870E+04  0.00000000000E+00 0.  1.
         -6    2    1    2    0  503 -0.77173749824E+02 -0.15503363392E+01 -0.73053634537E+03  0.75468703528E+03  0.17294790574E+03 0.  0.
        -24    2    3    3    0    0 -0.98505094518E+01  0.47690585179E+02 -0.51615266111E+03  0.52460109237E+03  0.80133089870E+02 0.  0.
          6    2    1    2  501    0  0.77173749824E+02  0.15503363392E+01 -0.92515192089E+03  0.94534547253E+03  0.17836421865E+03 0.  0.
         24    2    5    5    0    0  0.48359403869E+02  0.22088990806E+02 -0.89047263573E+03  0.89557755435E+03  0.79316362872E+02 0.  0.
          5    1    5    5  501    0  0.28814345955E+02 -0.20538654466E+02 -0.34679285162E+02  0.49767918175E+02  0.47000000000E+01 0. -1.
        -11    1    6    6    0    0  0.21833704224E+02 -0.18630027860E+02 -0.62725967281E+03  0.62791598618E+03  0.00000000000E+00 0.  1.
         12    1    6    6    0    0  0.26525699645E+02  0.40719018666E+02 -0.26321296293E+03  0.26766156817E+03  0.00000000000E+00 0. -1.
         -5    1    3    3    0  503 -0.67323240372E+02 -0.49240921518E+02 -0.21438368426E+03  0.23008594291E+03  0.47000000000E+01 0.  1.
         13    1    4    4    0    0 -0.31021703634E+01 -0.78503396551E+01 -0.33268407889E+03  0.33279114718E+03  0.00000000000E+00 0. -1.
        -14    1    4    4    0    0 -0.67483390884E+01  0.55540924834E+02 -0.18346858222E+03  0.19180994519E+03  0.00000000000E+00 0.  1.
</event>
<event>
12    1  0.9873238E-001  0.9709076E+03  0.7818608E-02  0.9341089E-01
         21   -1    0    0  501  502  0.00000000000E+00  0.00000000000E+00  0.68095927817E+03  0.68095927817E+03  0.00000000000E+00 0. -1.
         21   -1    0    0  502  503 -0.00000000000E+00 -0.00000000000E+00 -0.13880790543E+04  0.13880790543E+04  0.00000000000E+00 0. -1.
         -6    2    1    2    0  503 -0.91733498456E+03 -0.26760560519E+03 -0.40914474505E+03  0.10535943470E+04  0.17188772998E+03 0.  0.
        -24    2    3    3    0    0 -0.61525494553E+03 -0.11933112776E+03 -0.30446068596E+03  0.70114787888E+03  0.78316490642E+02 0.  0.
          6    2    1    2  501    0  0.91733498456E+03  0.26760560519E+03 -0.29797503108E+03  0.10154439855E+04  0.17094190450E+03 0.  0.
         24    2    5    5    0    0  0.76515776192E+03  0.27186572724E+03 -0.27717760846E+03  0.86172125290E+03  0.79741562539E+02 0.  0.
          5    1    5    5  501    0  0.15217722264E+03 -0.42601220469E+01 -0.20797422620E+02  0.15372273260E+03  0.47000000000E+01 0. -1.
        -11    1    6    6    0    0  0.41057412199E+03  0.13268658811E+03 -0.18706392116E+03  0.47028688150E+03  0.00000000000E+00 0.  1.
         12    1    6    6    0    0  0.35458363993E+03  0.13917913913E+03 -0.90113687300E+02  0.39143437140E+03  0.00000000000E+00 0. -1.
         -5    1    3    3    0  503 -0.30208003903E+03 -0.14827447743E+03 -0.10468405910E+03  0.35244646809E+03  0.47000000000E+01 0.  1.
         13    1    4    4    0    0 -0.14775507414E+03 -0.63110958840E+02 -0.73347945802E+02  0.17661958049E+03  0.00000000000E+00 0. -1.
        -14    1    4    4    0    0 -0.46749987139E+03 -0.56220168922E+02 -0.23111274015E+03  0.52452829839E+03  0.00000000000E+00 0.  1.
</event>
<event>
12    1  0.9873238E-001  0.2997245E+03  0.7818608E-02  0.1085428E+00
         21   -1    0    0  503  502  0.00000000000E+00  0.00000000000E+00  0.80271097991E+02  0.80271097991E+02  0.00000000000E+00 0. -1.
         21   -1    0    0  501  503 -0.00000000000E+00 -0.00000000000E+00 -0.11203016215E+04  0.11203016215E+04  0.00000000000E+00 0. -1.
          6    2    1    2  501    0  0.17079832541E+03  0.17549376428E+03 -0.54949028465E+03  0.62591878382E+03  0.17281383553E+03 0.  0.
         24    2    3    3    0    0  0.16530037971E+03  0.15560744369E+03 -0.34670758798E+03  0.42203498058E+03  0.79809029620E+02 0.  0.
         -6    2    1    2    0  502 -0.17079832541E+03 -0.17549376428E+03 -0.49054023882E+03  0.57465393563E+03  0.17212579867E+03 0.  0.
        -24    2    5    5    0    0 -0.16852728948E+03 -0.19296571981E+03 -0.39344171895E+03  0.47585798735E+03  0.77506268156E+02 0.  0.
          5    1    3    3  501    0  0.54979457051E+01  0.19886320585E+02 -0.20278269667E+03  0.20388380324E+03  0.47000000000E+01 0. -1.
        -13    1    4    4    0    0  0.10234762314E+03  0.43972446692E+02 -0.18128564272E+03  0.21277475481E+03  0.00000000000E+00 0.  1.
         14    1    4    4    0    0  0.62952756571E+02  0.11163499700E+03 -0.16542194526E+03  0.20926022577E+03  0.00000000000E+00 0. -1.
         -5    1    5    5    0  502 -0.22710359365E+01  0.17471955526E+02 -0.97098519871E+02  0.98795948274E+02  0.47000000000E+01 0.  1.
         13    1    6    6    0    0 -0.39084725489E+02 -0.62582433549E+02 -0.59799943739E+02  0.94974786268E+02  0.00000000000E+00 0. -1.
        -14    1    6    6    0    0 -0.12944256399E+03 -0.13038328626E+03 -0.33364177521E+03  0.38088320109E+03  0.00000000000E+00 0.  1.
</event>
<event>
12    1  0.9873238E-001  0.1998941E+03  0.7818608E-02  0.1150110E+00
         21   -1    0    0  501  502  0.00000000000E+00  0.00000000000E+00  0.26947374544E+03  0.26947374544E+03  0.00000000000E+00 0. -1.
         21   -1    0    0  502  503 -0.00000000000E+00 -0.00000000000E+00 -0.15571133417E+03  0.15571133417E+03  0.00000000000E+00 0. -1.
         -6    2    1    2    0  503  0.54156295059E+02 -0.81299666074E+02  0.10648834936E+03  0.22648936294E+03  0.17439932047E+03 0.  0.
        -24    2    3    3    0    0 -0.23324756962E+02  0.44442531886E+01  0.35886402685E+02  0.90982691569E+02  0.80163711202E+02 0.  0.
          6    2    1    2  501    0 -0.54156295059E+02  0.81299666074E+02  0.72740619062E+01  0.19869571667E+03  0.17287144312E+03 0.  0.
         24    2    5    5    0    0 -0.47429311760E+02  0.19677713249E+02  0.64657026781E+02  0.11409422713E+03  0.78741409303E+02 0.  0.
          5    1    5    5  501    0 -0.67269832993E+01  0.61621952825E+02 -0.57382964875E+02  0.84601489538E+02  0.47000000000E+01 0. -1.
        -13    1    6    6    0    0 -0.11108130185E+02  0.35152831350E+02 -0.16725633903E+01  0.36904059078E+02  0.00000000000E+00 0.  1.
         14    1    6    6    0    0 -0.36321181576E+02 -0.15475118101E+02  0.66329590172E+02  0.77190168050E+02  0.00000000000E+00 0. -1.
         -5    1    3    3    0  503  0.77481052021E+02 -0.85743919262E+02  0.70601946672E+02  0.13550667137E+03  0.47000000000E+01 0.  1.
         13    1    4    4    0    0 -0.32282529995E+01  0.32530426742E+02  0.44664050886E+02  0.55349143832E+02  0.00000000000E+00 0. -1.
        -14    1    4    4    0    0 -0.20096503962E+02 -0.28086173553E+02 -0.87776482006E+01  0.35633547737E+02  0.00000000000E+00 0.  1.
</event>
<event>
12    1  0.9873238E-001  0.1820682E+03  0.7818608E-02  0.1166893E+00
         21   -1    0    0  501  502  0.00000000000E+00  0.00000000000E+00  0.66809821878E+03  0.66809821878E+03  0.00000000000E+00 0. -1.
         21   -1    0    0  502  503 -0.00000000000E+00 -0.00000000000E+00 -0.49518208341E+02  0.49518208341E+02  0.00000000000E+00 0. -1.
         -6    2    1    2    0  503  0.58886256216E+02  0.18350431189E+01  0.35922786643E+03  0.40073734747E+03  0.16755537319E+03 0.  0.
        -24    2    3    3    0    0  0.19768042981E+02 -0.67068387753E+02  0.22364005580E+03  0.24362572542E+03  0.66705887071E+02 0.  0.
          6    2    1    2  501    0 -0.58886256216E+02 -0.18350431189E+01  0.25935214401E+03  0.31687907965E+03  0.17227262685E+03 0.  0.
         24    2    5    5    0    0 -0.88267958918E+01 -0.31682284415E+02  0.12103216184E+03  0.16670812756E+03  0.10982320395E+03 0.  0.
          5    1    5    5  501    0 -0.50059460325E+02  0.29847241296E+02  0.13831998218E+03  0.15017095209E+03  0.47000000000E+01 0. -1.
        -13    1    6    6    0    0 -0.42074525268E+02 -0.57193680892E+02  0.61681263636E+02  0.94052969620E+02  0.00000000000E+00 0.  1.
         14    1    6    6    0    0  0.33247729377E+02  0.25511396477E+02  0.59350898199E+02  0.72655157944E+02  0.00000000000E+00 0. -1.
         -5    1    3    3    0  503  0.39118213235E+02  0.68903430871E+02  0.13558781063E+03  0.15711162205E+03  0.47000000000E+01 0.  1.
         13    1    4    4    0    0  0.21542333807E+02 -0.80051452073E+02  0.18242219181E+03  0.20037505631E+03  0.00000000000E+00 0. -1.
        -14    1    4    4    0    0 -0.17742908264E+01  0.12983064320E+02  0.41217863984E+02  0.43250669110E+02  0.00000000000E+00 0.  1.
</event>
<event>
12    1  0.9873238E-001  0.3537520E+03  0.7818608E-02  0.1061121E+00
         21   -1    0    0  503  502  0.00000000000E+00  0.00000000000E+00  0.64598609898E+03  0.64598609898E+03  0.00000000000E+00 0. -1.
         21   -1    0    0  501  503 -0.00000000000E+00 -0.00000000000E+00 -0.21903565609E+03  0.21903565609E+03  0.00000000000E+00 0.  1.
          6    2    1    2  501    0  0.59892004272E+02  0.30278146610E+03  0.36097514816E+03  0.50517007839E+03  0.17213390752E+03 0.  0.
         24    2    3    3    0    0  0.81238245438E+02  0.25657529354E+03  0.35675406415E+03  0.45388089878E+03  0.79396940837E+02 0.  0.
         -6    2    1    2    0  502 -0.59892004272E+02 -0.30278146610E+03  0.65975294724E+02  0.35985167668E+03  0.17284912873E+03 0.  0.
        -24    2    5    5    0    0 -0.32126448561E+02 -0.19602752661E+03  0.11101518840E+03  0.24061237232E+03  0.78173152498E+02 0.  0.
          5    1    3    3  501    0 -0.21346241167E+02  0.46206172561E+02  0.42210840154E+01  0.51289179609E+02  0.47000000000E+01 0. -1.
        -13    1    4    4    0    0  0.40609133951E+02  0.11459986150E+03  0.98872945819E+02  0.15671020845E+03  0.00000000000E+00 0.  1.
         14    1    4    4    0    0  0.40629111487E+02  0.14197543204E+03  0.25788111833E+03  0.29717069033E+03  0.00000000000E+00 0. -1.
         -5    1    5    5    0  502 -0.27765555711E+02 -0.10675393949E+03 -0.45039893680E+02  0.11923930435E+03  0.47000000000E+01 0.  1.
         11    1    6    6    0    0 -0.27760638323E+02 -0.22822070603E+02  0.21774070397E+01  0.36003347735E+02  0.00000000000E+00 0. -1.
        -12    1    6    6    0    0 -0.43658102382E+01 -0.17320545601E+03  0.10883778136E+03  0.20460902459E+03  0.00000000000E+00 0.  1.
</event>
<event>
12    1  0.9873238E-001  0.2629635E+03  0.7818608E-02  0.1105949E+00
         21   -1    0    0  501  502  0.00000000000E+00  0.00000000000E+00  0.79391122968E+03  0.79391122968E+03  0.00000000000E+00 0. -1.
         21   -1    0    0  502  503 -0.00000000000E+00 -0.00000000000E+00 -0.13402931884E+03  0.13402931884E+03  0.00000000000E+00 0.  1.
         -6    2    1    2    0  503 -0.17191275717E+03 -0.84626710054E+02  0.60972397696E+03  0.66401289477E+03  0.18009475340E+03 0.  0.
        -24    2    3    3    0    0 -0.14328170584E+03 -0.65970064214E+01  0.28333426061E+03  0.32717360268E+03  0.78683513753E+02 0.  0.
          6    2    1    2  501    0  0.17191275717E+03  0.84626710054E+02  0.50157933880E+02  0.26392765375E+03  0.17443139611E+03 0.  0.
         24    2    5    5    0    0  0.49407522208E+02 -0.21658590132E+02  0.12020586139E+02  0.97252385868E+02  0.80020836591E+02 0.  0.
          5    1    5    5  501    0  0.12250523497E+03  0.10628530019E+03  0.38137347741E+02  0.16667526788E+03  0.47000000000E+01 0. -1.
        -11    1    6    6    0    0 -0.20758686248E+02  0.31051163467E+01 -0.34003607496E+01  0.21263284212E+02  0.00000000000E+00 0.  1.
         12    1    6    6    0    0  0.70166208455E+02 -0.24763706478E+02  0.15420946889E+02  0.75989101656E+02  0.00000000000E+00 0. -1.
         -5    1    3    3    0  503 -0.28631051331E+02 -0.78029703632E+02  0.32638971636E+03  0.33683929209E+03  0.47000000000E+01 0.  1.
         13    1    4    4    0    0 -0.69404222764E+02  0.40655090495E+01  0.60470448512E+02  0.92142008034E+02  0.00000000000E+00 0. -1.
        -14    1    4    4    0    0 -0.73877483079E+02 -0.10662515471E+02  0.22286381210E+03  0.23503159465E+03  0.00000000000E+00 0.  1.
</event>
<event>
12    1  0.9873238E-001  0.2972819E+03  0.7818608E-02  0.1086612E+00
         21   -1    0    0  501  502  0.00000000000E+00  0.00000000000E+00  0.56465149492E+03  0.56465149492E+03  0.00000000000E+00 0. -1.
         21   -1    0    0  502  503 -0.00000000000E+00 -0.00000000000E+00 -0.16222113440E+03  0.16222113440E+03  0.00000000000E+00 0.  1.
         -6    2    1    2    0  503 -0.48946185957E+02 -0.23748424096E+03  0.13294012918E+03  0.32565254796E+03  0.17199421566E+03 0.  0.
        -24    2    3    3    0    0 -0.16852877287E+02 -0.18284620625E+03  0.26719609500E+02  0.20187781669E+03  0.79523334487E+02 0.  0.
          6    2    1    2  501    0  0.48946185957E+02  0.23748424096E+03  0.26949023133E+03  0.40122008136E+03  0.17192462035E+03 0.  0.
         24    2    5    5    0    0  0.37278119753E+02  0.19592135436E+03  0.12220568651E+03  0.24766733976E+03  0.81425094792E+02 0.  0.
          5    1    5    5  501    0  0.11668066204E+02  0.41562886600E+02  0.14728454482E+03  0.15355274160E+03  0.47000000000E+01 0. -1.
        -11    1    6    6    0    0  0.28804797551E+01 -0.72515111871E+01  0.11072611706E+02  0.13545637974E+02  0.00000000000E+00 0.  1.
         12    1    6    6    0    0  0.34397639998E+02  0.20317286555E+03  0.11113307481E+03  0.23412170179E+03  0.00000000000E+00 0. -1.
         -5    1    3    3    0  503 -0.32093308670E+02 -0.54638034713E+02  0.10622051969E+03  0.12377473127E+03  0.47000000000E+01 0.  1.
         13    1    4    4    0    0  0.34377412316E+01 -0.10177007373E+03  0.52300407619E+02  0.11447400844E+03  0.00000000000E+00 0. -1.
        -14    1    4    4    0    0 -0.20290618518E+02 -0.81076132514E+02 -0.25580798119E+02  0.87403808245E+02  0.00000000000E+00 0.  1.
</event>
<event>
12    1  0.9873238E-001  0.2585892E+03  0.7818608E-02  0.1108005E+00
         21   -1    0    0  503  502  0.00000000000E+00  0.00000000000E+00  0.11925492803E+03  0.11925492803E+03  0.00000000000E+00 0. -1.
         21   -1    0    0  501  503 -0.00000000000E+00 -0.00000000000E+00 -0.64185149273E+03  0.64185149273E+03  0.00000000000E+00 0. -1.
          6    2    1    2  501    0 -0.18990934540E+03  0.34325913016E+02 -0.12583402141E+03  0.28751496141E+03  0.17200821002E+03 0.  0.
         24    2    3    3    0    0 -0.20672205627E+03  0.31679264171E+02 -0.14096097500E+03  0.26426444051E+03  0.78918399101E+02 0.  0.
         -6    2    1    2    0  502  0.18990934540E+03 -0.34325913016E+02 -0.39676254329E+03  0.47359145935E+03  0.17211777024E+03 0.  0.
        -24    2    5    5    0    0  0.13570987717E+03  0.14088447047E+02 -0.36001690930E+03  0.39202023750E+03  0.73837907085E+02 0.  0.
          5    1    3    3  501    0  0.16812710867E+02  0.26466488454E+01  0.15126953597E+02  0.23250520896E+02  0.47000000000E+01 0. -1.
        -11    1    4    4    0    0 -0.14378033481E+03  0.25018370259E+02 -0.13807347425E+03  0.20090542008E+03  0.00000000000E+00 0.  1.
         12    1    4    4    0    0 -0.62941721466E+02  0.66608939112E+01 -0.28875007524E+01  0.63359020426E+02  0.00000000000E+00 0. -1.
         -5    1    5    5    0  502  0.54199468231E+02 -0.48414360063E+02 -0.36745633992E+02  0.81571221851E+02  0.47000000000E+01 0.  1.
         13    1    6    6    0    0  0.81114935556E+02  0.94266903035E+01 -0.11558215626E+03  0.14151936300E+03  0.00000000000E+00 0. -1.
        -14    1    6    6    0    0  0.54594941618E+02  0.46617567431E+01 -0.24443475304E+03  0.25050087449E+03  0.00000000000E+00 0.  1.
</event>
<event>
12    1  0.9873238E-001  0.2051659E+03  0.7818608E-02  0.1145761E+00
         21   -1    0    0  501  502  0.00000000000E+00  0.00000000000E+00  0.47378611787E+02  0.47378611787E+02  0.00000000000E+00 0.  1.
         21   -1    0    0  502  503 -0.00000000000E+00 -0.00000000000E+00 -0.98380290015E+03  0.98380290015E+03  0.00000000000E+00 0.  1.
         -6    2    1    2    0  503 -0.36544720436E+02  0.10246422200E+03 -0.63258560575E+03  0.66456044768E+03  0.17216737971E+03 0.  0.
        -24    2    3    3    0    0  0.74491834349E+01  0.70477085366E+02 -0.18241809318E+03  0.21109433003E+03  0.79132455754E+02 0.  0.
          6    2    1    2  501    0  0.36544720436E+02 -0.10246422200E+03 -0.30383868261E+03  0.36662106425E+03  0.17395006848E+03 0.  0.
         24    2    5    5    0    0 -0.34049244903E+02 -0.11160344122E+03 -0.21566422567E+03  0.25320211466E+03  0.63131398406E+02 0.  0.
          5    1    5    5  501    0  0.70593965340E+02  0.91392192177E+01 -0.88174456941E+02  0.11341894959E+03  0.47000000000E+01 0. -1.
        -11    1    6    6    0    0 -0.18453507691E+02 -0.91200999752E+00 -0.50423997977E+02  0.53702358238E+02  0.00000000000E+00 0.  1.
         12    1    6    6    0    0 -0.15595737212E+02 -0.11069143122E+03 -0.16524022769E+03  0.19949975642E+03  0.00000000000E+00 0. -1.
         -5    1    3    3    0  503 -0.43993903871E+02  0.31987136632E+02 -0.45016751257E+03  0.45346611765E+03  0.47000000000E+01 0.  1.
         11    1    4    4    0    0 -0.33360813660E+01  0.79796523274E+02 -0.17961001162E+03  0.19656645400E+03  0.00000000000E+00 0. -1.
        -12    1    4    4    0    0  0.10785264801E+02 -0.93194379075E+01 -0.28080815649E+01  0.14527876025E+02  0.00000000000E+00 0.  1.
</event>
<event>
12    1  0.9873238E-001  0.3215288E+03  0.7818608E-02  0.1075009E+00
         21   -1    0    0  501  502  0.00000000000E+00  0.00000000000E+00  0.32247488433E+03  0.32247488433E+03  0.00000000000E+00 0. -1.
         21   -1    0    0  502  503 -0.00000000000E+00 -0.00000000000E+00 -0.33364354587E+03  0.33364354587E+03  0.00000000000E+00 0. -1.
         -6    2    1    2    0  503  0.23559076949E+03  0.13222084608E+03 -0.71793265235E+02  0.32944652445E+03  0.17434269911E+03 0.  0.
        -24    2    3    3    0    0  0.10974635033E+03  0.50010462229E+02  0.29837743040E+02  0.14793532124E+03  0.80307288700E+02 0.  0.
          6    2    1    2  501    0 -0.23559076949E+03 -0.13222084608E+03  0.60624603695E+02  0.32667190575E+03  0.17336040097E+03 0.  0.
         24    2    5    5    0    0 -0.65033363966E+02 -0.47290237087E+02 -0.27712162922E+02  0.11660403277E+03  0.79767358810E+02 0.  0.
          5    1    5    5  501    0 -0.17055740552E+03 -0.84930608994E+02  0.88336766617E+02  0.21006787298E+03  0.47000000000E+01 0. -1.
        -13    1    6    6    0    0 -0.68113386778E+02 -0.58290317620E+02 -0.33687199684E+01  0.89713671538E+02  0.00000000000E+00 0.  1.
         14    1    6    6    0    0  0.30800228114E+01  0.11000080534E+02 -0.24343442953E+02  0.26890361230E+02  0.00000000000E+00 0. -1.
         -5    1    3    3    0  503  0.12584441916E+03  0.82210383852E+02 -0.10163100828E+03  0.18151120321E+03  0.47000000000E+01 0.  1.
         13    1    4    4    0    0  0.39946540350E+01  0.31201286030E+01 -0.20980528424E+02  0.21584138536E+02  0.00000000000E+00 0. -1.
        -14    1    4    4    0    0  0.10575169629E+03  0.46890333626E+02  0.50818271465E+02  0.12635118271E+03  0.00000000000E+00 0.  1.
</event>
<event>
12    1  0.9873238E-001  0.2240601E+03  0.7818608E-02  0.1130904E+00
         21   -1    0    0  503  502  0.00000000000E+00  0.00000000000E+00  0.11113538108E+03  0.11113538108E+03  0.00000000000E+00 0. -1.
         21   -1    0    0  501  503 -0.00000000000E+00 -0.00000000000E+00 -0.47848369198E+03  0.47848369198E+03  0.00000000000E+00 0. -1.
          6    2    1    2  501    0 -0.94325794671E+01 -0.14300076666E+03 -0.11381621685E+03  0.25131072548E+03  0.17223459787E+03 0.  0.
         24    2    3    3    0    0 -0.21839367349E+02 -0.12622592188E+03 -0.17607483789E+02  0.15275346233E+03  0.81324384092E+02 0.  0.
         -6    2    1    2    0  502  0.94325794671E+01  0.14300076666E+03 -0.25353209405E+03  0.33830834758E+03  0.17215058091E+03 0.  0.
        -24    2    5    5    0    0  0.47203179602E+02  0.89649254811E+02 -0.23865132422E+03  0.27110321859E+03  0.79229865127E+02 0.  0.
          5    1    3    3  501    0  0.12406787882E+02 -0.16774844781E+02 -0.96208733057E+02  0.98557263149E+02  0.47000000000E+01 0. -1.
        -13    1    4    4    0    0 -0.11979194634E+02 -0.43247848888E+02  0.32419039273E+02  0.55361282905E+02  0.00000000000E+00 0.  1.
         14    1    4    4    0    0 -0.98601727158E+01 -0.82978072995E+02 -0.50026523063E+02  0.97392179428E+02  0.00000000000E+00 0. -1.
         -5    1    5    5    0  502 -0.37770600135E+02  0.53351511853E+02 -0.14880769834E+02  0.67205128989E+02  0.47000000000E+01 0.  1.
         13    1    6    6    0    0 -0.16282976185E+01  0.27447149112E+02 -0.10157066849E+02  0.29311488438E+02  0.00000000000E+00 0. -1.
        -14    1    6    6    0    0  0.48831477221E+02  0.62202105700E+02 -0.22849425737E+03  0.24179173015E+03  0.00000000000E+00 0.  1.
</event>
<event>
12    1  0.9873238E-001  0.5021872E+03  0.7818608E-02  0.1013270E+00
         21   -1    0    0  501  502  0.00000000000E+00  0.00000000000E+00  0.23969660191E+03  0.23969660191E+03  0.00000000000E+00 0. -1.
         21   -1    0    0  502  503 -0.00000000000E+00 -0.00000000000E+00 -0.11964302644E+04  0.11964302644E+04  0.00000000000E+00 0. -1.
         -6    2    1    2    0  503  0.74860678411E+02  0.46426392893E+03 -0.22771180205E+03  0.55140239993E+03  0.17620109245E+03 0.  0.
        -24    2    3    3    0    0  0.17182749112E+02  0.19979334675E+03 -0.16967809320E+03  0.27452438757E+03  0.79751838765E+02 0.  0.
          6    2    1    2  501    0 -0.74860678411E+02 -0.46426392893E+03 -0.72902186046E+03  0.88472446640E+03  0.17354939223E+03 0.  0.
         24    2    5    5    0    0 -0.63950830119E+02 -0.30336038955E+03 -0.59242664891E+03  0.67332599055E+03  0.79254782748E+02 0.  0.
          5    1    5    5  501    0 -0.10909848291E+02 -0.16090353938E+03 -0.13659521156E+03  0.21139847586E+03  0.47000000000E+01 0. -1.
        -11    1    6    6    0    0  0.10005355285E+02 -0.12129654791E+03 -0.26181112835E+03  0.28871790141E+03  0.00000000000E+00 0.  1.
         12    1    6    6    0    0 -0.73956185404E+02 -0.18206384164E+03 -0.33061552056E+03  0.38460808913E+03  0.00000000000E+00 0. -1.
         -5    1    3    3    0  503  0.57677929299E+02  0.26447058218E+03 -0.58033708854E+02  0.27687801236E+03  0.47000000000E+01 0.  1.
         13    1    4    4    0    0  0.28977663511E+02  0.75480119787E+02 -0.10894032519E+03  0.13566483671E+03  0.00000000000E+00 0. -1.
        -14    1    4    4    0    0 -0.11794914399E+02  0.12431322696E+03 -0.60737768005E+02  0.13885955086E+03  0.00000000000E+00 0.  1.
</event>
<event>
12    1  0.9873238E-001  0.2628565E+03  0.7818608E-02  0.1107027E+00
         21   -1    0    0  501  502  0.00000000000E+00  0.00000000000E+00  0.12303471759E+04  0.12303471759E+04  0.00000000000E+00 0. -1.
         21   -1    0    0  502  503 -0.00000000000E+00 -0.00000000000E+00 -0.84967517016E+02  0.84967517016E+02  0.00000000000E+00 0. -1.
         -6    2    1    2    0  503  0.58365788647E+01 -0.18396771558E+03  0.96266083467E+03  0.99519014099E+03  0.17265383888E+03 0.  0.
        -24    2    3    3    0    0 -0.38581151839E+02 -0.49082008405E+02  0.53273541679E+03  0.54239322874E+03  0.80534722041E+02 0.  0.
          6    2    1    2  501    0 -0.58365788647E+01  0.18396771558E+03  0.18271882426E+03  0.32012455198E+03  0.18765759779E+03 0.  0.
         24    2    5    5    0    0 -0.45950888538E+02  0.18741323770E+03  0.10703365049E+03  0.23426789823E+03  0.78676807133E+02 0.  0.
          5    1    5    5  501    0  0.40114309674E+02 -0.34455221201E+01  0.75685173775E+02  0.85856653747E+02  0.47000000000E+01 0. -1.
        -11    1    6    6    0    0  0.27996932218E+01  0.68351943133E+02  0.75344103565E+02  0.10176718702E+03  0.00000000000E+00 0.  1.
         12    1    6    6    0    0 -0.48750581760E+02  0.11906129457E+03  0.31689546921E+02  0.13250071121E+03  0.00000000000E+00 0. -1.
         -5    1    3    3    0  503  0.44417730703E+02 -0.13488570718E+03  0.42992541788E+03  0.45279691225E+03  0.47000000000E+01 0.  1.
         11    1    4    4    0    0 -0.36096104665E+02  0.10711889969E+02  0.13390759923E+03  0.13910038997E+03  0.00000000000E+00 0. -1.
        -12    1    4    4    0    0 -0.24850471742E+01 -0.59793898375E+02  0.39882781756E+03  0.40329283877E+03  0.00000000000E+00 0.  1.
</event>
<event>
12    1  0.9873238E-001  0.1913133E+03  0.7818608E-02  0.1157283E+00
         21   -1    0    0  503  502  0.00000000000E+00  0.00000000000E+00  0.53398347675E+03  0.53398347675E+03  0.00000000000E+00 0.  1.
         21   -1    0    0  501  503 -0.00000000000E+00 -0.00000000000E+00 -0.72141917846E+02  0.72141917846E+02  0.00000000000E+00 0.  1.
          6    2    1    2  501    0  0.83634361206E+02 -0.38209717408E+01  0.16321449680E+03  0.25147219787E+03  0.17201740649E+03 0.  0.
         24    2    3    3    0    0  0.60172358395E+02  0.49323724969E+02  0.45618997815E+02  0.12022580460E+03  0.79495965754E+02 0.  0.
         -6    2    1    2    0  502 -0.83634361206E+02  0.38209717408E+01  0.29862706210E+03  0.35465319672E+03  0.17202168912E+03 0.  0.
        -24    2    5    5    0    0 -0.60201255481E+02  0.34120147138E+02  0.29914168844E+03  0.31605908689E+03  0.74961463710E+02 0.  0.
          5    1    3    3  501    0  0.23462002811E+02 -0.53144696710E+02  0.11759549899E+03  0.13124639327E+03  0.47000000000E+01 0. -1.
        -11    1    4    4    0    0  0.37191622407E+02  0.54649972089E+02  0.62692674469E+02  0.91105475459E+02  0.00000000000E+00 0.  1.
         12    1    4    4    0    0  0.22980735989E+02 -0.53262471194E+01 -0.17073676654E+02  0.29120329144E+02  0.00000000000E+00 0. -1.
         -5    1    5    5    0  502 -0.23433105725E+02 -0.30299175397E+02 -0.51462633423E+00  0.38594109835E+02  0.47000000000E+01 0.  1.
         11    1    6    6    0    0  0.12064459913E+02  0.20282906167E+02  0.37843677481E+02  0.44599230945E+02  0.00000000000E+00 0. -1.
        -12    1    6    6    0    0 -0.72265715394E+02  0.13837240970E+02  0.26129801096E+03  0.27145985594E+03  0.00000000000E+00 0.  1.
</event>
<event>
12    1  0.9873238E-001  0.2535276E+03  0.7818608E-02  0.1111515E+00
         21   -1    0    0  503  502  0.00000000000E+00  0.00000000000E+00  0.17892763839E+03  0.17892763839E+03  0.00000000000E+00 0.  1.
         21   -1    0    0  501  503 -0.00000000000E+00 -0.00000000000E+00 -0.35624744307E+03  0.35624744307E+03  0.00000000000E+00 0.  1.
          6    2    1    2  501    0  0.16028503278E+03  0.94788498907E+02 -0.76334543987E+02  0.26477007866E+03  0.17204673984E+03 0.  0.
         24    2    3    3    0    0  0.12407055074E+03  0.13048614623E+03 -0.79621434285E+02  0.21359680065E+03  0.82848563848E+02 0.  0.
         -6    2    1    2    0  502 -0.16028503278E+03 -0.94788498907E+02 -0.10098526069E+03  0.27040500280E+03  0.16806157027E+03 0.  0.
        -24    2    5    5    0    0 -0.19734643280E+02  0.27027467782E+02 -0.28120103490E+02  0.70592683700E+02  0.55431458681E+02 0.  0.
          5    1    3    3  501    0  0.36214482041E+02 -0.35697647327E+02  0.32868902987E+01  0.51173278007E+02  0.47000000000E+01 0. -1.
        -13    1    4    4    0    0 -0.11933620947E+02  0.44003333711E+01 -0.59447400412E+01  0.14039735640E+02  0.00000000000E+00 0.  1.
         14    1    4    4    0    0  0.13600417169E+03  0.12608581286E+03 -0.73676694244E+02  0.19955706501E+03  0.00000000000E+00 0. -1.
         -5    1    5    5    0  502 -0.14055038950E+03 -0.12181596669E+03 -0.72865157199E+02  0.19981231910E+03  0.47000000000E+01 0.  1.
         13    1    6    6    0    0 -0.23445820139E+02 -0.61486323684E+01 -0.28231764618E+02  0.37209470507E+02  0.00000000000E+00 0. -1.
        -14    1    6    6    0    0  0.37111768590E+01  0.33176100150E+02  0.11166112749E+00  0.33383213192E+02  0.00000000000E+00 0.  1.
</event>
<event>
12    1  0.9873238E-001  0.2022876E+03  0.7818608E-02  0.1148152E+00
         21   -1    0    0  503  502  0.00000000000E+00  0.00000000000E+00  0.52212536355E+03  0.52212536355E+03  0.00000000000E+00 0.  1.
         21   -1    0    0  501  503 -0.00000000000E+00 -0.00000000000E+00 -0.79102758011E+02  0.79102758011E+02  0.00000000000E+00 0.  1.
          6    2    1    2  501    0  0.10199443700E+03 -0.29645807541E+02  0.25978971663E+03  0.32829119418E+03  0.17030170940E+03 0.  0.
         24    2    3    3    0    0  0.72831837282E+01 -0.51954051520E+02  0.84756112152E+02  0.12797461488E+03  0.80259798605E+02 0.  0.
         -6    2    1    2    0  502 -0.10199443700E+03  0.29645807541E+02  0.18323288891E+03  0.27293692738E+03  0.17215846092E+03 0.  0.
        -24    2    5    5    0    0 -0.72006602461E+02  0.73785888262E+02  0.17616626661E+03  0.21890319627E+03  0.79086963172E+02 0.  0.
          5    1    3    3  501    0  0.94711253273E+02  0.22308243979E+02  0.17503360448E+03  0.20031657930E+03  0.47000000000E+01 0. -1.
        -11    1    4    4    0    0  0.15997245985E+01 -0.11394111677E+02  0.86227723549E+02  0.86991983585E+02  0.00000000000E+00 0.  1.
         12    1    4    4    0    0  0.56834591297E+01 -0.40559939843E+02 -0.14716113973E+01  0.40982631294E+02  0.00000000000E+00 0. -1.
         -5    1    5    5    0  502 -0.29987834540E+02 -0.44140080721E+02  0.70666222994E+01  0.54033731105E+02  0.47000000000E+01 0.  1.
         11    1    6    6    0    0 -0.10597070827E+02  0.36837258381E+01  0.93974002163E+02  0.94641327277E+02  0.00000000000E+00 0. -1.
        -12    1    6    6    0    0 -0.61409531634E+02  0.70102162424E+02  0.82192264444E+02  0.12426186900E+03  0.00000000000E+00 0.  1.
</event>
<event>
12    1  0.9873238E-001  0.1824336E+03  0.7818608E-02  0.1165539E+00
         21   -1    0    0  501  502  0.00000000000E+00  0.00000000000E+00  0.57469592774E+03  0.57469592774E+03  0.00000000000E+00 0. -1.
         21   -1    0    0  502  503 -0.00000000000E+00 -0.00000000000E+00 -0.58208292935E+02  0.58208292935E+02  0.00000000000E+00 0. -1.
         -6    2    1    2    0  503  0.42110858649E+02 -0.39611495680E+02  0.23255571840E+03  0.29557435312E+03  0.17303075176E+03 0.  0.
        -24    2    3    3    0    0  0.30211440361E+02 -0.76095501260E+02  0.83177107613E+02  0.14127354891E+03  0.79602311210E+02 0.  0.
          6    2    1    2  501    0 -0.42110858649E+02  0.39611495680E+02  0.28393191640E+03  0.33732986756E+03  0.17271859016E+03 0.  0.
         24    2    5    5    0    0 -0.78741202561E+02  0.64466043452E+02  0.16310206214E+03  0.20856079394E+03  0.80865779864E+02 0.  0.
          5    1    5    5  501    0  0.36630343913E+02 -0.24854547773E+02  0.12082985426E+03  0.12876907362E+03  0.47000000000E+01 0. -1.
        -11    1    6    6    0    0 -0.31542707666E+02 -0.16611867631E+02  0.36893581846E+02  0.51303342333E+02  0.00000000000E+00 0.  1.
         12    1    6    6    0    0 -0.47198494895E+02  0.81077911084E+02  0.12620848030E+03  0.15725745161E+03  0.00000000000E+00 0. -1.
         -5    1    3    3    0  503  0.11899418287E+02  0.36484005580E+02  0.14937861079E+03  0.15430080421E+03  0.47000000000E+01 0.  1.
         13    1    4    4    0    0  0.16427289128E+02 -0.13474534886E+02 -0.13567693442E+02  0.25209149605E+02  0.00000000000E+00 0. -1.
        -14    1    4    4    0    0  0.13784151233E+02 -0.62620966373E+02  0.96744801055E+02  0.11606439930E+03  0.00000000000E+00 0.  1.
</event>
<event>
12    1  0.1343726E+000  0.2005208E+03  0.7818608E-02  0.1149338E+00
         21   -1    0    0  503  502  0.00000000000E+00  0.00000000000E+00  0.10015406215E+04  0.10015406215E+04  0.00000000000E+00 0. -1.
         21   -1    0    0  501  503 -0.00000000000E+00 -0.00000000000E+00 -0.15903427862E+03  0.15903427862E+03  0.00000000000E+00 0. -1.
          6    2    1    2  501    0 -0.21993940331E+02  0.99572077139E+02  0.92310215316E+03  0.94463018758E+03  0.17265652077E+03 0.  0.
         24    2    3    3    0    0  0.31978366847E+02  0.94622468134E+02  0.43602847275E+03  0.45452778123E+03  0.80614188780E+02 0.  0.
         -6    2    1    2    0  502  0.21993940331E+02 -0.99572077139E+02 -0.80595810279E+02  0.21594471253E+03  0.17244738989E+03 0.  0.
        -24    2    5    5    0    0  0.78998963531E+02 -0.48217972959E+02 -0.60620416700E+02  0.13652227845E+03  0.79985551433E+02 0.  0.
          5    1    3    3  501    0 -0.53972307178E+02  0.49496090051E+01  0.48707368041E+03  0.49010240636E+03  0.47000000000E+01 0. -1.
        -11    1    4    4    0    0  0.47759302057E+02  0.21260113939E+02  0.20801781983E+03  0.21448626237E+03  0.00000000000E+00 0.  1.
         12    1    4    4    0    0 -0.15780935211E+02  0.73362354195E+02  0.22801065292E+03  0.24004151885E+03  0.00000000000E+00 0. -1.
         -5    1    5    5    0  502 -0.57005023200E+02 -0.51354104179E+02 -0.19975393579E+02  0.79422434077E+02  0.47000000000E+01 0.  1.
         11    1    6    6    0    0  0.12285829929E+02 -0.53821611110E+02 -0.30999047238E+02  0.63313887649E+02  0.00000000000E+00 0. -1.
        -12    1    6    6    0    0  0.66713133602E+02  0.56036381504E+01 -0.29621369461E+02  0.73208390805E+02  0.00000000000E+00 0.  1.
</event>
<event>
12    1  0.9873238E-001  0.2863377E+03  0.7818608E-02  0.1092331E+00
         21   -1    0    0  503  502  0.00000000000E+00  0.00000000000E+00  0.56603680778E+03  0.56603680778E+03  0.00000000000E+00 0. -1.
         21   -1    0    0  501  503 -0.00000000000E+00 -0.00000000000E+00 -0.22965248937E+03  0.22965248937E+03  0.00000000000E+00 0.  1.
          6    2    1    2  501    0  0.20794907677E+03 -0.95887851366E+02  0.41017035421E+03  0.49999744455E+03  0.17123208378E+03 0.  0.
         24    2    3    3    0    0  0.12806612891E+03 -0.11192048638E+03  0.20118599306E+03  0.27564307319E+03  0.81093596223E+02 0.  0.
         -6    2    1    2    0  502 -0.20794907677E+03  0.95887851366E+02 -0.73786035800E+02  0.29569185259E+03  0.17190693423E+03 0.  0.
        -24    2    5    5    0    0 -0.20240016554E+03  0.12848302262E+03 -0.60077476882E+02  0.25959129591E+03  0.79401659738E+02 0.  0.
          5    1    3    3  501    0  0.79882947868E+02  0.16032635015E+02  0.20898436115E+03  0.22435437137E+03  0.47000000000E+01 0. -1.
        -11    1    4    4    0    0  0.28174768358E+02  0.80305821102E+01  0.15782142678E+02  0.33277377429E+02  0.00000000000E+00 0.  1.
         12    1    4    4    0    0  0.99891360547E+02 -0.11995106849E+03  0.18540385038E+03  0.24236569576E+03  0.00000000000E+00 0. -1.
         -5    1    5    5    0  502 -0.55489112359E+01 -0.32595171257E+02 -0.13708558918E+02  0.36100556683E+02  0.47000000000E+01 0.  1.
         11    1    6    6    0    0 -0.12047527607E+03  0.40253959043E+02 -0.48114823026E+01  0.12711342858E+03  0.00000000000E+00 0. -1.
        -12    1    6    6    0    0 -0.81924889464E+02  0.88229063580E+02 -0.55265994580E+02  0.13247786732E+03  0.00000000000E+00 0.  1.
</event>
<event>
12    1  0.9873238E-001  0.2588461E+03  0.7818608E-02  0.1107894E+00
         21   -1    0    0  503  502  0.00000000000E+00  0.00000000000E+00  0.39732124149E+03  0.39732124149E+03  0.00000000000E+00 0. -1.
         21   -1    0    0  501  503 -0.00000000000E+00 -0.00000000000E+00 -0.59887938591E+03  0.59887938591E+03  0.00000000000E+00 0. -1.
          6    2    1    2  501    0  0.17757869768E+03 -0.76807767343E+02  0.32154628764E+03  0.41255727769E+03  0.17139972370E+03 0.  0.
         24    2    3    3    0    0  0.94334538743E+02 -0.21883099668E+02  0.75560716568E+02  0.14708166621E+03  0.80905620294E+02 0.  0.
         -6    2    1    2    0  502 -0.17757869768E+03  0.76807767343E+02 -0.52310443206E+03  0.58364334971E+03  0.17195256853E+03 0.  0.
        -24    2    5    5    0    0 -0.11330669061E+03  0.38738991697E+02 -0.16990160309E+03  0.22259702171E+03  0.79647747773E+02 0.  0.
          5    1    3    3  501    0  0.83244158936E+02 -0.54924667675E+02  0.24598557107E+03  0.26547561148E+03  0.47000000000E+01 0. -1.
        -13    1    4    4    0    0  0.46888120653E+02 -0.40703510481E+02  0.73196141175E+02  0.95984096114E+02  0.00000000000E+00 0.  1.
         14    1    4    4    0    0  0.47446418090E+02  0.18820410813E+02  0.23645753930E+01  0.51097570094E+02  0.00000000000E+00 0. -1.
         -5    1    5    5    0  502 -0.64272007069E+02  0.38068775646E+02 -0.35320282897E+03  0.36104632800E+03  0.47000000000E+01 0.  1.
         13    1    6    6    0    0 -0.54694865275E+02  0.23514538027E+02 -0.23213943161E+02  0.63901087183E+02  0.00000000000E+00 0. -1.
        -14    1    6    6    0    0 -0.58611825335E+02  0.15224453669E+02 -0.14668765993E+03  0.15869593452E+03  0.00000000000E+00 0.  1.
</event>
<event>
12    1  0.9873238E-001  0.2074431E+03  0.7818608E-02  0.1147162E+00
         21   -1    0    0  501  502  0.00000000000E+00  0.00000000000E+00  0.12538528175E+03  0.12538528175E+03  0.00000000000E+00 0. -1.
         21   -1    0    0  502  503 -0.00000000000E+00 -0.00000000000E+00 -0.31653683399E+03  0.31653683399E+03  0.00000000000E+00 0. -1.
         -6    2    1    2    0  503 -0.69291898979E+02  0.32311974812E+02 -0.89172110209E+02  0.22579705861E+03  0.19283986998E+03 0.  0.
        -24    2    3    3    0    0  0.42497254506E+02  0.22217225047E+01 -0.29491123645E+02  0.95466140255E+02  0.80206638565E+02 0.  0.
          6    2    1    2  501    0  0.69291898979E+02 -0.32311974812E+02 -0.10197944203E+03  0.21612505713E+03  0.17454169342E+03 0.  0.
         24    2    5    5    0    0  0.16825611098E+02 -0.71176334899E+02 -0.10399484741E+03  0.15063229640E+03  0.80783591110E+02 0.  0.
          5    1    5    5  501    0  0.52466287880E+02  0.38864360087E+02  0.20154053797E+01  0.65492760728E+02  0.47000000000E+01 0. -1.
        -11    1    6    6    0    0 -0.27358826894E+02 -0.16782208108E+02 -0.10460026854E+02  0.33757370747E+02  0.00000000000E+00 0.  1.
         12    1    6    6    0    0  0.44184437992E+02 -0.54394126791E+02 -0.93534820559E+02  0.11687492566E+03  0.00000000000E+00 0. -1.
         -5    1    3    3    0  503 -0.11178915348E+03  0.30090252308E+02 -0.59680986564E+02  0.13033091835E+03  0.47000000000E+01 0.  1.
         11    1    4    4    0    0  0.17769665093E+02  0.17293529350E+02 -0.52773637108E+02  0.58308523635E+02  0.00000000000E+00 0. -1.
        -12    1    4    4    0    0  0.24727589413E+02 -0.15071806845E+02  0.23282513463E+02  0.37157616620E+02  0.00000000000E+00 0.  1.
</event>
<event>
12    1  0.9873238E-001  0.1958194E+03  0.7818608E-02  0.1153516E+00
         21   -1    0    0  501  502  0.00000000000E+00  0.00000000000E+00  0.52355986078E+03  0.52355986078E+03  0.00000000000E+00 0. -1.
         21   -1    0    0  502  503 -0.00000000000E+00 -0.00000000000E+00 -0.76425289963E+02  0.76425289963E+02  0.00000000000E+00 0. -1.
         -6    2    1    2    0  503  0.92200602992E+02 -0.41924611574E+01  0.15958872288E+03  0.25261392192E+03  0.17270409710E+03 0.  0.
        -24    2    3    3    0    0  0.13005866857E+03  0.22692612117E+00  0.10075546671E+03  0.18235578257E+03  0.78655315137E+02 0.  0.
          6    2    1    2  501    0 -0.92200602992E+02  0.41924611574E+01  0.28754584794E+03  0.34737122882E+03  0.17165555052E+03 0.  0.
         24    2    5    5    0    0 -0.99974577749E+02  0.47008932124E+02  0.14992216946E+03  0.20295498407E+03  0.80680312146E+02 0.  0.
          5    1    5    5  501    0  0.77739747573E+01 -0.42816470966E+02  0.13762367848E+03  0.14441624475E+03  0.47000000000E+01 0. -1.
        -11    1    6    6    0    0 -0.13436162713E+02 -0.99304438814E+01 -0.42252907335E+01  0.17233608615E+02  0.00000000000E+00 0.  1.
         12    1    6    6    0    0 -0.86538415037E+02  0.56939376005E+02  0.15414746020E+03  0.18572137546E+03  0.00000000000E+00 0. -1.
         -5    1    3    3    0  503 -0.37858065582E+02 -0.44193872786E+01  0.58833256166E+02  0.70258139348E+02  0.47000000000E+01 0.  1.
         11    1    4    4    0    0 -0.94883857263E+01  0.77170911517E+01  0.88130953231E+01  0.15074933125E+02  0.00000000000E+00 0. -1.
        -12    1    4    4    0    0  0.13954705430E+03 -0.74901650305E+01  0.91942371386E+02  0.16728084945E+03  0.00000000000E+00 0.  1.
</event>
<event>
12    1  0.9873238E-001  0.2101702E+03  0.7818608E-02  0.1141729E+00
         21   -1    0    0  501  502  0.00000000000E+00  0.00000000000E+00  0.93298667821E+02  0.93298667821E+02  0.00000000000E+00 0. -1.
         21   -1    0    0  502  503 -0.00000000000E+00 -0.00000000000E+00 -0.60820164624E+03  0.60820164624E+03  0.00000000000E+00 0. -1.
         -6    2    1    2    0  503 -0.11756337901E+03  0.61018513523E+01 -0.42389454950E+03  0.47247183185E+03  0.17229237395E+03 0.  0.
        -24    2    3    3    0    0 -0.67454628318E+01  0.13623905705E+02 -0.27408567719E+03  0.28591894372E+03  0.79972319342E+02 0.  0.
          6    2    1    2  501    0  0.11756337901E+03 -0.61018513523E+01 -0.91008428926E+02  0.22902848222E+03  0.17410666517E+03 0.  0.
         24    2    5    5    0    0  0.51719987797E+02 -0.67482449371E+02 -0.53387740107E+02  0.13135383757E+03  0.84703847257E+02 0.  0.
          5    1    5    5  501    0  0.65843391212E+02  0.61380598018E+02 -0.37620688819E+02  0.97674644646E+02  0.47000000000E+01 0. -1.
        -13    1    6    6    0    0  0.58862668991E+01 -0.50257088167E+02  0.96719633523E+01  0.51516695586E+02  0.00000000000E+00 0.  1.
         14    1    6    6    0    0  0.45833720898E+02 -0.17225361204E+02 -0.63059703459E+02  0.79837141985E+02  0.00000000000E+00 0. -1.
         -5    1    3    3    0  503 -0.11081791618E+03 -0.75220543528E+01 -0.14980887230E+03  0.18655288813E+03  0.47000000000E+01 0.  1.
         11    1    4    4    0    0 -0.22773616092E+02  0.11349697113E+02 -0.22961964878E+02  0.34273970379E+02  0.00000000000E+00 0. -1.
        -12    1    4    4    0    0  0.16028153261E+02  0.22742085920E+01 -0.25112371231E+03  0.25164497334E+03  0.00000000000E+00 0.  1.
</event>
<event>
12    1  0.9873238E-001  0.1838834E+03  0.7818608E-02  0.1164101E+00
         21   -1    0    0  501  502  0.00000000000E+00  0.00000000000E+00  0.22143970713E+02  0.22143970713E+02  0.00000000000E+00 0. -1.
         21   -1    0    0  502  503 -0.00000000000E+00 -0.00000000000E+00 -0.17010069363E+04  0.17010069363E+04  0.00000000000E+00 0. -1.
         -6    2    1    2    0  503  0.12737403878E+02  0.60736829905E+02 -0.56369910493E+03  0.59292812137E+03  0.17307764805E+03 0.  0.
        -24    2    3    3    0    0 -0.58872304903E+02  0.23973319380E+02 -0.30364646521E+03  0.32066176002E+03  0.81130266741E+02 0.  0.
          6    2    1    2  501    0 -0.12737403878E+02 -0.60736829905E+02 -0.11151638607E+04  0.11302227857E+04  0.17309507530E+03 0.  0.
         24    2    5    5    0    0  0.63507113499E+01 -0.10471698674E+03 -0.90965092818E+03  0.91913923404E+03  0.79662673635E+02 0.  0.
          5    1    5    5  501    0 -0.19088115228E+02  0.43980156836E+02 -0.20551293250E+03  0.21108355161E+03  0.47000000000E+01 0. -1.
        -13    1    6    6    0    0  0.14590734246E+02 -0.25109202016E+02 -0.54662484865E+03  0.54739573136E+03  0.00000000000E+00 0.  1.
         14    1    6    6    0    0 -0.82400228963E+01 -0.79607784725E+02 -0.36302607953E+03  0.37174350268E+03  0.00000000000E+00 0. -1.
         -5    1    3    3    0  503  0.71609708781E+02  0.36763510526E+02 -0.26005263972E+03  0.27226636135E+03  0.47000000000E+01 0.  1.
         11    1    4    4    0    0 -0.55246703253E+02  0.40458636970E+00 -0.28523179697E+03  0.29053319933E+03  0.00000000000E+00 0. -1.
        -12    1    4    4    0    0 -0.36256016500E+01  0.23568733010E+02 -0.18414668233E+02  0.30128560688E+02  0.00000000000E+00 0.  1.
</event>
<event>
12    1  0.9873238E-001  0.2303517E+03  0.7818608E-02  0.1126452E+00
         21   -1    0    0  501  502  0.00000000000E+00  0.00000000000E+00  0.27847476640E+03  0.27847476640E+03  0.00000000000E+00 0. -1.
         21   -1    0    0  502  503 -0.00000000000E+00 -0.00000000000E+00 -0.34947845815E+03  0.34947845815E+03  0.00000000000E+00 0. -1.
         -6    2    1    2    0  503  0.14823144748E+03 -0.37181050676E+02  0.17640542015E+03  0.29013927311E+03  0.17235699287E+03 0.  0.
        -24    2    3    3    0    0  0.62261913665E+02 -0.71965509778E+02  0.14854690144E+03  0.19319131591E+03  0.78747203931E+02 0.  0.
          6    2    1    2  501    0 -0.14823144748E+03  0.37181050676E+02 -0.24740911190E+03  0.33781395144E+03  0.17190696491E+03 0.  0.
         24    2    5    5    0    0 -0.83847978489E+02 -0.23764387346E+01 -0.23395190057E+03  0.26091653546E+03  0.79421758594E+02 0.  0.
          5    1    5    5  501    0 -0.64383468991E+02  0.39557489411E+02 -0.13457211331E+02  0.76897415982E+02  0.47000000000E+01 0. -1.
        -11    1    6    6    0    0 -0.97304025508E+02 -0.18215984328E+01 -0.22382100596E+03  0.24406399634E+03  0.00000000000E+00 0.  1.
         12    1    6    6    0    0  0.13456047019E+02 -0.55484030185E+00 -0.10130894609E+02  0.16852539118E+02  0.00000000000E+00 0. -1.
         -5    1    3    3    0  503  0.85969533816E+02  0.34784459102E+02  0.27858518712E+02  0.96947957195E+02  0.47000000000E+01 0.  1.
         11    1    4    4    0    0  0.23362212426E+02 -0.71717373084E+02  0.59674178347E+02  0.96177867167E+02  0.00000000000E+00 0. -1.
        -12    1    4    4    0    0  0.38899701239E+02 -0.24813669485E+00  0.88872723088E+02  0.97013448745E+02  0.00000000000E+00 0.  1.
</event>
<event>
12    1  0.9873238E-001  0.2230142E+03  0.7818608E-02  0.1131730E+00
         21   -1    0    0  501  502  0.00000000000E+00  0.00000000000E+00  0.53113080761E+03  0.53113080761E+03  0.00000000000E+00 0. -1.
         21   -1    0    0  502  503 -0.00000000000E+00 -0.00000000000E+00 -0.12159778244E+03  0.12159778244E+03  0.00000000000E+00 0. -1.
         -6    2    1    2    0  503  0.14026736104E+03 -0.15543899608E+02  0.47654025514E+02  0.22765010084E+03  0.17215434028E+03 0.  0.
        -24    2    3    3    0    0  0.79238764467E+02 -0.60836595230E+02  0.75825274753E+02  0.14646126442E+03  0.75640971499E+02 0.  0.
          6    2    1    2  501    0 -0.14026736104E+03  0.15543899608E+02  0.36187899965E+03  0.42507848921E+03  0.17268111134E+03 0.  0.
         24    2    5    5    0    0 -0.14712169506E+03 -0.25117877677E+02  0.33734343927E+03  0.37686598305E+03  0.77147081788E+02 0.  0.
          5    1    5    5  501    0  0.68543340193E+01  0.40661777285E+02  0.24535560382E+02  0.48212506159E+02  0.47000000000E+01 0. -1.
        -11    1    6    6    0    0 -0.88985221893E+02 -0.29997064550E+02  0.27891007712E+03  0.29429411260E+03  0.00000000000E+00 0.  1.
         12    1    6    6    0    0 -0.58136473166E+02  0.48791868726E+01  0.58433362152E+02  0.82571870447E+02  0.00000000000E+00 0. -1.
         -5    1    3    3    0  503  0.61028596573E+02  0.45292695622E+02 -0.28171249240E+02  0.81188836425E+02  0.47000000000E+01 0.  1.
         11    1    4    4    0    0  0.14718215762E+00 -0.86121469279E+01 -0.13637042855E+02  0.16129466052E+02  0.00000000000E+00 0. -1.
        -12    1    4    4    0    0  0.79091582309E+02 -0.52224448302E+02  0.89462317608E+02  0.13033179836E+03  0.00000000000E+00 0.  1.
</event>
<event>
12    1  0.9873238E-001  0.1831715E+03  0.7818608E-02  0.1165139E+00
         21   -1    0    0  501  502  0.00000000000E+00  0.00000000000E+00  0.22636716176E+02  0.22636716176E+02  0.00000000000E+00 0. -1.
         21   -1    0    0  502  503 -0.00000000000E+00 -0.00000000000E+00 -0.19647650817E+04  0.19647650817E+04  0.00000000000E+00 0. -1.
         -6    2    1    2    0  503 -0.17956343693E+02 -0.54666461720E+02 -0.46910282453E+03  0.50303120778E+03  0.17225586695E+03 0.  0.
        -24    2    3    3    0    0  0.69913986135E+01  0.28873227134E+02 -0.15153394462E+03  0.17367827710E+03  0.79492544707E+02 0.  0.
          6    2    1    2  501    0  0.17956343693E+02  0.54666461720E+02 -0.14730255410E+04  0.14843705901E+04  0.17389925824E+03 0.  0.
         24    2    5    5    0    0  0.72413004691E+02  0.50954732973E+02 -0.76844568441E+03  0.77766402499E+03  0.80078323052E+02 0.  0.
          5    1    5    5  501    0 -0.54456660998E+02  0.37117287474E+01 -0.70457985660E+03  0.70670656512E+03  0.47000000000E+01 0. -1.
        -13    1    6    6    0    0  0.35510617411E+02 -0.31387382536E+01 -0.10281041420E+03  0.10881560961E+03  0.00000000000E+00 0.  1.
         14    1    6    6    0    0  0.36902387280E+02  0.54093471226E+02 -0.66563527021E+03  0.66884841538E+03  0.00000000000E+00 0. -1.
         -5    1    3    3    0  503 -0.24947742307E+02 -0.83539688854E+02 -0.31756887991E+03  0.32935293068E+03  0.47000000000E+01 0.  1.
         11    1    4    4    0    0  0.28735154116E+02  0.13464464663E+02 -0.15980477097E+02  0.35529938628E+02  0.00000000000E+00 0. -1.
        -12    1    4    4    0    0 -0.21743755502E+02  0.15408762471E+02 -0.13555346753E+03  0.13814833847E+03  0.00000000000E+00 0.  1.
</event>
<event>
12    1  0.9873238E-001  0.1962247E+03  0.7818608E-02  0.1153293E+00
         21   -1    0    0  501  502  0.00000000000E+00  0.00000000000E+00  0.82577354805E+02  0.82577354805E+02  0.00000000000E+00 0.  1.
         21   -1    0    0  502  503 -0.00000000000E+00 -0.00000000000E+00 -0.54657254877E+03  0.54657254877E+03  0.00000000000E+00 0.  1.
         -6    2    1    2    0  503  0.54063809394E+02 -0.73489740188E+02 -0.35599631172E+03  0.40649415578E+03  0.17372532150E+03 0.  0.
        -24    2    3    3    0    0 -0.12865978851E+02 -0.15616301387E+02 -0.70453315872E+02  0.10751953487E+03  0.78659890549E+02 0.  0.
          6    2    1    2  501    0 -0.54063809394E+02  0.73489740188E+02 -0.10799888225E+03  0.22265574779E+03  0.17201216834E+03 0.  0.
         24    2    5    5    0    0 -0.11240546931E+02  0.24614413986E+02 -0.12921497928E+03  0.15413683002E+03  0.79557728893E+02 0.  0.
          5    1    5    5  501    0 -0.42823262463E+02  0.48875326203E+02  0.21216097031E+02  0.68518917772E+02  0.47000000000E+01 0. -1.
        -11    1    6    6    0    0 -0.39084787439E+02  0.26425235043E+02 -0.11153744743E+03  0.12110539144E+03  0.00000000000E+00 0.  1.
         12    1    6    6    0    0  0.27844240508E+02 -0.18108210570E+01 -0.17677531852E+02  0.33031438581E+02  0.00000000000E+00 0. -1.
         -5    1    3    3    0  503  0.66929788245E+02 -0.57873438801E+02 -0.28554299584E+03  0.29897462091E+03  0.47000000000E+01 0.  1.
         13    1    4    4    0    0 -0.21409825195E+02  0.50627651797E+01 -0.80164363564E+02  0.83128439127E+02  0.00000000000E+00 0. -1.
        -14    1    4    4    0    0  0.85438463435E+01 -0.20679066567E+02  0.97110476916E+01  0.24391095746E+02  0.00000000000E+00 0.  1.
</event>
<event>
12    1  0.9873238E-001  0.6277790E+03  0.7818608E-02  0.9850083E-01
         21   -1    0    0  503  502  0.00000000000E+00  0.00000000000E+00  0.48070859907E+03  0.48070859907E+03  0.00000000000E+00 0. -1.
         21   -1    0    0  501  503 -0.00000000000E+00 -0.00000000000E+00 -0.13523199815E+04  0.13523199815E+04  0.00000000000E+00 0.  1.
          6    2    1    2  501    0  0.47155310728E+03 -0.37477060945E+03 -0.10116081081E+04  0.11898291305E+04  0.17183437612E+03 0.  0.
         24    2    3    3    0    0  0.42266733784E+03 -0.29108852270E+03 -0.76246384029E+03  0.92245772916E+03  0.78720694921E+02 0.  0.
         -6    2    1    2    0  502 -0.47155310728E+03  0.37477060945E+03  0.13999672561E+03  0.64319945008E+03  0.17689292443E+03 0.  0.
        -24    2    5    5    0    0 -0.13377470752E+03  0.68238520266E+02  0.11580281326E+02  0.16931228819E+03  0.77332916644E+02 0.  0.
          5    1    3    3  501    0  0.48885769440E+02 -0.83682086750E+02 -0.24914426777E+03  0.26737140135E+03  0.47000000000E+01 0. -1.
        -13    1    4    4    0    0  0.21688680649E+03 -0.19595905280E+03 -0.41661349171E+03  0.50892694828E+03  0.00000000000E+00 0.  1.
         14    1    4    4    0    0  0.20578053135E+03 -0.95129469897E+02 -0.34585034858E+03  0.41353078088E+03  0.00000000000E+00 0. -1.
         -5    1    5    5    0  502 -0.33777839977E+03  0.30653208918E+03  0.12841644428E+03  0.47388716190E+03  0.47000000000E+01 0.  1.
         13    1    6    6    0    0  0.15654574421E+01 -0.10954817397E+02 -0.39218796641E+01  0.11740520487E+02  0.00000000000E+00 0. -1.
        -14    1    6    6    0    0 -0.13534016496E+03  0.79193337663E+02  0.15502160990E+02  0.15757176770E+03  0.00000000000E+00 0.  1.
</event>
<event>
12    1  0.9873238E-001  0.4515587E+03  0.7818608E-02  0.1027276E+00
         21   -1    0    0  501  502  0.00000000000E+00  0.00000000000E+00  0.15140641015E+03  0.15140641015E+03  0.00000000000E+00 0. -1.
         21   -1    0    0  502  503 -0.00000000000E+00 -0.00000000000E+00 -0.13594200935E+04  0.13594200935E+04  0.00000000000E+00 0.  1.
         -6    2    1    2    0  503  0.40958611562E+03 -0.80803087467E+02 -0.52920872186E+03  0.69567743007E+03  0.17209093632E+03 0.  0.
        -24    2    3    3    0    0  0.38397283952E+03 -0.37126173422E+02 -0.42528935722E+03  0.57998370906E+03  0.81832580140E+02 0.  0.
          6    2    1    2  501    0 -0.40958611562E+03  0.80803087467E+02 -0.67880496151E+03  0.81514907361E+03  0.17146985561E+03 0.  0.
         24    2    5    5    0    0 -0.13506819093E+03  0.64648954020E+02 -0.18908914063E+03  0.25348661071E+03  0.77960600629E+02 0.  0.
          5    1    5    5  501    0 -0.27451792469E+03  0.16154133447E+02 -0.48971582088E+03  0.56166246290E+03  0.47000000000E+01 0. -1.
        -11    1    6    6    0    0 -0.10842148311E+01  0.18064721654E+02 -0.13010181060E+01  0.18143933927E+02  0.00000000000E+00 0.  1.
         12    1    6    6    0    0 -0.13398397610E+03  0.46584232366E+02 -0.18778812252E+03  0.23534267679E+03  0.00000000000E+00 0. -1.
         -5    1    3    3    0  503  0.25613276101E+02 -0.43676914045E+02 -0.10391936464E+03  0.11569372101E+03  0.47000000000E+01 0.  1.
         13    1    4    4    0    0  0.26310920424E+03 -0.54891038934E+02 -0.32635169852E+03  0.42278234429E+03  0.00000000000E+00 0. -1.
        -14    1    4    4    0    0  0.12086363528E+03  0.17764865512E+02 -0.98937658700E+02  0.15720136478E+03  0.00000000000E+00 0.  1.
</event>
<event>
12    1  0.9873238E-001  0.1978869E+03  0.7818608E-02  0.1151965E+00
         21   -1    0    0  501  502  0.00000000000E+00  0.00000000000E+00  0.39752924282E+03  0.39752924282E+03  0.00000000000E+00 0.  1.
         21   -1    0    0  502  503 -0.00000000000E+00 -0.00000000000E+00 -0.30081685781E+03  0.30081685781E+03  0.00000000000E+00 0.  1.
         -6    2    1    2    0  503  0.87377280136E+02 -0.39834747858E+02  0.33548805041E+03  0.38950156201E+03  0.17302496531E+03 0.  0.
        -24    2    3    3    0    0  0.87499919613E+01  0.30393889199E+02  0.11176286817E+03  0.14213673210E+03  0.81924117633E+02 0.  0.
          6    2    1    2  501    0 -0.87377280136E+02  0.39834747858E+02 -0.23877566540E+03  0.30884453862E+03  0.17073234735E+03 0.  0.
         24    2    5    5    0    0  0.12539395176E+02 -0.10323271570E+02 -0.12788427291E+03  0.15130673412E+03  0.79218269150E+02 0.  0.
          5    1    5    5  501    0 -0.99916675312E+02  0.50158019428E+02 -0.11089139249E+03  0.15753780450E+03  0.47000000000E+01 0. -1.
        -13    1    6    6    0    0  0.20824913290E+02  0.31443376904E+02 -0.69082943421E+02  0.78707153655E+02  0.00000000000E+00 0.  1.
         14    1    6    6    0    0 -0.82855181138E+01 -0.41766648473E+02 -0.58801329485E+02  0.72599580469E+02  0.00000000000E+00 0. -1.
         -5    1    3    3    0  503  0.78627288174E+02 -0.70228637058E+02  0.22372518224E+03  0.24736482991E+03  0.47000000000E+01 0.  1.
         13    1    4    4    0    0  0.20779731728E+01  0.49068280735E+02  0.11201080801E+03  0.12230468208E+03  0.00000000000E+00 0. -1.
        -14    1    4    4    0    0  0.66720187886E+01 -0.18674391536E+02 -0.24793983816E+00  0.19832050023E+02  0.00000000000E+00 0.  1.
</event>
<event>
12    1  0.9873238E-001  0.2017745E+03  0.7818608E-02  0.1149348E+00
         21   -1    0    0  501  502  0.00000000000E+00  0.00000000000E+00  0.14535372462E+04  0.14535372462E+04  0.00000000000E+00 0. -1.
         21   -1    0    0  502  503 -0.00000000000E+00 -0.00000000000E+00 -0.31129242256E+02  0.31129242256E+02  0.00000000000E+00 0. -1.
         -6    2    1    2    0  503  0.82375047285E+02 -0.49526673370E+02  0.96363928964E+03  0.98348621557E+03  0.17148153223E+03 0.  0.
        -24    2    3    3    0    0  0.74296377749E+01  0.11790166029E+02  0.65525961683E+03  0.66022675044E+03  0.79624047920E+02 0.  0.
          6    2    1    2  501    0 -0.82375047285E+02  0.49526673370E+02  0.45876871433E+03  0.50118027291E+03  0.17741023904E+03 0.  0.
         24    2    5    5    0    0 -0.32344686067E+02  0.96343328197E+02  0.33683258202E+03  0.36123261636E+03  0.81881616998E+02 0.  0.
          5    1    5    5  501    0 -0.50030361218E+02 -0.46816654827E+02  0.12193613231E+03  0.13994765655E+03  0.47000000000E+01 0. -1.
        -13    1    6    6    0    0  0.33044401967E+01 -0.12626278094E+02  0.63503370136E+02  0.64830704471E+02  0.00000000000E+00 0.  1.
         14    1    6    6    0    0 -0.35649126264E+02  0.10896960629E+03  0.27332921189E+03  0.29640191189E+03  0.00000000000E+00 0. -1.
         -5    1    3    3    0  503  0.74945409510E+02 -0.61316839399E+02  0.30837967281E+03  0.32325946514E+03  0.47000000000E+01 0.  1.
         11    1    4    4    0    0  0.36817974087E+02  0.43842027279E+01  0.53220021905E+03  0.53349026009E+03  0.00000000000E+00 0. -1.
        -12    1    4    4    0    0 -0.29388336313E+02  0.74059633010E+01  0.12305939778E+03  0.12673649035E+03  0.00000000000E+00 0.  1.
</event>
<event>
12    1  0.9873238E-001  0.1892492E+03  0.7818608E-02  0.1159220E+00
         21   -1    0    0  503  502  0.00000000000E+00  0.00000000000E+00  0.43860998642E+02  0.43860998642E+02  0.00000000000E+00 0.  1.
         21   -1    0    0  501  503 -0.00000000000E+00 -0.00000000000E+00 -0.10611521251E+04  0.10611521251E+04  0.00000000000E+00 0.  1.
          6    2    1    2  501    0 -0.77474181889E+02 -0.14771396514E+02 -0.24292852932E+03  0.30794405894E+03  0.17203147986E+03 0.  0.
         24    2    3    3    0    0  0.41953357285E+01 -0.31212039122E+02 -0.19188462179E+03  0.21012905327E+03  0.79641187351E+02 0.  0.
         -6    2    1    2    0  502  0.77474181889E+02  0.14771396514E+02 -0.77436259714E+03  0.79706906480E+03  0.17164270800E+03 0.  0.
        -24    2    5    5    0    0  0.25050952239E+02 -0.54555177660E+02 -0.45087432305E+03  0.46207485237E+03  0.81373806521E+02 0.  0.
          5    1    3    3  501    0 -0.81669517617E+02  0.16440642608E+02 -0.51043907535E+02  0.97815005667E+02  0.47000000000E+01 0. -1.
        -13    1    4    4    0    0  0.26059469460E+02  0.82610043171E+00 -0.17305881971E+02  0.31293321032E+02  0.00000000000E+00 0.  1.
         14    1    4    4    0    0 -0.21864133731E+02 -0.32038139554E+02 -0.17457873982E+03  0.17883573224E+03  0.00000000000E+00 0. -1.
         -5    1    5    5    0  502  0.52423229649E+02  0.69326574174E+02 -0.32348827409E+03  0.33499421243E+03  0.47000000000E+01 0.  1.
         13    1    6    6    0    0  0.40816865706E+02 -0.32335263893E+02 -0.12993295594E+03  0.13997913721E+03  0.00000000000E+00 0. -1.
        -14    1    6    6    0    0 -0.15765913467E+02 -0.22219913767E+02 -0.32094136712E+03  0.32209571516E+03  0.00000000000E+00 0.  1.
</event>
<event>
12    1  0.9873238E-001  0.2478327E+03  0.7818608E-02  0.1116754E+00
         21   -1    0    0  503  502  0.00000000000E+00  0.00000000000E+00  0.35515683267E+03  0.35515683267E+03  0.00000000000E+00 0.  1.
         21   -1    0    0  501  503 -0.00000000000E+00 -0.00000000000E+00 -0.19585657348E+03  0.19585657348E+03  0.00000000000E+00 0.  1.
          6    2    1    2  501    0 -0.15683819864E+03 -0.33332629664E+02 -0.29245954658E+02  0.24955230483E+03  0.18897550695E+03 0.  0.
         24    2    3    3    0    0 -0.67638750300E+02  0.40311245182E+02  0.35154318704E+02  0.11707797865E+03  0.79192360308E+02 0.  0.
         -6    2    1    2    0  502  0.15683819864E+03  0.33332629664E+02  0.18854621385E+03  0.30146110131E+03  0.17210414316E+03 0.  0.
        -24    2    5    5    0    0  0.63534136893E+02 -0.42359382740E+02  0.12060393530E+03  0.16335544649E+03  0.79427884459E+02 0.  0.
          5    1    3    3  501    0 -0.89199448344E+02 -0.73643874847E+02 -0.64400273362E+02  0.13247432618E+03  0.47000000000E+01 0. -1.
        -11    1    4    4    0    0 -0.53550865753E+02  0.64395781348E+02  0.27340909097E+02  0.88102424419E+02  0.00000000000E+00 0.  1.
         12    1    4    4    0    0 -0.14087884547E+02 -0.24084536166E+02  0.78134096066E+01  0.28975554231E+02  0.00000000000E+00 0. -1.
         -5    1    5    5    0  502  0.93304061751E+02  0.75692012404E+02  0.67942278546E+02  0.13810565483E+03  0.47000000000E+01 0.  1.
         11    1    6    6    0    0  0.42173107689E+02 -0.15276395289E+02  0.79687105162E+01  0.45556993014E+02  0.00000000000E+00 0. -1.
        -12    1    6    6    0    0  0.21361029203E+02 -0.27082987451E+02  0.11263522479E+03  0.11779845347E+03  0.00000000000E+00 0.  1.
</event>
<event>
12    1  0.9873238E-001  0.2996413E+03  0.7818608E-02  0.1086273E+00
         21   -1    0    0  503  502  0.00000000000E+00  0.00000000000E+00  0.91759232051E+02  0.91759232051E+02  0.00000000000E+00 0.  1.
         21   -1    0    0  501  503 -0.00000000000E+00 -0.00000000000E+00 -0.11286002461E+04  0.11286002461E+04  0.00000000000E+00 0. -1.
          6    2    1    2  501    0  0.90692855585E+02  0.21840832254E+03 -0.28523601700E+03  0.41369617015E+03  0.18400420212E+03 0.  0.
         24    2    3    3    0    0  0.36711185441E+02  0.21639219557E+03 -0.27137178915E+03  0.35772839109E+03  0.78445270102E+02 0.  0.
         -6    2    1    2    0  502 -0.90692855585E+02 -0.21840832254E+03 -0.75160499708E+03  0.80666330803E+03  0.17282427918E+03 0.  0.
        -24    2    5    5    0    0 -0.47095786463E+02 -0.14563302919E+03 -0.65057482908E+03  0.67465523022E+03  0.92114489353E+02 0.  0.
          5    1    3    3  501    0  0.53981670144E+02  0.20161269620E+01 -0.13864227847E+02  0.55967779063E+02  0.47000000000E+01 0. -1.
        -11    1    4    4    0    0 -0.97018751352E+01  0.32495865704E+02 -0.86328934360E+02  0.92751240297E+02  0.00000000000E+00 0.  1.
         12    1    4    4    0    0  0.46413060577E+02  0.18389632987E+03 -0.18504285479E+03  0.26497715079E+03  0.00000000000E+00 0. -1.
         -5    1    5    5    0  502 -0.43597069123E+02 -0.72775293351E+02 -0.10103016800E+03  0.13200807780E+03  0.47000000000E+01 0.  1.
         11    1    6    6    0    0 -0.53056282598E+02 -0.87575804775E+02 -0.25486413083E+03  0.27466382341E+03  0.00000000000E+00 0. -1.
        -12    1    6    6    0    0  0.59604961348E+01 -0.58057224410E+02 -0.39571069825E+03  0.39999140682E+03  0.00000000000E+00 0.  1.
</event>
<event>
12    1  0.9873238E-001  0.6124960E+03  0.7818608E-02  0.9880013E-01
         21   -1    0    0  501  502  0.00000000000E+00  0.00000000000E+00  0.13517631120E+03  0.13517631120E+03  0.00000000000E+00 0. -1.
         21   -1    0    0  502  503 -0.00000000000E+00 -0.00000000000E+00 -0.27759420909E+04  0.27759420909E+04  0.00000000000E+00 0.  1.
         -6    2    1    2    0  503  0.97549667721E+02  0.57959131656E+03 -0.13631335725E+04  0.14942572913E+04  0.17096690987E+03 0.  0.
        -24    2    3    3    0    0  0.12669704639E+03  0.54646410206E+03 -0.12374034558E+04  0.13609263711E+04  0.79234581410E+02 0.  0.
          6    2    1    2  501    0 -0.97549667721E+02 -0.57959131656E+03 -0.12776322073E+04  0.14168611108E+04  0.17236391298E+03 0.  0.
         24    2    5    5    0    0 -0.23233015308E+02 -0.37289819189E+03 -0.67720702269E+03  0.77750400806E+03  0.79437374446E+02 0.  0.
          5    1    5    5  501    0 -0.74316652413E+02 -0.20669312466E+03 -0.60042518458E+03  0.63935710279E+03  0.47000000000E+01 0. -1.
        -13    1    6    6    0    0 -0.35262487790E+02 -0.10711293310E+03 -0.24945397993E+03  0.27375885663E+03  0.00000000000E+00 0.  1.
         14    1    6    6    0    0  0.12029472482E+02 -0.26578525880E+03 -0.42775304276E+03  0.50374515143E+03  0.00000000000E+00 0. -1.
         -5    1    3    3    0  503 -0.29147378667E+02  0.33127214494E+02 -0.12573011673E+03  0.13333092018E+03  0.47000000000E+01 0.  1.
         13    1    4    4    0    0  0.40878739256E+01  0.66930907971E+01 -0.52838057332E+02  0.53416930652E+02  0.00000000000E+00 0. -1.
        -14    1    4    4    0    0  0.12260917246E+03  0.53977101127E+03 -0.11845653984E+04  0.13075094405E+04  0.00000000000E+00 0.  1.
</event>
<event>
12    1  0.9873238E-001  0.1890787E+03  0.7818608E-02  0.1159496E+00
         21   -1    0    0  501  502  0.00000000000E+00  0.00000000000E+00  0.15772508251E+03  0.15772508251E+03  0.00000000000E+00 0. -1.
         21   -1    0    0  502  503 -0.00000000000E+00 -0.00000000000E+00 -0.25601367675E+03  0.25601367675E+03  0.00000000000E+00 0. -1.
         -6    2    1    2    0  503  0.77724884720E+02 -0.12607423303E+02 -0.12053988430E+03  0.22423339916E+03  0.17190302140E+03 0.  0.
        -24    2    3    3    0    0  0.23867396776E+02 -0.44450604984E+02 -0.12510418059E+03  0.16132441707E+03  0.88481651369E+02 0.  0.
          6    2    1    2  501    0 -0.77724884720E+02  0.12607423303E+02  0.22251290059E+02  0.18950536009E+03  0.17092997621E+03 0.  0.
         24    2    5    5    0    0 -0.73188749065E+02  0.41850770243E+02 -0.34539405280E+02  0.12529459040E+03  0.86009789602E+02 0.  0.
          5    1    5    5  501    0 -0.45361356547E+01 -0.29243346940E+02  0.56790695339E+02  0.64210769689E+02  0.47000000000E+01 0. -1.
        -13    1    6    6    0    0 -0.67777496089E+02  0.66511875507E+02 -0.24084643521E+02  0.97967793755E+02  0.00000000000E+00 0.  1.
         14    1    6    6    0    0 -0.54112529761E+01 -0.24661105264E+02 -0.10454761759E+02  0.27326796648E+02  0.00000000000E+00 0. -1.
         -5    1    3    3    0  503  0.53857487944E+02  0.31843181681E+02  0.45642962938E+01  0.62908982092E+02  0.47000000000E+01 0.  1.
         11    1    4    4    0    0  0.20614866512E+01  0.18834137938E+02  0.54897682647E+00  0.18954573449E+02  0.00000000000E+00 0. -1.
        -12    1    4    4    0    0  0.21805910124E+02 -0.63284742922E+02 -0.12565315742E+03  0.14236984362E+03  0.00000000000E+00 0.  1.
</event>
<event>
12    1  0.9873238E-001  0.1894773E+03  0.7818608E-02  0.1158990E+00
         21   -1    0    0  503  502  0.00000000000E+00  0.00000000000E+00  0.37430209448E+02  0.37430209448E+02  0.00000000000E+00 0.  1.
         21   -1    0    0  501  503 -0.00000000000E+00 -0.00000000000E+00 -0.98190782993E+03  0.98190782993E+03  0.00000000000E+00 0.  1.
          6    2    1    2  501    0  0.39327313402E+02  0.69676560172E+02 -0.39224294034E+03  0.43550176410E+03  0.17148119919E+03 0.  0.
         24    2    3    3    0    0  0.89964388427E+02  0.59865718352E+02 -0.31037031861E+03  0.33862254975E+03  0.81596575358E+02 0.  0.
         -6    2    1    2    0  502 -0.39327313402E+02 -0.69676560172E+02 -0.55223468015E+03  0.58383627528E+03  0.17175620441E+03 0.  0.
        -24    2    5    5    0    0 -0.87440375751E+02 -0.74802414337E+02 -0.43001077917E+03  0.45229953851E+03  0.80152241581E+02 0.  0.
          5    1    3    3  501    0 -0.50637075025E+02  0.98108418197E+01 -0.81872621730E+02  0.96879214351E+02  0.47000000000E+01 0. -1.
        -13    1    4    4    0    0 -0.69043937662E+01  0.22288778049E+02 -0.11498460357E+03  0.11732825465E+03  0.00000000000E+00 0.  1.
         14    1    4    4    0    0  0.96868782193E+02  0.37576940303E+02 -0.19538571504E+03  0.22129429511E+03  0.00000000000E+00 0. -1.
         -5    1    5    5    0  502  0.48113062349E+02  0.51258541648E+01 -0.12222390098E+03  0.13153673677E+03  0.47000000000E+01 0.  1.
         13    1    6    6    0    0 -0.51212028390E+02 -0.80696638100E+02 -0.36829089664E+03  0.38049021512E+03  0.00000000000E+00 0. -1.
        -14    1    6    6    0    0 -0.36228347361E+02  0.58942237630E+01 -0.61719882527E+02  0.71809323388E+02  0.00000000000E+00 0.  1.
</event>
<event>
12    1  0.9873238E-001  0.1868484E+03  0.7818608E-02  0.1162863E+00
         21   -1    0    0  503  502  0.00000000000E+00  0.00000000000E+00  0.35525709580E+02  0.35525709580E+02  0.00000000000E+00 0. -1.
         21   -1    0    0  501  503 -0.00000000000E+00 -0.00000000000E+00 -0.94991276960E+03  0.94991276960E+03  0.00000000000E+00 0. -1.
          6    2    1    2  501    0 -0.40886195444E+02 -0.38653326294E+02 -0.44852048048E+03  0.48588367478E+03  0.17817565320E+03 0.  0.
         24    2    3    3    0    0 -0.21289896323E+02 -0.49922048019E+02 -0.11603623384E+03  0.15259871668E+03  0.82924605549E+02 0.  0.
         -6    2    1    2    0  502  0.40886195444E+02  0.38653326294E+02 -0.46586657954E+03  0.49955480440E+03  0.17134051493E+03 0.  0.
        -24    2    5    5    0    0  0.18587340029E+02 -0.37115624823E+02 -0.33460973360E+03  0.34629482100E+03  0.78951696730E+02 0.  0.
          5    1    3    3  501    0 -0.19596299121E+02  0.11268721725E+02 -0.33248424664E+03  0.33328495810E+03  0.47000000000E+01 0. -1.
        -11    1    4    4    0    0  0.13856686943E+02  0.51393168082E+01  0.45436761678E+01  0.15461738046E+02  0.00000000000E+00 0.  1.
         12    1    4    4    0    0 -0.35146583266E+02 -0.55061364827E+02 -0.12057991001E+03  0.13713697864E+03  0.00000000000E+00 0. -1.
         -5    1    5    5    0  502  0.22298855415E+02  0.75768951117E+02 -0.13125684594E+03  0.15325998340E+03  0.47000000000E+01 0.  1.
         13    1    6    6    0    0 -0.84030727746E+01  0.13882027331E+02 -0.17057694487E+02  0.23543305971E+02  0.00000000000E+00 0. -1.
        -14    1    6    6    0    0  0.26990412804E+02 -0.50997652154E+02 -0.31755203911E+03  0.32275151503E+03  0.00000000000E+00 0.  1.
</event>
<event>
12    1  0.9873238E-001  0.2491863E+03  0.7818608E-02  0.1113937E+00
         21   -1    0    0  503  502  0.00000000000E+00  0.00000000000E+00  0.66052925444E+02  0.66052925444E+02  0.00000000000E+00 0.  1.
         21   -1    0    0  501  503 -0.00000000000E+00 -0.00000000000E+00 -0.96676637063E+03  0.96676637063E+03  0.00000000000E+00 0.  1.
          6    2    1    2  501    0  0.38276290033E+02  0.17902410454E+03 -0.53989356326E+03  0.59431636460E+03  0.16796480939E+03 0.  0.
         24    2    3    3    0    0  0.39656496841E+02  0.88898441178E+02 -0.20472208205E+03  0.24720463621E+03  0.98607457624E+02 0.  0.
         -6    2    1    2    0  502 -0.38276290033E+02 -0.17902410454E+03 -0.36081988192E+03  0.43850293148E+03  0.16905362858E+03 0.  0.
        -24    2    5    5    0    0 -0.76449708656E+02 -0.60616295280E+02 -0.17055492062E+03  0.21112556962E+03  0.77240740500E+02 0.  0.
          5    1    3    3  501    0 -0.13802068074E+01  0.90125663365E+02 -0.33517148121E+03  0.34711172839E+03  0.47000000000E+01 0. -1.
        -13    1    4    4    0    0  0.25593683397E+02  0.33158926609E+02 -0.17968527443E+03  0.18450297800E+03  0.00000000000E+00 0.  1.
         14    1    4    4    0    0  0.14062813443E+02  0.55739514569E+02 -0.25036807617E+02  0.62701658208E+02  0.00000000000E+00 0. -1.
         -5    1    5    5    0  502  0.38173418623E+02 -0.11840780926E+03 -0.19026496131E+03  0.22737736186E+03  0.47000000000E+01 0.  1.
         11    1    6    6    0    0 -0.84392471639E+02 -0.64884193609E+02 -0.17171458242E+03  0.20203451602E+03  0.00000000000E+00 0. -1.
        -12    1    6    6    0    0  0.79427629838E+01  0.42678983298E+01  0.11596618014E+01  0.90910535948E+01  0.00000000000E+00 0.  1.
</event>
<event>
12    1  0.9873238E-001  0.1740521E+03  0.7818608E-02  0.1174109E+00
         21   -1    0    0  503  502  0.00000000000E+00  0.00000000000E+00  0.42867690727E+03  0.42867690727E+03  0.00000000000E+00 0. -1.
         21   -1    0    0  501  503 -0.00000000000E+00 -0.00000000000E+00 -0.20787759220E+03  0.20787759220E+03  0.00000000000E+00 0. -1.
          6    2    1    2  501    0 -0.71368148367E+01 -0.23924120631E+02  0.36978850789E+03  0.40870244349E+03  0.17225228323E+03 0.  0.
         24    2    3    3    0    0 -0.18846357139E+01  0.23088423042E+02  0.34609247859E+03  0.35558600110E+03  0.78260930925E+02 0.  0.
         -6    2    1    2    0  502  0.71368148367E+01  0.23924120631E+02 -0.14898919282E+03  0.22785205598E+03  0.17057397857E+03 0.  0.
        -24    2    5    5    0    0  0.71115436462E+01 -0.49500852274E+02 -0.53690923286E+02  0.10745655166E+03  0.78506603690E+02 0.  0.
          5    1    3    3  501    0 -0.52521791228E+01 -0.47012543673E+02  0.23696029297E+02  0.53116442394E+02  0.47000000000E+01 0. -1.
        -11    1    4    4    0    0  0.33575120734E+02  0.76954725645E+00  0.22401494872E+03  0.22651838377E+03  0.00000000000E+00 0.  1.
         12    1    4    4    0    0 -0.35459756448E+02  0.22318875785E+02  0.12207752988E+03  0.12906761733E+03  0.00000000000E+00 0. -1.
         -5    1    5    5    0  502  0.25271190470E-01  0.73424972905E+02 -0.95298269531E+02  0.12039550432E+03  0.47000000000E+01 0.  1.
         11    1    6    6    0    0  0.29404678199E+02 -0.41287404693E+02 -0.21849123036E+01  0.50735182350E+02  0.00000000000E+00 0. -1.
        -12    1    6    6    0    0 -0.22293134553E+02 -0.82134475807E+01 -0.51506010982E+02  0.56721369312E+02  0.00000000000E+00 0.  1.
</event>
<event>
12    1  0.9873238E-001  0.2248376E+03  0.7818608E-02  0.1132473E+00
         21   -1    0    0  501  502  0.00000000000E+00  0.00000000000E+00  0.32499353040E+03  0.32499353040E+03  0.00000000000E+00 0. -1.
         21   -1    0    0  502  503 -0.00000000000E+00 -0.00000000000E+00 -0.15153652723E+03  0.15153652723E+03  0.00000000000E+00 0. -1.
         -6    2    1    2    0  503 -0.85762641065E+02 -0.10120485794E+03  0.46524782507E+02  0.21833688278E+03  0.16705922639E+03 0.  0.
        -24    2    3    3    0    0 -0.89161651378E+02 -0.99497665847E+01  0.32699100145E+02  0.12585832061E+03  0.81989558999E+02 0.  0.
          6    2    1    2  501    0  0.85762641065E+02  0.10120485794E+03  0.12693222067E+03  0.25819317485E+03  0.18153311826E+03 0.  0.
         24    2    5    5    0    0  0.10036740426E+03  0.12294417657E+03  0.14216142537E+03  0.22753512928E+03  0.79834064172E+02 0.  0.
          5    1    5    5  501    0 -0.14604763194E+02 -0.21739318632E+02 -0.15229204702E+02  0.30658045574E+02  0.47000000000E+01 0. -1.
        -13    1    6    6    0    0  0.85384539075E+02  0.13391898008E+03  0.12331772775E+03  0.20107728543E+03  0.00000000000E+00 0.  1.
         14    1    6    6    0    0  0.14982865185E+02 -0.10974803508E+02  0.18843697620E+02  0.26457843849E+02  0.00000000000E+00 0. -1.
         -5    1    3    3    0  503  0.33990103129E+01 -0.91255091353E+02  0.13825682362E+02  0.92478562174E+02  0.47000000000E+01 0.  1.
         13    1    4    4    0    0 -0.33246909314E+02  0.11463466735E+02  0.52153120405E+02  0.62902432517E+02  0.00000000000E+00 0. -1.
        -14    1    4    4    0    0 -0.55914742065E+02 -0.21413233320E+02 -0.19454020260E+02  0.62955888093E+02  0.00000000000E+00 0.  1.
</event>
<event>
12    1  0.9873238E-001  0.3931252E+03  0.7818608E-02  0.1046308E+00
         21   -1    0    0  503  502  0.00000000000E+00  0.00000000000E+00  0.42432779095E+03  0.42432779095E+03  0.00000000000E+00 0. -1.
         21   -1    0    0  501  503 -0.00000000000E+00 -0.00000000000E+00 -0.74344704270E+03  0.74344704270E+03  0.00000000000E+00 0. -1.
          6    2    1    2  501    0 -0.11161795146E+02  0.35290934825E+03  0.25801835000E+03  0.47023496451E+03  0.17285213091E+03 0.  0.
         24    2    3    3    0    0 -0.20540667137E+02  0.25877277494E+03  0.25910025286E+03  0.37550947592E+03  0.80555306606E+02 0.  0.
         -6    2    1    2    0  502  0.11161795146E+02 -0.35290934825E+03 -0.57713760174E+03  0.69753986914E+03  0.16971877897E+03 0.  0.
        -24    2    5    5    0    0 -0.12921444213E+02 -0.76737868228E+02 -0.20517994972E+03  0.23361608909E+03  0.80137389357E+02 0.  0.
          5    1    3    3  501    0  0.93788719907E+01  0.94136573316E+02 -0.10819028551E+01  0.94725488594E+02  0.47000000000E+01 0. -1.
        -11    1    4    4    0    0 -0.12923990979E+02  0.10228517774E+03  0.50993981450E+02  0.11502031678E+03  0.00000000000E+00 0.  1.
         12    1    4    4    0    0 -0.76166761576E+01  0.15648759720E+03  0.20810627141E+03  0.26048915914E+03  0.00000000000E+00 0. -1.
         -5    1    5    5    0  502  0.24083239359E+02 -0.27617148002E+03 -0.37195765202E+03  0.46392378005E+03  0.47000000000E+01 0.  1.
         13    1    6    6    0    0  0.22284807107E+02  0.14549607221E+01 -0.70504519924E+02  0.73956858155E+02  0.00000000000E+00 0. -1.
        -14    1    6    6    0    0 -0.35206251320E+02 -0.78192828951E+02 -0.13467542980E+03  0.15965923094E+03  0.00000000000E+00 0.  1.
</event>
<event>
12    1  0.9873238E-001  0.3087801E+03  0.7818608E-02  0.1081048E+00
         21   -1    0    0  501  502  0.00000000000E+00  0.00000000000E+00  0.73712732023E+03  0.73712732023E+03  0.00000000000E+00 0.  1.
         21   -1    0    0  502  503 -0.00000000000E+00 -0.00000000000E+00 -0.45203421890E+03  0.45203421890E+03  0.00000000000E+00 0. -1.
         -6    2    1    2    0  503  0.25374714605E+03 -0.12915798198E+02  0.64528422162E+03  0.71535784628E+03  0.17547276023E+03 0.  0.
        -24    2    3    3    0    0  0.14274634916E+02  0.24826036035E+02  0.66601097641E+02  0.87928346155E+02  0.49755307088E+02 0.  0.
          6    2    1    2  501    0 -0.25374714605E+03  0.12915798198E+02 -0.36019112029E+03  0.47380369285E+03  0.17377532691E+03 0.  0.
         24    2    5    5    0    0 -0.25859670044E+03  0.35347626777E+02 -0.35823020406E+03  0.45029538998E+03  0.79469182316E+02 0.  0.
          5    1    5    5  501    0  0.48495543873E+01 -0.22431828579E+02 -0.19609162290E+01  0.23508302865E+02  0.47000000000E+01 0. -1.
        -11    1    6    6    0    0  0.57482009885E+01  0.21297211937E+01 -0.11448200346E+02  0.12986100960E+02  0.00000000000E+00 0.  1.
         12    1    6    6    0    0 -0.26434490143E+03  0.33217905583E+02 -0.34678200372E+03  0.43730928902E+03  0.00000000000E+00 0. -1.
         -5    1    3    3    0  503  0.23947251113E+03 -0.37741834233E+02  0.57868312398E+03  0.62742950012E+03  0.47000000000E+01 0.  1.
         13    1    4    4    0    0  0.31405455936E+02  0.92004894471E+01  0.48521969139E+02  0.58526345843E+02  0.00000000000E+00 0. -1.
        -14    1    4    4    0    0 -0.17130821020E+02  0.15625546588E+02  0.18079128502E+02  0.29402000312E+02  0.00000000000E+00 0.  1.
</event>
<event>
12    1  0.9873238E-001  0.2418511E+03  0.7818608E-02  0.1119348E+00
         21   -1    0    0  501  502  0.00000000000E+00  0.00000000000E+00  0.88412794251E+02  0.88412794251E+02  0.00000000000E+00 0.  1.
         21   -1    0    0  502  503 -0.00000000000E+00 -0.00000000000E+00 -0.99265901719E+03  0.99265901719E+03  0.00000000000E+00 0.  1.
         -6    2    1    2    0  503 -0.81756347965E+02  0.14017361957E+03 -0.13688980821E+03  0.27790424950E+03  0.17932988664E+03 0.  0.
        -24    2    3    3    0    0 -0.70667668949E+02  0.87412915129E+02 -0.16652140821E+03  0.21620520207E+03  0.79877236094E+02 0.  0.
          6    2    1    2  501    0  0.81756347965E+02 -0.14017361957E+03 -0.76735641472E+03  0.80316756194E+03  0.17294369396E+03 0.  0.
         24    2    5    5    0    0  0.20430099237E+02 -0.80302673752E+00 -0.31666914405E+03  0.32743005356E+03  0.80703527659E+02 0.  0.
          5    1    5    5  501    0  0.61326248728E+02 -0.13937059283E+03 -0.45068727068E+03  0.47573750838E+03  0.47000000000E+01 0. -1.
        -13    1    6    6    0    0  0.28039920486E+02  0.55449420956E+01 -0.33287932414E+02  0.43875619291E+02  0.00000000000E+00 0.  1.
         14    1    6    6    0    0 -0.76098212495E+01 -0.63479688331E+01 -0.28338121163E+03  0.28355443427E+03  0.00000000000E+00 0. -1.
         -5    1    3    3    0  503 -0.11088679016E+02  0.52760704437E+02  0.29631599995E+02  0.61699047426E+02  0.47000000000E+01 0.  1.
         11    1    4    4    0    0 -0.98008521424E+01 -0.14090651626E+02 -0.96372362762E+01  0.19684498699E+02  0.00000000000E+00 0. -1.
        -12    1    4    4    0    0 -0.60866816807E+02  0.10150356676E+03 -0.15688417193E+03  0.19652070338E+03  0.00000000000E+00 0.  1.
</event>
<event>
12    1  0.9873238E-001  0.2397488E+03  0.7818608E-02  0.1120120E+00
         21   -1    0    0  503  502  0.00000000000E+00  0.00000000000E+00  0.49655919649E+03  0.49655919649E+03  0.00000000000E+00 0.  1.
         21   -1    0    0  501  503 -0.00000000000E+00 -0.00000000000E+00 -0.45825039700E+03  0.45825039700E+03  0.00000000000E+00 0. -1.
          6    2    1    2  501    0 -0.20663951488E+02 -0.16428214255E+03  0.43214814141E+03  0.49373592925E+03  0.17206838890E+03 0.  0.
         24    2    3    3    0    0 -0.45527910016E+02 -0.78925766225E+02  0.35754594862E+03  0.37758299308E+03  0.80173213238E+02 0.  0.
         -6    2    1    2    0  502  0.20663951488E+02  0.16428214255E+03 -0.39383934192E+03  0.46107366424E+03  0.17338937500E+03 0.  0.
        -24    2    5    5    0    0 -0.46385317143E+02  0.98350271685E+02 -0.29394070619E+03  0.32379859936E+03  0.81363509019E+02 0.  0.
          5    1    3    3  501    0  0.24863958529E+02 -0.85356376323E+02  0.74602192786E+02  0.11615293617E+03  0.47000000000E+01 0. -1.
        -11    1    4    4    0    0  0.14035990732E+02 -0.76377537380E+01  0.14165924701E+03  0.14255766055E+03  0.00000000000E+00 0.  1.
         12    1    4    4    0    0 -0.59563900749E+02 -0.71288012487E+02  0.21588670161E+03  0.23502533252E+03  0.00000000000E+00 0. -1.
         -5    1    5    5    0  502  0.67049268631E+02  0.65931870863E+02 -0.99898635722E+02  0.13727506488E+03  0.47000000000E+01 0.  1.
         13    1    6    6    0    0 -0.68809373489E+01 -0.11571356605E+02 -0.69403871196E+02  0.70697531283E+02  0.00000000000E+00 0. -1.
        -14    1    6    6    0    0 -0.39504379794E+02  0.10992162829E+03 -0.22453683500E+03  0.25310106807E+03  0.00000000000E+00 0.  1.
</event>
<event>
12    1  0.9873238E-001  0.2670575E+03  0.7818608E-02  0.1103082E+00
         21   -1    0    0  501  502  0.00000000000E+00  0.00000000000E+00  0.42717338722E+03  0.42717338722E+03  0.00000000000E+00 0.  1.
         21   -1    0    0  502  503 -0.00000000000E+00 -0.00000000000E+00 -0.17693797538E+03  0.17693797538E+03  0.00000000000E+00 0.  1.
         -6    2    1    2    0  503 -0.78782883420E+02 -0.18799860076E+03  0.51908315178E+02  0.27205547043E+03  0.17253837022E+03 0.  0.
        -24    2    3    3    0    0 -0.20814878783E+02 -0.24237185325E+02  0.43966308475E+02  0.98092094345E+02  0.81659796478E+02 0.  0.
          6    2    1    2  501    0  0.78782883420E+02  0.18799860076E+03  0.19832709667E+03  0.33205589217E+03  0.17139796278E+03 0.  0.
         24    2    5    5    0    0  0.85048367353E+02  0.16629422183E+03  0.22071494209E+03  0.29990558928E+03  0.79632178270E+02 0.  0.
          5    1    5    5  501    0 -0.62654839328E+01  0.21704378929E+02 -0.22387845420E+02  0.32150302894E+02  0.47000000000E+01 0. -1.
        -13    1    6    6    0    0  0.87646915836E+02  0.86305453113E+02  0.13516472599E+03  0.18275698686E+03  0.00000000000E+00 0.  1.
         14    1    6    6    0    0 -0.25985484832E+01  0.79988768720E+02  0.85550216094E+02  0.11714860242E+03  0.00000000000E+00 0. -1.
         -5    1    3    3    0  503 -0.57968004638E+02 -0.16376141544E+03  0.79420067028E+01  0.17396337608E+03  0.47000000000E+01 0.  1.
         11    1    4    4    0    0 -0.21403574945E+02 -0.52649703276E+02  0.18051739320E+02  0.59631950898E+02  0.00000000000E+00 0. -1.
        -12    1    4    4    0    0  0.58869616280E+00  0.28412517950E+02  0.25914569155E+02  0.38460143447E+02  0.00000000000E+00 0.  1.
</event>
<event>
12    1  0.9873238E-001  0.3132561E+03  0.7818608E-02  0.1079089E+00
         21   -1    0    0  501  502  0.00000000000E+00  0.00000000000E+00  0.60732009095E+03  0.60732009095E+03  0.00000000000E+00 0. -1.
         21   -1    0    0  502  503 -0.00000000000E+00 -0.00000000000E+00 -0.16065132031E+03  0.16065132031E+03  0.00000000000E+00 0. -1.
         -6    2    1    2    0  503  0.90728424002E+02 -0.24212179261E+03  0.20638523454E+03  0.37513232170E+03  0.17684678219E+03 0.  0.
        -24    2    3    3    0    0  0.13013847489E+02 -0.38782035276E+02  0.88256151128E+02  0.12741639032E+03  0.82294482333E+02 0.  0.
          6    2    1    2  501    0 -0.90728424002E+02  0.24212179261E+03  0.24028353610E+03  0.39283908956E+03  0.17242900911E+03 0.  0.
         24    2    5    5    0    0 -0.51325577891E+02  0.21525831136E+03  0.25019965271E+03  0.34390392556E+03  0.81851012491E+02 0.  0.
          5    1    5    5  501    0 -0.39402846112E+02  0.26863481256E+02 -0.99161166085E+01  0.48935163998E+02  0.47000000000E+01 0. -1.
        -13    1    6    6    0    0 -0.50564256069E+02  0.15999434150E+03  0.13224882871E+03  0.21364617010E+03  0.00000000000E+00 0.  1.
         14    1    6    6    0    0 -0.76132182127E+00  0.55263969860E+02  0.11795082400E+03  0.13025775546E+03  0.00000000000E+00 0. -1.
         -5    1    3    3    0  503  0.77714576513E+02 -0.20333975734E+03  0.11812908341E+03  0.24771593139E+03  0.47000000000E+01 0.  1.
         13    1    4    4    0    0 -0.54168372889E-01 -0.42083787491E+02  0.42072756187E+01  0.42293607932E+02  0.00000000000E+00 0. -1.
        -14    1    4    4    0    0  0.13068015862E+02  0.33017522147E+01  0.84048875510E+02  0.85122782383E+02  0.00000000000E+00 0.  1.
</event>
<event>
12    1  0.9873238E-001  0.1991264E+03  0.7818608E-02  0.1152028E+00
         21   -1    0    0  503  502  0.00000000000E+00  0.00000000000E+00  0.23998352839E+02  0.23998352839E+02  0.00000000000E+00 0.  1.
         21   -1    0    0  501  503 -0.00000000000E+00 -0.00000000000E+00 -0.17288159654E+04  0.17288159654E+04  0.00000000000E+00 0.  1.
          6    2    1    2  501    0 -0.77858235371E+01  0.85422673904E+02 -0.62150637229E+03  0.65262660103E+03  0.17970436088E+03 0.  0.
         24    2    3    3    0    0  0.50266499711E+02  0.79359519636E+02 -0.27096278242E+03  0.29722579565E+03  0.78087705757E+02 0.  0.
         -6    2    1    2    0  502  0.77858235371E+01 -0.85422673904E+02 -0.10833112402E+04  0.11001877172E+04  0.17173269204E+03 0.  0.
        -24    2    5    5    0    0 -0.62399345653E+02 -0.41439594049E+02 -0.54197458906E+03  0.55253095496E+03  0.77091391901E+02 0.  0.
          5    1    3    3  501    0 -0.58052323248E+02  0.60631542676E+01 -0.35054358986E+03  0.35540080538E+03  0.47000000000E+01 0. -1.
        -13    1    4    4    0    0  0.36827292637E+02  0.55252141542E+02 -0.25858997754E+03  0.26697907242E+03  0.00000000000E+00 0.  1.
         14    1    4    4    0    0  0.13439207073E+02  0.24107378094E+02 -0.12372804888E+02  0.30246723229E+02  0.00000000000E+00 0. -1.
         -5    1    5    5    0  502  0.70185169190E+02 -0.43983079855E+02 -0.54133665119E+03  0.54765676222E+03  0.47000000000E+01 0.  1.
         13    1    6    6    0    0 -0.20755720234E+01 -0.43832304925E+02 -0.16417720387E+03  0.16994038138E+03  0.00000000000E+00 0. -1.
        -14    1    6    6    0    0 -0.60323773630E+02  0.23927108760E+01 -0.37779738519E+03  0.38259057357E+03  0.00000000000E+00 0.  1.
</event>
<event>
12    1  0.9873238E-001  0.3183714E+03  0.7818608E-02  0.1076408E+00
         21   -1    0    0  503  502  0.00000000000E+00  0.00000000000E+00  0.12565834974E+04  0.12565834974E+04  0.00000000000E+00 0.  1.
         21   -1    0    0  501  503 -0.00000000000E+00 -0.00000000000E+00 -0.91431063814E+02  0.91431063814E+02  0.00000000000E+00 0. -1.
          6    2    1    2  501    0  0.15791947019E+03  0.21675025211E+03  0.81399468886E+03  0.87401864218E+03  0.17147012140E+03 0.  0.
         24    2    3    3    0    0  0.37494425208E+02  0.33445816003E+02  0.31959997221E+03  0.33313886478E+03  0.79453800771E+02 0.  0.
         -6    2    1    2    0  502 -0.15791947019E+03 -0.21675025211E+03  0.35115774473E+03  0.47399591904E+03  0.17158420301E+03 0.  0.
        -24    2    5    5    0    0 -0.33363611777E+02 -0.27935956965E+02  0.92021064047E+02  0.12999169058E+03  0.80848098989E+02 0.  0.
          5    1    3    3  501    0  0.12042504498E+03  0.18330443611E+03  0.49439471665E+03  0.54087977740E+03  0.47000000000E+01 0. -1.
        -13    1    4    4    0    0 -0.93473348420E+01  0.43093475521E+02  0.18847451065E+03  0.19356410170E+03  0.00000000000E+00 0.  1.
         14    1    4    4    0    0  0.46841760050E+02 -0.96476595184E+01  0.13112546156E+03  0.13957476308E+03  0.00000000000E+00 0. -1.
         -5    1    5    5    0  502 -0.12455585842E+03 -0.18881429515E+03  0.25913668069E+03  0.34400422846E+03  0.47000000000E+01 0.  1.
         11    1    6    6    0    0 -0.31624170634E+02 -0.16546638839E+02 -0.15392775123E+01  0.35724624566E+02  0.00000000000E+00 0. -1.
        -12    1    6    6    0    0 -0.17394411434E+01 -0.11389318126E+02  0.93560341559E+02  0.94267066018E+02  0.00000000000E+00 0.  1.
</event>
<event>
12    1  0.9873238E-001  0.2036641E+03  0.7818608E-02  0.1147219E+00
         21   -1    0    0  501  502  0.00000000000E+00  0.00000000000E+00  0.11639310978E+03  0.11639310978E+03  0.00000000000E+00 0.  1.
         21   -1    0    0  502  503 -0.00000000000E+00 -0.00000000000E+00 -0.35194841558E+03  0.35194841558E+03  0.00000000000E+00 0.  1.
         -6    2    1    2    0  503 -0.39774335020E+02 -0.10384559665E+03 -0.12207008702E+03  0.23744506721E+03  0.17062575458E+03 0.  0.
        -24    2    3    3    0    0 -0.49652898123E+02 -0.72061567619E+00 -0.27039418372E+02  0.96784960236E+02  0.78551058574E+02 0.  0.
          6    2    1    2  501    0  0.39774335020E+02  0.10384559665E+03 -0.11348521877E+03  0.23089645815E+03  0.16753618665E+03 0.  0.
         24    2    5    5    0    0  0.55293279041E+02  0.13409594418E+03 -0.90079921206E+02  0.18935347916E+03  0.81861339545E+02 0.  0.
          5    1    5    5  501    0 -0.15518944020E+02 -0.30250347532E+02 -0.23405297569E+02  0.41542978993E+02  0.47000000000E+01 0. -1.
        -11    1    6    6    0    0  0.62157986083E+02  0.45498450978E+02 -0.33450026435E+02  0.83979929410E+02  0.00000000000E+00 0.  1.
         12    1    6    6    0    0 -0.68647070425E+01  0.88597493206E+02 -0.56629894771E+02  0.10537354975E+03  0.00000000000E+00 0. -1.
         -5    1    3    3    0  503  0.98785631030E+01 -0.10312498098E+03 -0.95030668646E+02  0.14066010697E+03  0.47000000000E+01 0.  1.
         13    1    4    4    0    0 -0.14461680770E+02 -0.38466460682E+02 -0.15375944826E+02  0.43877425715E+02  0.00000000000E+00 0. -1.
        -14    1    4    4    0    0 -0.35191217353E+02  0.37745845005E+02 -0.11663473545E+02  0.52907534521E+02  0.00000000000E+00 0.  1.
</event>
<event>
12    1  0.9873238E-001  0.4934227E+03  0.7818608E-02  0.1015517E+00
         21   -1    0    0  503  502  0.00000000000E+00  0.00000000000E+00  0.56475426364E+03  0.56475426364E+03  0.00000000000E+00 0.  1.
         21   -1    0    0  501  503 -0.00000000000E+00 -0.00000000000E+00 -0.45309411637E+03  0.45309411637E+03  0.00000000000E+00 0.  1.
          6    2    1    2  501    0 -0.78711769932E+02 -0.45569144839E+03  0.16817922158E+03  0.52119928743E+03  0.17179699585E+03 0.  0.
         24    2    3    3    0    0 -0.11870202404E+03 -0.37102871869E+03  0.15409266653E+03  0.42639675974E+03  0.79480602852E+02 0.  0.
         -6    2    1    2    0  502  0.78711769932E+02  0.45569144839E+03 -0.56519074304E+02  0.49664909259E+03  0.17209205834E+03 0.  0.
        -24    2    5    5    0    0  0.54282229766E+02  0.43762158164E+03 -0.19546466266E+02  0.44856181504E+03  0.79789901475E+02 0.  0.
          5    1    3    3  501    0  0.39990254105E+02 -0.84662729698E+02  0.14086555045E+02  0.94802527690E+02  0.47000000000E+01 0. -1.
        -11    1    4    4    0    0 -0.33310587759E+02 -0.13241420990E+03  0.15157688896E+02  0.13737857829E+03  0.00000000000E+00 0.  1.
         12    1    4    4    0    0 -0.85391436278E+02 -0.23861450879E+03  0.13893497764E+03  0.28901818145E+03  0.00000000000E+00 0. -1.
         -5    1    5    5    0  502  0.24429540166E+02  0.18069866745E+02 -0.36972608038E+02  0.48087277548E+02  0.47000000000E+01 0.  1.
         13    1    6    6    0    0  0.59466552653E+02  0.32641914926E+03 -0.43674579256E+02  0.33465385215E+03  0.00000000000E+00 0. -1.
        -14    1    6    6    0    0 -0.51843228869E+01  0.11120243238E+03  0.24128112990E+02  0.11390796288E+03  0.00000000000E+00 0.  1.
</event>
<event>
12    1  0.9873238E-001  0.3337569E+03  0.7818608E-02  0.1070393E+00
         21   -1    0    0  503  502  0.00000000000E+00  0.00000000000E+00  0.76106301230E+03  0.76106301230E+03  0.00000000000E+00 0.  1.
         21   -1    0    0  501  503 -0.00000000000E+00 -0.00000000000E+00 -0.19409088423E+03  0.19409088423E+03  0.00000000000E+00 0. -1.
          6    2    1    2  501    0  0.18875302930E+03  0.20645285296E+03  0.40568479983E+02  0.33621340532E+03  0.18205264564E+03 0.  0.
         24    2    3    3    0    0  0.28713684317E+02  0.31671161894E+02  0.43692801901E+02  0.99162603043E+02  0.78080873084E+02 0.  0.
         -6    2    1    2    0  502 -0.18875302930E+03 -0.20645285296E+03  0.52640364809E+03  0.61894049120E+03  0.16654141937E+03 0.  0.
        -24    2    5    5    0    0 -0.86786244449E+02 -0.34453657483E+02  0.16042693373E+03  0.20187695419E+03  0.79363699673E+02 0.  0.
          5    1    3    3  501    0  0.16003934498E+03  0.17478169106E+03 -0.31243219176E+01  0.23705080228E+03  0.47000000000E+01 0. -1.
        -13    1    4    4    0    0  0.12734829085E+02  0.56059137045E+02  0.39396430128E+02  0.69691329625E+02  0.00000000000E+00 0.  1.
         14    1    4    4    0    0  0.15978855233E+02 -0.24387975151E+02  0.42963717729E+01  0.29471273418E+02  0.00000000000E+00 0. -1.
         -5    1    5    5    0  502 -0.10196678485E+03 -0.17199919548E+03  0.36597671435E+03  0.41706353701E+03  0.47000000000E+01 0.  1.
         13    1    6    6    0    0  0.13985663719E+02 -0.13589042095E+02  0.29166516295E+02  0.35084847549E+02  0.00000000000E+00 0. -1.
        -14    1    6    6    0    0 -0.10077190817E+03 -0.20864615387E+02  0.13126041744E+03  0.16679210664E+03  0.00000000000E+00 0.  1.
</event>
<event>
12    1  0.9873238E-001  0.1789259E+03  0.7818608E-02  0.1171702E+00
         21   -1    0    0  503  502  0.00000000000E+00  0.00000000000E+00  0.11963608819E+03  0.11963608819E+03  0.00000000000E+00 0. -1.
         21   -1    0    0  501  503 -0.00000000000E+00 -0.00000000000E+00 -0.25773072781E+03  0.25773072781E+03  0.00000000000E+00 0. -1.
          6    2    1    2  501    0  0.16616437268E+02 -0.12393238270E+02 -0.10181555519E+03  0.20586618318E+03  0.17772107291E+03 0.  0.
         24    2    3    3    0    0  0.52750577847E+02  0.37869394868E+02 -0.23058453084E+02  0.10558268734E+03  0.79995606608E+02 0.  0.
         -6    2    1    2    0  502 -0.16616437268E+02  0.12393238270E+02 -0.36279084437E+02  0.17150063283E+03  0.16633278916E+03 0.  0.
        -24    2    5    5    0    0 -0.22205483891E+02  0.45339365010E+02  0.30424161254E+02  0.96747053012E+02  0.76717802003E+02 0.  0.
          5    1    3    3  501    0 -0.36134140579E+02 -0.50262633138E+02 -0.78757102105E+02  0.10028349584E+03  0.47000000000E+01 0. -1.
        -13    1    4    4    0    0 -0.11534503136E+02 -0.10606112751E+02  0.99540603331E+01  0.18563881798E+02  0.00000000000E+00 0.  1.
         14    1    4    4    0    0  0.64285080983E+02  0.48475507619E+02 -0.33012513417E+02  0.87018805542E+02  0.00000000000E+00 0. -1.
         -5    1    5    5    0  502  0.55890466230E+01 -0.32946126740E+02 -0.66703245691E+02  0.74753579814E+02  0.47000000000E+01 0.  1.
         11    1    6    6    0    0 -0.17160930390E+02  0.17798353320E+02  0.54483494571E+02  0.59830845669E+02  0.00000000000E+00 0. -1.
        -12    1    6    6    0    0 -0.50445535005E+01  0.27541011690E+02 -0.24059333317E+02  0.36916207343E+02  0.00000000000E+00 0.  1.
</event>
<event>
12    1  0.9873238E-001  0.7405959E+03  0.7818608E-02  0.9650390E-01
         21   -1    0    0  503  502  0.00000000000E+00  0.00000000000E+00  0.92138704897E+03  0.92138704897E+03  0.00000000000E+00 0.  1.
         21   -1    0    0  501  503 -0.00000000000E+00 -0.00000000000E+00 -0.59844399784E+03  0.59844399784E+03  0.00000000000E+00 0. -1.
          6    2    1    2  501    0  0.71654221375E+03  0.73041593537E+02  0.21968291929E+03  0.77249135064E+03  0.17237889467E+03 0.  0.
         24    2    3    3    0    0  0.22449088232E+03  0.70797997561E+02  0.73083611406E+02  0.25903931438E+03  0.79697173294E+02 0.  0.
         -6    2    1    2    0  502 -0.71654221375E+03 -0.73041593537E+02  0.10326013184E+03  0.74733969616E+03  0.17054661582E+03 0.  0.
        -24    2    5    5    0    0 -0.41886762620E+03 -0.10936172050E+03  0.52525502930E+02  0.44315980816E+03  0.78877201551E+02 0.  0.
          5    1    3    3  501    0  0.49205133142E+03  0.22435959760E+01  0.14659930788E+03  0.51345203627E+03  0.47000000000E+01 0. -1.
        -13    1    4    4    0    0  0.75774871963E+02  0.75530131388E+01  0.59920227182E+02  0.96898466727E+02  0.00000000000E+00 0.  1.
         14    1    4    4    0    0  0.14871601036E+03  0.63244984422E+02  0.13163384224E+02  0.16214084765E+03  0.00000000000E+00 0. -1.
         -5    1    5    5    0  502 -0.29767458755E+03  0.36320126962E+02  0.50734628910E+02  0.30417988800E+03  0.47000000000E+01 0.  1.
         11    1    6    6    0    0 -0.42092185882E+03 -0.11062736161E+03  0.47774268647E+02  0.43783102347E+03  0.00000000000E+00 0. -1.
        -12    1    6    6    0    0  0.20542326196E+01  0.12656411137E+01  0.47512342825E+01  0.53287846918E+01  0.00000000000E+00 0.  1.
</event>
<event>
12    1  0.9873238E-001  0.1783877E+03  0.7818608E-02  0.1169477E+00
         21   -1    0    0  501  502  0.00000000000E+00  0.00000000000E+00  0.21595319607E+04  0.21595319607E+04  0.00000000000E+00 0. -1.
         21   -1    0    0  502  503 -0.00000000000E+00 -0.00000000000E+00 -0.21937540275E+02  0.21937540275E+02  0.00000000000E+00 0. -1.
         -6    2    1    2    0  503 -0.18341637322E+01 -0.44346779101E+02  0.16944167733E+04  0.17037367178E+04  0.17233862311E+03 0.  0.
        -24    2    3    3    0    0  0.26553025244E+02 -0.26601457514E+02  0.16159213610E+04  0.16182712353E+04  0.78659046655E+02 0.  0.
          6    2    1    2  501    0  0.18341637322E+01  0.44346779101E+02  0.44317764714E+03  0.47773278317E+03  0.17277784644E+03 0.  0.
         24    2    5    5    0    0  0.72316578315E+01 -0.19414567304E+02  0.10971886750E+03  0.13815732771E+03  0.81363351791E+02 0.  0.
          5    1    5    5  501    0 -0.53974940993E+01  0.63761346405E+02  0.33345877964E+03  0.33957545547E+03  0.47000000000E+01 0. -1.
        -13    1    6    6    0    0  0.27391936893E+02 -0.13939028904E+02  0.11291544210E+03  0.11702355233E+03  0.00000000000E+00 0.  1.
         14    1    6    6    0    0 -0.20160279061E+02 -0.54755383992E+01 -0.31965746039E+01  0.21133775380E+02  0.00000000000E+00 0. -1.
         -5    1    3    3    0  503 -0.28387188976E+02 -0.17745321587E+02  0.78495412302E+02  0.85465482440E+02  0.47000000000E+01 0.  1.
         13    1    4    4    0    0  0.11524508817E+02  0.25656109251E+02  0.82704142571E+03  0.82751952853E+03  0.00000000000E+00 0. -1.
        -14    1    4    4    0    0  0.15028516427E+02 -0.52257566765E+02  0.78887993524E+03  0.79075170681E+03  0.00000000000E+00 0.  1.
</event>
<event>
12    1  0.9873238E-001  0.1799451E+03  0.7818608E-02  0.1168396E+00
         21   -1    0    0  503  502  0.00000000000E+00  0.00000000000E+00  0.12226733859E+04  0.12226733859E+04  0.00000000000E+00 0. -1.
         21   -1    0    0  501  503 -0.00000000000E+00 -0.00000000000E+00 -0.42438428196E+02  0.42438428196E+02  0.00000000000E+00 0. -1.
          6    2    1    2  501    0  0.31739966489E+02 -0.38986053312E+02  0.98414862863E+03  0.10004642728E+04  0.17277991781E+03 0.  0.
         24    2    3    3    0    0  0.16831462306E+02  0.23578750778E+02  0.81433307652E+03  0.81881617905E+03  0.80512855808E+02 0.  0.
         -6    2    1    2    0  502 -0.31739966489E+02  0.38986053312E+02  0.19608632908E+03  0.26464754135E+03  0.17047326730E+03 0.  0.
        -24    2    5    5    0    0 -0.68211572278E+01  0.42527828874E+02  0.21456670657E+03  0.23307056270E+03  0.80174005857E+02 0.  0.
          5    1    3    3  501    0  0.14908504182E+02 -0.62564804090E+02  0.16981555211E+03  0.18164809371E+03  0.47000000000E+01 0. -1.
        -13    1    4    4    0    0  0.47706905820E+02  0.75093299797E+01  0.37315510937E+03  0.37626729136E+03  0.00000000000E+00 0.  1.
         14    1    4    4    0    0 -0.30875443514E+02  0.16069420798E+02  0.44117796715E+03  0.44254888769E+03  0.00000000000E+00 0. -1.
         -5    1    5    5    0  502 -0.24918809261E+02 -0.35417755618E+01 -0.18480377481E+02  0.31576978655E+02  0.47000000000E+01 0.  1.
         11    1    6    6    0    0  0.42759831009E+01  0.51441943697E+02  0.65832938462E+02  0.83657237520E+02  0.00000000000E+00 0. -1.
        -12    1    6    6    0    0 -0.11097140329E+02 -0.89141148232E+01  0.14873376810E+03  0.14941332518E+03  0.00000000000E+00 0.  1.
</event>
<event>
12    1  0.9873238E-001  0.1768658E+03  0.7818608E-02  0.1172512E+00
         21   -1    0    0  503  502  0.00000000000E+00  0.00000000000E+00  0.15373757164E+03  0.15373757164E+03  0.00000000000E+00 0. -1.
         21   -1    0    0  501  503 -0.00000000000E+00 -0.00000000000E+00 -0.45209437928E+03  0.45209437928E+03  0.00000000000E+00 0. -1.
          6    2    1    2  501    0  0.45767234288E+01  0.17197506135E+02  0.79970513123E+02  0.18820404964E+03  0.16943665694E+03 0.  0.
         24    2    3    3    0    0 -0.80637082657E+01 -0.43006808217E+02  0.88740075216E+02  0.12588763768E+03  0.77835001298E+02 0.  0.
         -6    2    1    2    0  502 -0.45767234288E+01 -0.17197506135E+02 -0.37832732076E+03  0.41762790128E+03  0.17596818370E+03 0.  0.
        -24    2    5    5    0    0  0.33302609522E+02 -0.12131828010E+02 -0.36747789257E+03  0.37762408831E+03  0.79395878312E+02 0.  0.
          5    1    3    3  501    0  0.12640431695E+02  0.60204314352E+02 -0.87695620934E+01  0.62316411958E+02  0.47000000000E+01 0. -1.
        -13    1    4    4    0    0  0.17876137168E+02 -0.33226821636E+02  0.90560193739E+02  0.98105691202E+02  0.00000000000E+00 0.  1.
         14    1    4    4    0    0 -0.25939845433E+02 -0.97799865810E+01 -0.18201185231E+01  0.27781946477E+02  0.00000000000E+00 0. -1.
         -5    1    5    5    0  502 -0.37879332950E+02 -0.50656781246E+01 -0.10849428193E+02  0.40003812965E+02  0.47000000000E+01 0.  1.
         13    1    6    6    0    0  0.34126169236E+02  0.19311079308E+02 -0.87489980166E+02  0.95874969832E+02  0.00000000000E+00 0. -1.
        -14    1    6    6    0    0 -0.82355971478E+00 -0.31442907319E+02 -0.27998791240E+03  0.28174911848E+03  0.00000000000E+00 0.  1.
</event>
<event>
12    1  0.9873238E-001  0.2054515E+03  0.7818608E-02  0.1145237E+00
         21   -1    0    0  501  502  0.00000000000E+00  0.00000000000E+00  0.18631237334E+04  0.18631237334E+04  0.00000000000E+00 0. -1.
         21   -1    0    0  502  503 -0.00000000000E+00 -0.00000000000E+00 -0.22749970186E+02  0.22749970186E+02  0.00000000000E+00 0. -1.
         -6    2    1    2    0  503 -0.10501501280E+03 -0.40179269462E+02  0.98409928141E+03  0.10053167203E+04  0.17195285923E+03 0.  0.
        -24    2    3    3    0    0 -0.33782558781E+02 -0.81610360576E+02  0.65448560652E+03  0.66552581032E+03  0.82290235330E+02 0.  0.
          6    2    1    2  501    0  0.10501501280E+03  0.40179269462E+02  0.85627448182E+03  0.88055698332E+03  0.17184902110E+03 0.  0.
         24    2    5    5    0    0  0.34709824540E+02  0.16461575615E+02  0.71306365035E+03  0.71919781641E+03  0.85498387581E+02 0.  0.
          5    1    5    5  501    0  0.70305188261E+02  0.23717693847E+02  0.14321083147E+03  0.16135916692E+03  0.47000000000E+01 0. -1.
        -13    1    6    6    0    0  0.53624293702E+02  0.22354330257E+02  0.66007503470E+03  0.66262684249E+03  0.00000000000E+00 0.  1.
         14    1    6    6    0    0 -0.18914469162E+02 -0.58927546423E+01  0.52988615657E+02  0.56570973919E+02  0.00000000000E+00 0. -1.
         -5    1    3    3    0  503 -0.71232454019E+02  0.41431091115E+02  0.32961367489E+03  0.33979090996E+03  0.47000000000E+01 0.  1.
         13    1    4    4    0    0 -0.32253659714E+02 -0.57556193132E+02  0.61972060161E+03  0.62322278359E+03  0.00000000000E+00 0. -1.
        -14    1    4    4    0    0 -0.15288990678E+01 -0.24054167445E+02  0.34765004914E+02  0.42303026730E+02  0.00000000000E+00 0.  1.
</event>
<event>
12    1  0.9873238E-001  0.1918459E+03  0.7818608E-02  0.1159738E+00
         21   -1    0    0  503  502  0.00000000000E+00  0.00000000000E+00  0.25862492363E+03  0.25862492363E+03  0.00000000000E+00 0. -1.
         21   -1    0    0  501  503 -0.00000000000E+00 -0.00000000000E+00 -0.14190650114E+03  0.14190650114E+03  0.00000000000E+00 0. -1.
          6    2    1    2  501    0  0.66738394040E+02 -0.18142779407E+02  0.10235223837E+02  0.19211869761E+03  0.17894597084E+03 0.  0.
         24    2    3    3    0    0  0.77771623310E+02  0.34536407722E+02  0.48181532253E+02  0.12609717667E+03  0.79610608987E+02 0.  0.
         -6    2    1    2    0  502 -0.66738394040E+02  0.18142779407E+02  0.10648319865E+03  0.20841272716E+03  0.16526953611E+03 0.  0.
        -24    2    5    5    0    0 -0.10383701141E+03 -0.70438170233E+01  0.91521162011E+02  0.16090878427E+03  0.81754348275E+02 0.  0.
          5    1    3    3  501    0 -0.11033229270E+02 -0.52679187129E+02 -0.37946308416E+02  0.66021520939E+02  0.47000000000E+01 0. -1.
        -11    1    4    4    0    0  0.38836882868E+02 -0.24409589591E+02  0.17997123950E+02  0.49275024154E+02  0.00000000000E+00 0.  1.
         12    1    4    4    0    0  0.38934740442E+02  0.58945997313E+02  0.30184408303E+02  0.76822152516E+02  0.00000000000E+00 0. -1.
         -5    1    5    5    0  502  0.37098617367E+02  0.25186596430E+02  0.14962036644E+02  0.47503942898E+02  0.47000000000E+01 0.  1.
         13    1    6    6    0    0 -0.51290616539E+02 -0.33542057849E+02  0.80274651657E+02  0.10099414185E+03  0.00000000000E+00 0. -1.
        -14    1    6    6    0    0 -0.52546394869E+02  0.26498240825E+02  0.11246510354E+02  0.59914642415E+02  0.00000000000E+00 0.  1.
</event>
<event>
12    1  0.9873238E-001  0.2040173E+03  0.7818608E-02  0.1146503E+00
         21   -1    0    0  503  502  0.00000000000E+00  0.00000000000E+00  0.80559225875E+02  0.80559225875E+02  0.00000000000E+00 0. -1.
         21   -1    0    0  501  503 -0.00000000000E+00 -0.00000000000E+00 -0.17377193110E+04  0.17377193110E+04  0.00000000000E+00 0. -1.
          6    2    1    2  501    0  0.90733833747E+02 -0.61972369535E+02 -0.65744886914E+02  0.21383926584E+03  0.17126481918E+03 0.  0.
         24    2    3    3    0    0  0.10228129450E+03 -0.16026040582E+02 -0.92146881033E+02  0.15940063721E+03  0.78735114645E+02 0.  0.
         -6    2    1    2    0  502 -0.90733833747E+02  0.61972369535E+02 -0.15914151982E+04  0.16044392710E+04  0.17190066364E+03 0.  0.
        -24    2    5    5    0    0 -0.47037865380E+02  0.67640407966E+02 -0.14815213180E+04  0.14859478400E+04  0.79672969424E+02 0.  0.
          5    1    3    3  501    0 -0.11547460749E+02 -0.45946328953E+02  0.26401994119E+02  0.54438628634E+02  0.47000000000E+01 0. -1.
        -13    1    4    4    0    0  0.57791320423E+02 -0.46444424493E+02 -0.39273250116E+02  0.83900592712E+02  0.00000000000E+00 0.  1.
         14    1    4    4    0    0  0.44489974073E+02  0.30418383911E+02 -0.52873630918E+02  0.75500044498E+02  0.00000000000E+00 0. -1.
         -5    1    5    5    0  502 -0.43695968366E+02 -0.56680384305E+01 -0.10989388021E+03  0.11849143099E+03  0.47000000000E+01 0.  1.
         13    1    6    6    0    0 -0.22742764500E+02 -0.11090342376E+02 -0.17365331542E+03  0.17548704507E+03  0.00000000000E+00 0. -1.
        -14    1    6    6    0    0 -0.24295100880E+02  0.78730750341E+02 -0.13078680026E+04  0.13104607950E+04  0.00000000000E+00 0.  1.
</event>
<event>
12    1  0.9873238E-001  0.2159493E+03  0.7818608E-02  0.1137019E+00
         21   -1    0    0  501  502  0.00000000000E+00  0.00000000000E+00  0.12419541973E+03  0.12419541973E+03  0.00000000000E+00 0. -1.
         21   -1    0    0  502  503 -0.00000000000E+00 -0.00000000000E+00 -0.37807249493E+03  0.37807249493E+03  0.00000000000E+00 0. -1.
         -6    2    1    2    0  503 -0.34880656888E+02 -0.12535723632E+03 -0.10357468280E+03  0.23950325995E+03  0.17234558214E+03 0.  0.
        -24    2    3    3    0    0  0.45720747471E+02 -0.67504951247E+02 -0.36432620282E+02  0.11961322770E+03  0.79578157979E+02 0.  0.
          6    2    1    2  501    0  0.34880656888E+02  0.12535723632E+03 -0.15030239239E+03  0.26276465472E+03  0.17182362377E+03 0.  0.
         24    2    5    5    0    0  0.77189017828E+02  0.57660674492E+02 -0.49707612601E+02  0.13425698331E+03  0.79190864124E+02 0.  0.
          5    1    5    5  501    0 -0.42308360940E+02  0.67696561831E+02 -0.10059477979E+03  0.12850767141E+03  0.47000000000E+01 0. -1.
        -11    1    6    6    0    0  0.13076404520E+02  0.55041999495E+02 -0.40172792276E+02  0.69386362513E+02  0.00000000000E+00 0.  1.
         12    1    6    6    0    0  0.64112613307E+02  0.26186749970E+01 -0.95348203248E+01  0.64870620796E+02  0.00000000000E+00 0. -1.
         -5    1    3    3    0  503 -0.80601404359E+02 -0.57852285076E+02 -0.67142062518E+02  0.11989003225E+03  0.47000000000E+01 0.  1.
         13    1    4    4    0    0  0.53223071005E+02 -0.90153760490E+01 -0.25244763404E+02  0.59592536209E+02  0.00000000000E+00 0. -1.
        -14    1    4    4    0    0 -0.75023235335E+01 -0.58489575198E+02 -0.11187856879E+02  0.60020691489E+02  0.00000000000E+00 0.  1.
</event>
<event>
12    1  0.9873238E-001  0.2299856E+03  0.7818608E-02  0.1126754E+00
         21   -1    0    0  501  502  0.00000000000E+00  0.00000000000E+00  0.49379495625E+03  0.49379495625E+03  0.00000000000E+00 0.  1.
         21   -1    0    0  502  503 -0.00000000000E+00 -0.00000000000E+00 -0.14088398353E+03  0.14088398353E+03  0.00000000000E+00 0.  1.
         -6    2    1    2    0  503  0.85429512743E+02 -0.12413266962E+03  0.33227750523E+03  0.40376966053E+03  0.17295802083E+03 0.  0.
        -24    2    3    3    0    0  0.30230667214E+02 -0.39835061144E+02  0.50047579765E+02  0.10405509604E+03  0.76301883558E+02 0.  0.
          6    2    1    2  501    0 -0.85429512743E+02  0.12413266962E+03  0.20633467489E+02  0.23090927925E+03  0.17374186009E+03 0.  0.
         24    2    5    5    0    0 -0.58858462050E+02  0.16081045537E+02  0.56507647295E+02  0.11390406151E+03  0.77833812991E+02 0.  0.
          5    1    5    5  501    0 -0.26571050694E+02  0.10805162408E+03 -0.35874179806E+02  0.11700521774E+03  0.47000000000E+01 0. -1.
        -13    1    6    6    0    0 -0.38998321841E+01  0.62571125238E+01 -0.18779579203E+02  0.20175052496E+02  0.00000000000E+00 0.  1.
         14    1    6    6    0    0 -0.54958629866E+02  0.98239330127E+01  0.75287226498E+02  0.93729009011E+02  0.00000000000E+00 0. -1.
         -5    1    3    3    0  503  0.55198845529E+02 -0.84297608477E+02  0.28222992546E+03  0.29971456450E+03  0.47000000000E+01 0.  1.
         13    1    4    4    0    0  0.51112482485E+02 -0.43318250416E+02  0.25621723952E+02  0.71731648686E+02  0.00000000000E+00 0. -1.
        -14    1    4    4    0    0 -0.20881815271E+02  0.34831892714E+01  0.24425855813E+02  0.32323447352E+02  0.00000000000E+00 0.  1.
</event>
<event>
12    1  0.9873238E-001  0.1825353E+03  0.7818608E-02  0.1165654E+00
         21   -1    0    0  501  502  0.00000000000E+00  0.00000000000E+00  0.45532617287E+03  0.45532617287E+03  0.00000000000E+00 0. -1.
         21   -1    0    0  502  503 -0.00000000000E+00 -0.00000000000E+00 -0.88509951063E+02  0.88509951063E+02  0.00000000000E+00 0. -1.
         -6    2    1    2    0  503 -0.59764865686E+02 -0.57809393693E+01  0.29881591558E+03  0.35015724400E+03  0.17237716115E+03 0.  0.
        -24    2    3    3    0    0  0.13273042300E+02 -0.41393079985E+02  0.24044535629E+03  0.24999750780E+03  0.52869876340E+02 0.  0.
          6    2    1    2  501    0  0.59764865686E+02  0.57809393693E+01  0.68000306225E+02  0.19367887994E+03  0.17112045014E+03 0.  0.
         24    2    5    5    0    0  0.16081296520E+01  0.92807835973E+01  0.99256696577E+02  0.12739534658E+03  0.79302985384E+02 0.  0.
          5    1    5    5  501    0  0.58156736034E+02 -0.34998442279E+01 -0.31256390353E+02  0.66283533352E+02  0.47000000000E+01 0. -1.
        -13    1    6    6    0    0 -0.19522213941E+02  0.33884853745E+02  0.81556166314E+02  0.90447268694E+02  0.00000000000E+00 0.  1.
         14    1    6    6    0    0  0.21130343593E+02 -0.24604070147E+02  0.17700530263E+02  0.36948077890E+02  0.00000000000E+00 0. -1.
         -5    1    3    3    0  503 -0.73037907985E+02  0.35612140616E+02  0.58370559295E+02  0.10015973619E+03  0.47000000000E+01 0.  1.
         13    1    4    4    0    0 -0.84947154582E+01 -0.83834345210E+01  0.15914244613E+03  0.15958934904E+03  0.00000000000E+00 0. -1.
        -14    1    4    4    0    0  0.21767757758E+02 -0.33009645464E+02  0.81302910154E+02  0.90408158764E+02  0.00000000000E+00 0.  1.
</event>
<event>
12    1  0.9873238E-001  0.3506598E+03  0.7818608E-02  0.1062353E+00
         21   -1    0    0  501  502  0.00000000000E+00  0.00000000000E+00  0.79754638715E+03  0.79754638715E+03  0.00000000000E+00 0.  1.
         21   -1    0    0  502  503 -0.00000000000E+00 -0.00000000000E+00 -0.22845527926E+03  0.22845527926E+03  0.00000000000E+00 0.  1.
         -6    2    1    2    0  503  0.29658389542E+03 -0.67095346601E+02 -0.80637218384E+01  0.35067211674E+03  0.17447669555E+03 0.  0.
        -24    2    3    3    0    0  0.81260593041E+02 -0.63753494928E+01 -0.45693603070E+02  0.12375992985E+03  0.81146077004E+02 0.  0.
          6    2    1    2  501    0 -0.29658389542E+03  0.67095346601E+02  0.57715482973E+03  0.67532954967E+03  0.17463822784E+03 0.  0.
         24    2    5    5    0    0 -0.12882526937E+03 -0.29685465055E+02  0.22856140464E+03  0.27652013638E+03  0.82133387041E+02 0.  0.
          5    1    5    5  501    0 -0.16775862605E+03  0.96780811656E+02  0.34859342509E+03  0.39880941330E+03  0.47000000000E+01 0. -1.
        -11    1    6    6    0    0 -0.71842257455E+02 -0.14536148093E+01  0.18756346535E+03  0.20085685571E+03  0.00000000000E+00 0.  1.
         12    1    6    6    0    0 -0.56983011911E+02 -0.28231850246E+02  0.40997939292E+02  0.75663280664E+02  0.00000000000E+00 0. -1.
         -5    1    3    3    0  503  0.21532330238E+03 -0.60719997108E+02  0.37629881232E+02  0.22691218688E+03  0.47000000000E+01 0.  1.
         11    1    4    4    0    0 -0.59195449906E+01 -0.66687229020E+01  0.15057720665E+02  0.17499937990E+02  0.00000000000E+00 0. -1.
        -12    1    4    4    0    0  0.87180138031E+02  0.29337340917E+00 -0.60751323735E+02  0.10625999186E+03  0.00000000000E+00 0.  1.
</event>
<event>
12    1  0.9873238E-001  0.4551755E+03  0.7818608E-02  0.1026403E+00
         21   -1    0    0  501  502  0.00000000000E+00  0.00000000000E+00  0.14407620277E+04  0.14407620277E+04  0.00000000000E+00 0.  1.
         21   -1    0    0  502  503 -0.00000000000E+00 -0.00000000000E+00 -0.62449501598E+03  0.62449501598E+03  0.00000000000E+00 0. -1.
         -6    2    1    2    0  503  0.92135802714E+01  0.42046264589E+03 -0.49899266381E+03  0.67346223552E+03  0.16638502783E+03 0.  0.
        -24    2    3    3    0    0  0.46263838159E+02  0.32743004920E+03 -0.31553812009E+03  0.46440376220E+03  0.82193486817E+02 0.  0.
          6    2    1    2  501    0 -0.92135802714E+01 -0.42046264589E+03  0.13152596755E+04  0.13917948081E+04  0.17410068143E+03 0.  0.
         24    2    5    5    0    0 -0.43604753809E+02 -0.39678858063E+03  0.11002422325E+04  0.11727107946E+04  0.73314973521E+02 0.  0.
          5    1    5    5  501    0  0.34391173537E+02 -0.23674065260E+02  0.21501744302E+03  0.21908401353E+03  0.47000000000E+01 0. -1.
        -13    1    6    6    0    0 -0.25326216083E+02 -0.65347230731E+02  0.13715719031E+03  0.15402523377E+03  0.00000000000E+00 0.  1.
         14    1    6    6    0    0 -0.18278537725E+02 -0.33144134990E+03  0.96308504215E+03  0.10186855608E+04  0.00000000000E+00 0. -1.
         -5    1    3    3    0  503 -0.37050257888E+02  0.93032596693E+02 -0.18345454372E+03  0.20905847332E+03  0.47000000000E+01 0.  1.
         11    1    4    4    0    0 -0.17550463558E+02  0.16942045429E+03 -0.15615580829E+03  0.23107562738E+03  0.00000000000E+00 0. -1.
        -12    1    4    4    0    0  0.63814301717E+02  0.15800959490E+03 -0.15938231179E+03  0.23332813482E+03  0.00000000000E+00 0.  1.
</event>
<event>
12    1  0.9873238E-001  0.2047379E+03  0.7818608E-02  0.1145926E+00
         21   -1    0    0  501  502  0.00000000000E+00  0.00000000000E+00  0.13978228334E+03  0.13978228334E+03  0.00000000000E+00 0. -1.
         21   -1    0    0  502  503 -0.00000000000E+00 -0.00000000000E+00 -0.42292768324E+03  0.42292768324E+03  0.00000000000E+00 0. -1.
         -6    2    1    2    0  503  0.10535416210E+03 -0.40479498669E+02 -0.29402637616E+03  0.35828638093E+03  0.17082017327E+03 0.  0.
        -24    2    3    3    0    0  0.76164368263E+01 -0.40633369630E+02 -0.21646846878E+03  0.23342643693E+03  0.76942983075E+02 0.  0.
          6    2    1    2  501    0 -0.10535416210E+03  0.40479498669E+02  0.10880976252E+02  0.20442358565E+03  0.17009561265E+03 0.  0.
         24    2    5    5    0    0 -0.52466165129E+02 -0.29653032054E+02 -0.33763321001E+02  0.10577818350E+03  0.80106563189E+02 0.  0.
          5    1    5    5  501    0 -0.52887996970E+02  0.70132530723E+02  0.44644297253E+02  0.98645402155E+02  0.47000000000E+01 0. -1.
        -11    1    6    6    0    0 -0.55280384414E+02  0.10881888136E+02 -0.32676137409E+02  0.65131147283E+02  0.00000000000E+00 0.  1.
         12    1    6    6    0    0  0.28142192853E+01 -0.40534920190E+02 -0.10871835921E+01  0.40647036216E+02  0.00000000000E+00 0. -1.
         -5    1    3    3    0  503  0.97737725273E+02  0.15387096081E+00 -0.77557907377E+02  0.12485994400E+03  0.47000000000E+01 0.  1.
         13    1    4    4    0    0 -0.33737960914E+02 -0.13028614379E+02 -0.70736635562E+02  0.79445996814E+02  0.00000000000E+00 0. -1.
        -14    1    4    4    0    0  0.41354397740E+02 -0.27604755252E+02 -0.14573183322E+03  0.15398044012E+03  0.00000000000E+00 0.  1.
</event>
<event>
12    1  0.9873238E-001  0.2296636E+03  0.7818608E-02  0.1126881E+00
         21   -1    0    0  503  502  0.00000000000E+00  0.00000000000E+00  0.20713550361E+02  0.20713550361E+02  0.00000000000E+00 0. -1.
         21   -1    0    0  501  503 -0.00000000000E+00 -0.00000000000E+00 -0.31161788170E+04  0.31161788170E+04  0.00000000000E+00 0. -1.
          6    2    1    2  501    0  0.24679016892E+01 -0.15261128088E+03 -0.22186154235E+04  0.22304707466E+04  0.17160728557E+03 0.  0.
         24    2    3    3    0    0 -0.46783965931E+02 -0.32989213553E+02 -0.79039399542E+03  0.79639483401E+03  0.79025539911E+02 0.  0.
         -6    2    1    2    0  502 -0.24679016892E+01  0.15261128088E+03 -0.87684984317E+03  0.90642162080E+03  0.17157567887E+03 0.  0.
        -24    2    5    5    0    0  0.41101958393E+02  0.98044046626E+02 -0.75240704506E+03  0.76364901921E+03  0.75772402760E+02 0.  0.
          5    1    3    3  501    0  0.49251867620E+02 -0.11962206732E+03 -0.14282214281E+04  0.14340759126E+04  0.47000000000E+01 0. -1.
        -13    1    4    4    0    0 -0.21029238769E+02 -0.43687753375E+02 -0.70275257949E+03  0.70442319429E+03  0.00000000000E+00 0.  1.
         14    1    4    4    0    0 -0.25754727162E+02  0.10698539822E+02 -0.87641415933E+02  0.91971639717E+02  0.00000000000E+00 0. -1.
         -5    1    5    5    0  502 -0.43569860082E+02  0.54567234249E+02 -0.12444279811E+03  0.14277260158E+03  0.47000000000E+01 0.  1.
         13    1    6    6    0    0  0.29699904279E+02  0.10987403699E+03 -0.67350265188E+03  0.68305212861E+03  0.00000000000E+00 0. -1.
        -14    1    6    6    0    0  0.11402054114E+02 -0.11829990363E+02 -0.78904393184E+02  0.80596890596E+02  0.00000000000E+00 0.  1.
</event>
<event>
12    1  0.9873238E-001  0.2717035E+03  0.7818608E-02  0.1100315E+00
         21   -1    0    0  501  502  0.00000000000E+00  0.00000000000E+00  0.55508544518E+03  0.55508544518E+03  0.00000000000E+00 0. -1.
         21   -1    0    0  502  503 -0.00000000000E+00 -0.00000000000E+00 -0.13695435770E+03  0.13695435770E+03  0.00000000000E+00 0. -1.
         -6    2    1    2    0  503 -0.20700844838E+03 -0.38272080584E+02  0.26808334518E+03  0.38169549144E+03  0.17177170422E+03 0.  0.
        -24    2    3    3    0    0 -0.16467239047E+03 -0.89905283590E+02  0.21496621990E+03  0.29624463744E+03  0.79689731527E+02 0.  0.
          6    2    1    2  501    0  0.20700844838E+03  0.38272080584E+02  0.15004774231E+03  0.31034431144E+03  0.17170328133E+03 0.  0.
         24    2    5    5    0    0  0.15069007920E+03 -0.38228014568E+02  0.10411090587E+03  0.20472089450E+03  0.83082385952E+02 0.  0.
          5    1    5    5  501    0  0.56318369172E+02  0.76500095151E+02  0.45936836439E+02  0.10562341694E+03  0.47000000000E+01 0. -1.
        -11    1    6    6    0    0  0.15578335510E+03 -0.20657532377E+02  0.86753971162E+02  0.17950331162E+03  0.00000000000E+00 0.  1.
         12    1    6    6    0    0 -0.50932758974E+01 -0.17570482190E+02  0.17356934709E+02  0.25217582879E+02  0.00000000000E+00 0. -1.
         -5    1    3    3    0  503 -0.42336057903E+02  0.51633203006E+02  0.53117125279E+02  0.85450854000E+02  0.47000000000E+01 0.  1.
         11    1    4    4    0    0 -0.49592332330E+02 -0.71829906621E+02  0.95695802092E+02  0.12952459785E+03  0.00000000000E+00 0. -1.
        -12    1    4    4    0    0 -0.11508005814E+03 -0.18075376969E+02  0.11927041781E+03  0.16672003958E+03  0.00000000000E+00 0.  1.
</event>
<event>
12    1  0.9873238E-001  0.1922746E+03  0.7818608E-02  0.1156547E+00
         21   -1    0    0  501  502  0.00000000000E+00  0.00000000000E+00  0.94941743900E+02  0.94941743900E+02  0.00000000000E+00 0.  1.
         21   -1    0    0  502  503 -0.00000000000E+00 -0.00000000000E+00 -0.52498857691E+03  0.52498857691E+03  0.00000000000E+00 0.  1.
         -6    2    1    2    0  503 -0.79187829336E+02 -0.30726074270E+02 -0.37341592868E+03  0.42001066801E+03  0.17249551152E+03 0.  0.
        -24    2    3    3    0    0  0.84481303180E+01  0.29200357548E+02 -0.19003248173E+03  0.20806063316E+03  0.79074971851E+02 0.  0.
          6    2    1    2  501    0  0.79187829336E+02  0.30726074270E+02 -0.56630904328E+02  0.19991965280E+03  0.17188951188E+03 0.  0.
         24    2    5    5    0    0  0.27646103325E+02  0.79203956340E+02 -0.12944459203E+02  0.11662949697E+03  0.79983165796E+02 0.  0.
          5    1    5    5  501    0  0.51541726010E+02 -0.48477882071E+02 -0.43686445126E+02  0.83290155829E+02  0.47000000000E+01 0. -1.
        -13    1    6    6    0    0  0.27137959138E+02  0.92172132687E+01 -0.33112114851E+02  0.43793127275E+02  0.00000000000E+00 0.  1.
         14    1    6    6    0    0  0.50814418705E+00  0.69986743072E+02  0.20167655648E+02  0.72836369697E+02  0.00000000000E+00 0. -1.
         -5    1    3    3    0  503 -0.87635959654E+02 -0.59926431818E+02 -0.18338344695E+03  0.21195003484E+03  0.47000000000E+01 0.  1.
         13    1    4    4    0    0 -0.30782034032E+02  0.33088321712E+02 -0.10656022968E+03  0.11574736801E+03  0.00000000000E+00 0. -1.
        -14    1    4    4    0    0  0.39230164350E+02 -0.38879641633E+01 -0.83472252051E+02  0.92313265150E+02  0.00000000000E+00 0.  1.
</event>
<event>
12    1  0.9873238E-001  0.2121816E+03  0.7818608E-02  0.1139851E+00
         21   -1    0    0  501  502  0.00000000000E+00  0.00000000000E+00  0.17231266250E+03  0.17231266250E+03  0.00000000000E+00 0. -1.
         21   -1    0    0  502  503 -0.00000000000E+00 -0.00000000000E+00 -0.28237120566E+03  0.28237120566E+03  0.00000000000E+00 0. -1.
         -6    2    1    2    0  503 -0.38893749437E+02  0.11819134408E+03  0.71218529131E+01  0.21229516628E+03  0.17186215196E+03 0.  0.
        -24    2    3    3    0    0  0.34800218854E+02  0.15551664862E+02 -0.16589861456E+02  0.83648207079E+02  0.72587116847E+02 0.  0.
          6    2    1    2  501    0  0.38893749437E+02 -0.11819134408E+03 -0.11718039608E+03  0.24238870189E+03  0.17186948541E+03 0.  0.
         24    2    5    5    0    0 -0.62018814838E+01 -0.13483182782E+03 -0.59236260217E+02  0.16695572165E+03  0.78404039061E+02 0.  0.
          5    1    5    5  501    0  0.45095630921E+02  0.16640483733E+02 -0.57944135860E+02  0.75432980238E+02  0.47000000000E+01 0. -1.
        -11    1    6    6    0    0  0.14927115826E+02 -0.12632955888E+03 -0.31469574816E+02  0.13104316225E+03  0.00000000000E+00 0.  1.
         12    1    6    6    0    0 -0.21128997310E+02 -0.85022689348E+01 -0.27766685401E+02  0.35912559398E+02  0.00000000000E+00 0. -1.
         -5    1    3    3    0  503 -0.73693968291E+02  0.10263967922E+03  0.23711714369E+02  0.12864695920E+03  0.47000000000E+01 0.  1.
         13    1    4    4    0    0  0.31637410874E+02 -0.24491868736E+02  0.45719022123E+00  0.40012328398E+02  0.00000000000E+00 0. -1.
        -14    1    4    4    0    0  0.31628079806E+01  0.40043533598E+02 -0.17047051677E+02  0.43635878680E+02  0.00000000000E+00 0.  1.
</event>
<event>
12    1  0.9873238E-001  0.1839153E+03  0.7818608E-02  0.1164086E+00
         21   -1    0    0  503  502  0.00000000000E+00  0.00000000000E+00  0.51337360495E+03  0.51337360495E+03  0.00000000000E+00 0. -1.
         21   -1    0    0  501  503 -0.00000000000E+00 -0.00000000000E+00 -0.17764095475E+03  0.17764095475E+03  0.00000000000E+00 0. -1.
          6    2    1    2  501    0  0.45356300480E+02 -0.45825865591E+02  0.44192980476E+03  0.47864062785E+03  0.17215601743E+03 0.  0.
         24    2    3    3    0    0  0.76370543272E+02 -0.14414737001E+02  0.16539634663E+03  0.19856673452E+03  0.77669505328E+02 0.  0.
         -6    2    1    2    0  502 -0.45356300480E+02  0.45825865591E+02 -0.10619715456E+03  0.21237393185E+03  0.17224298924E+03 0.  0.
        -24    2    5    5    0    0 -0.11533220023E+02 -0.30618853639E+02 -0.93394049455E+02  0.12767561209E+03  0.80672697284E+02 0.  0.
          5    1    3    3  501    0 -0.31014242792E+02 -0.31411128590E+02  0.27653345813E+03  0.28007389333E+03  0.47000000000E+01 0. -1.
        -11    1    4    4    0    0  0.61358806159E+02  0.16600809947E+02  0.58987900552E+02  0.86718293316E+02  0.00000000000E+00 0.  1.
         12    1    4    4    0    0  0.15011737114E+02 -0.31015546948E+02  0.10640844608E+03  0.11184844120E+03  0.00000000000E+00 0. -1.
         -5    1    5    5    0  502 -0.33823080457E+02  0.76444719231E+02 -0.12803105107E+02  0.84698319760E+02  0.47000000000E+01 0.  1.
         13    1    6    6    0    0 -0.27691300325E+02  0.24794714334E+01 -0.85635478729E+02  0.90035499162E+02  0.00000000000E+00 0. -1.
        -14    1    6    6    0    0  0.16158080302E+02 -0.33098325073E+02 -0.77585707265E+01  0.37640112930E+02  0.00000000000E+00 0.  1.
</event>
<event>
12    1  0.9873238E-001  0.1992011E+03  0.7818608E-02  0.1151218E+00
         21   -1    0    0  501  502  0.00000000000E+00  0.00000000000E+00  0.47111899670E+02  0.47111899670E+02  0.00000000000E+00 0.  1.
         21   -1    0    0  502  503 -0.00000000000E+00 -0.00000000000E+00 -0.82760350806E+03  0.82760350806E+03  0.00000000000E+00 0.  1.
         -6    2    1    2    0  503  0.13578545284E+02  0.99917871231E+02 -0.37797848482E+03  0.42725733708E+03  0.17179388586E+03 0.  0.
        -24    2    3    3    0    0 -0.25631572748E+02  0.53176302865E+02 -0.34243282936E+03  0.35649158836E+03  0.79632363048E+02 0.  0.
          6    2    1    2  501    0 -0.13578545284E+02 -0.99917871231E+02 -0.40251312357E+03  0.44745807065E+03  0.16743342695E+03 0.  0.
         24    2    5    5    0    0  0.13554177146E+02 -0.67905884837E+02 -0.11123761146E+03  0.15313772502E+03  0.79261792219E+02 0.  0.
          5    1    5    5  501    0 -0.27132722430E+02 -0.32011986394E+02 -0.29127551211E+03  0.29432034563E+03  0.47000000000E+01 0. -1.
        -13    1    6    6    0    0 -0.24664925472E+02 -0.61804047562E+02 -0.70778290033E+02  0.97147646310E+02  0.00000000000E+00 0.  1.
         14    1    6    6    0    0  0.38219102618E+02 -0.61018372748E+01 -0.40459321429E+02  0.55990078706E+02  0.00000000000E+00 0. -1.
         -5    1    3    3    0  503  0.39210118032E+02  0.46741568365E+02 -0.35545655461E+02  0.70765748717E+02  0.47000000000E+01 0.  1.
         13    1    4    4    0    0 -0.20143710833E+02  0.73160513933E+02 -0.23089213184E+03  0.24304198492E+03  0.00000000000E+00 0. -1.
        -14    1    4    4    0    0 -0.54878619152E+01 -0.19984211068E+02 -0.11154069751E+03  0.11344960345E+03  0.00000000000E+00 0.  1.
</event>
<event>
12    1  0.9873238E-001  0.1959280E+03  0.7818608E-02  0.1153462E+00
         21   -1    0    0  501  502  0.00000000000E+00  0.00000000000E+00  0.12240721522E+03  0.12240721522E+03  0.00000000000E+00 0. -1.
         21   -1    0    0  502  503 -0.00000000000E+00 -0.00000000000E+00 -0.36700373898E+03  0.36700373898E+03  0.00000000000E+00 0. -1.
         -6    2    1    2    0  503 -0.80682475682E+02  0.49180592347E+02 -0.21688279681E+03  0.29153258563E+03  0.17036639454E+03 0.  0.
        -24    2    3    3    0    0 -0.12167255390E+03  0.26923060987E+02 -0.15592250419E+03  0.21463114553E+03  0.78902723227E+02 0.  0.
          6    2    1    2  501    0  0.80682475682E+02 -0.49180592347E+02 -0.27713726961E+02  0.19787836857E+03  0.17163742464E+03 0.  0.
         24    2    5    5    0    0  0.68917704783E+02 -0.20622075925E+02  0.43731462095E+02  0.11990078375E+03  0.85374686640E+02 0.  0.
          5    1    5    5  501    0  0.11764770899E+02 -0.28558516422E+02 -0.71445189056E+02  0.77977584816E+02  0.47000000000E+01 0. -1.
        -11    1    6    6    0    0  0.71734423842E+02 -0.74354905719E+01 -0.20773277571E+01  0.72148661627E+02  0.00000000000E+00 0.  1.
         12    1    6    6    0    0 -0.28167190588E+01 -0.13186585354E+02  0.45808789853E+02  0.47752122123E+02  0.00000000000E+00 0. -1.
         -5    1    3    3    0  503  0.40990078215E+02  0.22257531361E+02 -0.60960292617E+02  0.76901440106E+02  0.47000000000E+01 0.  1.
         13    1    4    4    0    0 -0.12334979960E+02  0.18116525293E+02 -0.75498479383E+02  0.78615396764E+02  0.00000000000E+00 0. -1.
        -14    1    4    4    0    0 -0.10933757394E+03  0.88065356936E+01 -0.80424024808E+02  0.13601574876E+03  0.00000000000E+00 0.  1.
</event>
<event>
12    1  0.9873238E-001  0.1770768E+03  0.7818608E-02  0.1171654E+00
         21   -1    0    0  501  502  0.00000000000E+00  0.00000000000E+00  0.76107731249E+02  0.76107731249E+02  0.00000000000E+00 0. -1.
         21   -1    0    0  502  503 -0.00000000000E+00 -0.00000000000E+00 -0.42522407358E+03  0.42522407358E+03  0.00000000000E+00 0. -1.
         -6    2    1    2    0  503  0.22729522744E+01 -0.13477844258E+02 -0.23395330129E+03  0.29341156983E+03  0.17654853024E+03 0.  0.
        -24    2    3    3    0    0 -0.46590092829E+02  0.35562319444E+02 -0.17681120898E+03  0.20352361988E+03  0.82002103111E+02 0.  0.
          6    2    1    2  501    0 -0.22729522744E+01  0.13477844258E+02 -0.11516304104E+03  0.20792023500E+03  0.17257311349E+03 0.  0.
         24    2    5    5    0    0 -0.37142478167E+02 -0.41586129122E+02 -0.32596396607E+02  0.10262414878E+03  0.79750993852E+02 0.  0.
          5    1    5    5  501    0  0.34869525893E+02  0.55063973380E+02 -0.82566644434E+02  0.10529608622E+03  0.47000000000E+01 0. -1.
        -13    1    6    6    0    0  0.22786242410E+02 -0.19974919248E+02  0.15538893787E+01  0.30341799787E+02  0.00000000000E+00 0.  1.
         14    1    6    6    0    0 -0.59928720578E+02 -0.21611209874E+02 -0.34150285986E+02  0.72282348988E+02  0.00000000000E+00 0. -1.
         -5    1    3    3    0  503  0.48863045104E+02 -0.49040163702E+02 -0.57142092307E+02  0.89887949949E+02  0.47000000000E+01 0.  1.
         13    1    4    4    0    0  0.19335319527E+02 -0.75122694590E+01 -0.24854811972E+02  0.32373607333E+02  0.00000000000E+00 0. -1.
        -14    1    4    4    0    0 -0.65925412356E+02  0.43074588903E+02 -0.15195639701E+03  0.17115001255E+03  0.00000000000E+00 0.  1.
</event>
<event>
12    1  0.9873238E-001  0.2832477E+03  0.7818608E-02  0.1094218E+00
         21   -1    0    0  501  502  0.00000000000E+00  0.00000000000E+00  0.12160349646E+04  0.12160349646E+04  0.00000000000E+00 0.  1.
         21   -1    0    0  502  503 -0.00000000000E+00 -0.00000000000E+00 -0.68881924600E+02  0.68881924600E+02  0.00000000000E+00 0.  1.
         -6    2    1    2    0  503  0.81813854291E+02 -0.20999082457E+03  0.42867264657E+03  0.51261943679E+03  0.16801427293E+03 0.  0.
        -24    2    3    3    0    0  0.15240112667E+02 -0.17315591135E+03  0.36133278936E+03  0.41090601450E+03  0.89817244549E+02 0.  0.
          6    2    1    2  501    0 -0.81813854291E+02  0.20999082457E+03  0.71848039346E+03  0.77229745243E+03  0.17157979512E+03 0.  0.
         24    2    5    5    0    0 -0.79603985348E+02  0.12624478492E+03  0.29187517430E+03  0.33751890455E+03  0.80332766409E+02 0.  0.
          5    1    5    5  501    0 -0.22098689422E+01  0.83746039651E+02  0.42660521916E+03  0.43477854788E+03  0.47000000000E+01 0. -1.
        -13    1    6    6    0    0 -0.88413022510E+02  0.11220404715E+03  0.28642299221E+03  0.32006990051E+03  0.00000000000E+00 0.  1.
         14    1    6    6    0    0  0.88090371618E+01  0.14040737765E+02  0.54521820915E+01  0.17449004048E+02  0.00000000000E+00 0. -1.
         -5    1    3    3    0  503  0.66573741623E+02 -0.36834913216E+02  0.67339857208E+02  0.10171342229E+03  0.47000000000E+01 0.  1.
         13    1    4    4    0    0  0.44753409468E+02 -0.43254579893E+02  0.12400493187E+03  0.13874815122E+03  0.00000000000E+00 0. -1.
        -14    1    4    4    0    0 -0.29513296800E+02 -0.12990133146E+03  0.23732785749E+03  0.27215786328E+03  0.00000000000E+00 0.  1.
</event>
<event>
12    1  0.9873238E-001  0.1949021E+03  0.7818608E-02  0.1154187E+00
         21   -1    0    0  503  502  0.00000000000E+00  0.00000000000E+00  0.17559664993E+03  0.17559664993E+03  0.00000000000E+00 0. -1.
         21   -1    0    0  501  503 -0.00000000000E+00 -0.00000000000E+00 -0.26569341827E+03  0.26569341827E+03  0.00000000000E+00 0. -1.
          6    2    1    2  501    0 -0.75841002208E+02 -0.50983190582E+02  0.50450125800E+02  0.20099800899E+03  0.17176682184E+03 0.  0.
         24    2    3    3    0    0  0.68397528969E+01 -0.41970792600E+02 -0.20850827135E+02  0.91347443683E+02  0.78110619150E+02 0.  0.
         -6    2    1    2    0  502  0.75841002208E+02  0.50983190582E+02 -0.14054689414E+03  0.24029205922E+03  0.17215022781E+03 0.  0.
        -24    2    5    5    0    0  0.41919134097E+02  0.24527812518E+02 -0.57319093435E+01  0.98701980859E+02  0.85734467109E+02 0.  0.
          5    1    3    3  501    0 -0.82680755105E+02 -0.90123979819E+01  0.71300952935E+02  0.10965056530E+03  0.47000000000E+01 0. -1.
        -13    1    4    4    0    0  0.25497737562E+02 -0.56497785355E+02 -0.36229183702E+01  0.62090739312E+02  0.00000000000E+00 0.  1.
         14    1    4    4    0    0 -0.18657984666E+02  0.14526992754E+02 -0.17227908765E+02  0.29256704371E+02  0.00000000000E+00 0. -1.
         -5    1    5    5    0  502  0.33921868112E+02  0.26455378064E+02 -0.13481498479E+03  0.14159007836E+03  0.47000000000E+01 0.  1.
         11    1    6    6    0    0 -0.55038570821E+01 -0.27550173118E+02 -0.21293267504E+01  0.28175140000E+02  0.00000000000E+00 0. -1.
        -12    1    6    6    0    0  0.47422991179E+02  0.52077985636E+02 -0.36025825931E+01  0.70526840859E+02  0.00000000000E+00 0.  1.
</event>
<event>
12    1  0.9873238E-001  0.2980628E+03  0.7818608E-02  0.1086292E+00
         21   -1    0    0  501  502  0.00000000000E+00  0.00000000000E+00  0.89117664576E+02  0.89117664576E+02  0.00000000000E+00 0. -1.
         21   -1    0    0  502  503 -0.00000000000E+00 -0.00000000000E+00 -0.10442158110E+04  0.10442158110E+04  0.00000000000E+00 0. -1.
         -6    2    1    2    0  503  0.21814339997E+03 -0.10813355553E+03 -0.35382040092E+03  0.46223262105E+03  0.17085289308E+03 0.  0.
        -24    2    3    3    0    0  0.99570760662E+02 -0.55374234930E+02 -0.28104763182E+03  0.31336696811E+03  0.78933155751E+02 0.  0.
          6    2    1    2  501    0 -0.21814339997E+03  0.10813355553E+03 -0.60127774549E+03  0.67110085451E+03  0.17193609544E+03 0.  0.
         24    2    5    5    0    0 -0.22846575084E+03  0.12808338730E+03 -0.55693852031E+03  0.62117487325E+03  0.84117503197E+02 0.  0.
          5    1    5    5  501    0  0.10322350864E+02 -0.19949831768E+02 -0.44339225174E+02  0.49925981252E+02  0.47000000000E+01 0. -1.
        -11    1    6    6    0    0 -0.70567749653E+02  0.81896961014E+02 -0.26257192246E+03  0.28395586625E+03  0.00000000000E+00 0.  1.
         12    1    6    6    0    0 -0.15789800119E+03  0.46186426289E+02 -0.29436659785E+03  0.33721900700E+03  0.00000000000E+00 0. -1.
         -5    1    3    3    0  503  0.11857263931E+03 -0.52759320605E+02 -0.72772769097E+02  0.14886565294E+03  0.47000000000E+01 0.  1.
         11    1    4    4    0    0 -0.47808585315E+01  0.12865914599E+02 -0.33167336609E+02  0.35895133159E+02  0.00000000000E+00 0. -1.
        -12    1    4    4    0    0  0.10435161919E+03 -0.68240149530E+02 -0.24788029521E+03  0.27747183495E+03  0.00000000000E+00 0.  1.
</event>
<event>
12    1  0.9873238E-001  0.1898140E+03  0.7818608E-02  0.1158660E+00
         21   -1    0    0  503  502  0.00000000000E+00  0.00000000000E+00  0.43110575103E+03  0.43110575103E+03  0.00000000000E+00 0.  1.
         21   -1    0    0  501  503 -0.00000000000E+00 -0.00000000000E+00 -0.10165572053E+03  0.10165572053E+03  0.00000000000E+00 0.  1.
          6    2    1    2  501    0 -0.43888817888E+02  0.66597474236E+02  0.27720801839E+03  0.33588948942E+03  0.17209303220E+03 0.  0.
         24    2    3    3    0    0 -0.25027014833E+02  0.27820469047E+02  0.27903779682E+03  0.29247449391E+03  0.79239558063E+02 0.  0.
         -6    2    1    2    0  502  0.43888817888E+02 -0.66597474236E+02  0.52242012112E+02  0.19687198215E+03  0.17224371575E+03 0.  0.
        -24    2    5    5    0    0  0.67789094015E+02 -0.33190334880E+02 -0.19567822215E+02  0.11401063733E+03  0.83177918714E+02 0.  0.
          5    1    3    3  501    0 -0.18861803056E+02  0.38777005189E+02 -0.18297784349E+01  0.43414995509E+02  0.47000000000E+01 0. -1.
        -13    1    4    4    0    0  0.16372462888E+02  0.37168898796E+02  0.90142495364E+02  0.98869884440E+02  0.00000000000E+00 0.  1.
         14    1    4    4    0    0 -0.41399477721E+02 -0.93484297491E+01  0.18889530146E+03  0.19360460947E+03  0.00000000000E+00 0. -1.
         -5    1    5    5    0  502 -0.23900276127E+02 -0.33407139356E+02  0.71809834326E+02  0.82861344817E+02  0.47000000000E+01 0.  1.
         13    1    6    6    0    0  0.55819861962E+02 -0.27295030097E+02  0.25383668942E+02  0.67120833624E+02  0.00000000000E+00 0. -1.
        -14    1    6    6    0    0  0.11969232054E+02 -0.58953047826E+01 -0.44951491157E+02  0.46889803707E+02  0.00000000000E+00 0.  1.
</event>
<event>
12    1  0.9873238E-001  0.1892987E+03  0.7818608E-02  0.1159307E+00
         21   -1    0    0  501  502  0.00000000000E+00  0.00000000000E+00  0.70601784820E+03  0.70601784820E+03  0.00000000000E+00 0.  1.
         21   -1    0    0  502  503 -0.00000000000E+00 -0.00000000000E+00 -0.20641381228E+03  0.20641381228E+03  0.00000000000E+00 0. -1.
         -6    2    1    2    0  503 -0.68915291755E+02 -0.40863780310E+02  0.64614388474E+03  0.67304093379E+03  0.17047877518E+03 0.  0.
        -24    2    3    3    0    0 -0.11139650804E+03 -0.51370657598E+02  0.49386321210E+03  0.51452739661E+03  0.76088390279E+02 0.  0.
          6    2    1    2  501    0  0.68915291755E+02  0.40863780310E+02 -0.14653984883E+03  0.23939072669E+03  0.17150751224E+03 0.  0.
         24    2    5    5    0    0  0.95857884065E+02  0.71375242173E+02 -0.90233172317E+02  0.16975320516E+03  0.79943518466E+02 0.  0.
          5    1    5    5  501    0 -0.26942592310E+02 -0.30511461863E+02 -0.56306676509E+02  0.69637521530E+02  0.47000000000E+01 0. -1.
        -13    1    6    6    0    0 -0.11570267312E+02 -0.29623888200E+01 -0.14362224910E+02  0.18679409455E+02  0.00000000000E+00 0.  1.
         14    1    6    6    0    0  0.10742815138E+03  0.74337630993E+02 -0.75870947406E+02  0.15107379571E+03  0.00000000000E+00 0. -1.
         -5    1    3    3    0  503  0.42481216283E+02  0.10506877288E+02  0.15228067265E+03  0.15851353718E+03  0.47000000000E+01 0.  1.
         11    1    4    4    0    0 -0.86279917449E+02 -0.65972926987E+02  0.44130128217E+03  0.45447054128E+03  0.00000000000E+00 0. -1.
        -12    1    4    4    0    0 -0.25116590589E+02  0.14602269389E+02  0.52561929930E+02  0.60056855330E+02  0.00000000000E+00 0.  1.
</event>
<event>
12    1  0.9873238E-001  0.1755547E+03  0.7818608E-02  0.1172416E+00
         21   -1    0    0  501  502  0.00000000000E+00  0.00000000000E+00  0.19162805635E+03  0.19162805635E+03  0.00000000000E+00 0.  1.
         21   -1    0    0  502  503 -0.00000000000E+00 -0.00000000000E+00 -0.18888555466E+03  0.18888555466E+03  0.00000000000E+00 0. -1.
         -6    2    1    2    0  503  0.22598008095E+02 -0.20342589901E+02  0.75835989735E+02  0.19123424779E+03  0.17290155944E+03 0.  0.
        -24    2    3    3    0    0  0.23269677829E+02 -0.73243212053E+02  0.74177845408E+02  0.13809512466E+03  0.87532078055E+02 0.  0.
          6    2    1    2  501    0 -0.22598008095E+02  0.20342589901E+02 -0.73093488039E+02  0.18927936322E+03  0.17192884695E+03 0.  0.
         24    2    5    5    0    0 -0.34259138656E+02 -0.43428974359E+02 -0.79827640307E+01  0.97277783044E+02  0.79620839967E+02 0.  0.
          5    1    5    5  501    0  0.11661130561E+02  0.63771564260E+02 -0.65110724009E+02  0.92001580177E+02  0.47000000000E+01 0. -1.
        -11    1    6    6    0    0 -0.39882593159E+02  0.10391482118E+02  0.53122054168E+01  0.41555067851E+02  0.00000000000E+00 0.  1.
         12    1    6    6    0    0  0.56234545028E+01 -0.53820456477E+02 -0.13294969448E+02  0.55722715194E+02  0.00000000000E+00 0. -1.
         -5    1    3    3    0  503 -0.67166973374E+00  0.52900622152E+02  0.16581443269E+01  0.53139123129E+02  0.47000000000E+01 0.  1.
         11    1    4    4    0    0  0.39168915803E+02 -0.54952876680E+02  0.84115667043E+01  0.68005713547E+02  0.00000000000E+00 0. -1.
        -12    1    4    4    0    0 -0.15899237975E+02 -0.18290335373E+02  0.65766278703E+02  0.70089411117E+02  0.00000000000E+00 0.  1.
</event>
<event>
12    1  0.9873238E-001  0.2027773E+03  0.7818608E-02  0.1147564E+00
         21   -1    0    0  503  502  0.00000000000E+00  0.00000000000E+00  0.37929390867E+02  0.37929390867E+02  0.00000000000E+00 0. -1.
         21   -1    0    0  501  503 -0.00000000000E+00 -0.00000000000E+00 -0.16554047488E+04  0.16554047488E+04  0.00000000000E+00 0. -1.
          6    2    1    2  501    0  0.63945949531E+02 -0.87641246989E+02 -0.31062192736E+03  0.37095098362E+03  0.17131426635E+03 0.  0.
         24    2    3    3    0    0  0.10256087912E+03 -0.95907453855E+02 -0.22825193247E+03  0.27948323509E+03  0.79340786419E+02 0.  0.
         -6    2    1    2    0  502 -0.63945949531E+02  0.87641246989E+02 -0.13068534306E+04  0.13223831561E+04  0.17047360431E+03 0.  0.
        -24    2    5    5    0    0 -0.50758708989E+01  0.91677113148E+02 -0.11372548928E+04  0.11427509530E+04  0.64035862928E+02 0.  0.
          5    1    3    3  501    0 -0.38614929584E+02  0.82662068666E+01 -0.82369994889E+02  0.91467748528E+02  0.47000000000E+01 0. -1.
        -11    1    4    4    0    0  0.15427814395E+02  0.57616003784E+01 -0.20144519530E+01  0.16591308345E+02  0.00000000000E+00 0.  1.
         12    1    4    4    0    0  0.87133064720E+02 -0.10166905423E+03 -0.22623748052E+03  0.26289192674E+03  0.00000000000E+00 0. -1.
         -5    1    5    5    0  502 -0.58870078632E+02 -0.40358661597E+01 -0.16959853777E+03  0.17963220309E+03  0.47000000000E+01 0.  1.
         13    1    6    6    0    0  0.94165421465E+01  0.73003143247E+02 -0.53588624126E+03  0.54091791777E+03  0.00000000000E+00 0. -1.
        -14    1    6    6    0    0 -0.14492413045E+02  0.18673969901E+02 -0.60136865158E+03  0.60183303523E+03  0.00000000000E+00 0.  1.
</event>
<event>
12    1  0.9873238E-001  0.1752685E+03  0.7818608E-02  0.1172757E+00
         21   -1    0    0  503  502  0.00000000000E+00  0.00000000000E+00  0.20651770626E+03  0.20651770626E+03  0.00000000000E+00 0.  1.
         21   -1    0    0  501  503 -0.00000000000E+00 -0.00000000000E+00 -0.20754563964E+03  0.20754563964E+03  0.00000000000E+00 0.  1.
          6    2    1    2  501    0 -0.24532476838E+02 -0.13173536681E+02 -0.11163319922E+03  0.20681330680E+03  0.17185571918E+03 0.  0.
         24    2    3    3    0    0 -0.77308966540E+01  0.45720639378E+02 -0.15571954493E+02  0.92792827026E+02  0.78853531010E+02 0.  0.
         -6    2    1    2    0  502  0.24532476838E+02  0.13173536681E+02  0.11060526584E+03  0.20725003910E+03  0.17304239188E+03 0.  0.
        -24    2    5    5    0    0 -0.18307572313E-01  0.60325278457E+02  0.18940134050E+02  0.10118112682E+03  0.78992102076E+02 0.  0.
          5    1    3    3  501    0 -0.16801580184E+02 -0.58894176058E+02 -0.96061244727E+02  0.11402047978E+03  0.47000000000E+01 0. -1.
        -11    1    4    4    0    0 -0.13140530872E+02  0.34832029366E+02  0.28620568202E+02  0.46958287294E+02  0.00000000000E+00 0.  1.
         12    1    4    4    0    0  0.54096342178E+01  0.10888610012E+02 -0.44192522695E+02  0.45834539733E+02  0.00000000000E+00 0. -1.
         -5    1    5    5    0  502  0.24550784411E+02 -0.47151741776E+02  0.91665131786E+02  0.10606891228E+03  0.47000000000E+01 0.  1.
         11    1    6    6    0    0 -0.28565631947E+02  0.10599980764E+02  0.30031095258E+02  0.42781089317E+02  0.00000000000E+00 0. -1.
        -12    1    6    6    0    0  0.28547324375E+02  0.49725297693E+02 -0.11090961208E+02  0.58400037501E+02  0.00000000000E+00 0.  1.
</event>
<event>
12    1  0.9873238E-001  0.3837614E+03  0.7818608E-02  0.1049686E+00
         21   -1    0    0  503  502  0.00000000000E+00  0.00000000000E+00  0.14988495385E+03  0.14988495385E+03  0.00000000000E+00 0.  1.
         21   -1    0    0  501  503 -0.00000000000E+00 -0.00000000000E+00 -0.16911295007E+04  0.16911295007E+04  0.00000000000E+00 0.  1.
          6    2    1    2  501    0 -0.25011125982E+03 -0.23481159801E+03 -0.13688820383E+04  0.14216577810E+04  0.17199035608E+03 0.  0.
         24    2    3    3    0    0 -0.41572159807E+02 -0.80249132719E+02 -0.39121045520E+03  0.41010356774E+03  0.83493402401E+02 0.  0.
         -6    2    1    2    0  502  0.25011125982E+03  0.23481159801E+03 -0.17236250854E+03  0.41935667357E+03  0.16869812230E+03 0.  0.
        -24    2    5    5    0    0  0.23571831531E+03  0.24482870963E+03 -0.18699764010E+03  0.39603765873E+03  0.79834131178E+02 0.  0.
          5    1    3    3  501    0 -0.20853910002E+03 -0.15456246529E+03 -0.97767158314E+03  0.10115542133E+04  0.47000000000E+01 0. -1.
        -11    1    4    4    0    0 -0.29195967759E+02 -0.41049483537E+02 -0.34329634446E+03  0.34697239768E+03  0.00000000000E+00 0.  1.
         12    1    4    4    0    0 -0.12376192047E+02 -0.39199649181E+02 -0.47914110740E+02  0.63131170063E+02  0.00000000000E+00 0. -1.
         -5    1    5    5    0  502  0.14392944513E+02 -0.10017111622E+02  0.14635131562E+02  0.23319014835E+02  0.47000000000E+01 0.  1.
         13    1    6    6    0    0  0.14624215959E+03  0.15690045831E+03 -0.73111316453E+02  0.22660491533E+03  0.00000000000E+00 0. -1.
        -14    1    6    6    0    0  0.89476155716E+02  0.87928251321E+02 -0.11388632365E+03  0.16943274340E+03  0.00000000000E+00 0.  1.
</event>
<event>
12    1  0.9873238E-001  0.2006474E+03  0.7818608E-02  0.1149196E+00
         21   -1    0    0  501  502  0.00000000000E+00  0.00000000000E+00  0.11608628016E+03  0.11608628016E+03  0.00000000000E+00 0. -1.
         21   -1    0    0  502  503 -0.00000000000E+00 -0.00000000000E+00 -0.34869345119E+03  0.34869345119E+03  0.00000000000E+00 0. -1.
         -6    2    1    2    0  503  0.72165758432E+02  0.73939683717E+02 -0.99114388987E+02  0.22378245250E+03  0.17198822757E+03 0.  0.
        -24    2    3    3    0    0  0.19783103236E+01 -0.14400586864E+02 -0.13599211832E+02  0.82130707707E+02  0.79682017873E+02 0.  0.
          6    2    1    2  501    0 -0.72165758432E+02 -0.73939683717E+02 -0.13349278204E+03  0.24099727885E+03  0.17200113963E+03 0.  0.
         24    2    5    5    0    0 -0.83696813196E+02 -0.45224299044E+02 -0.15873007965E+03  0.20079093940E+03  0.77918992509E+02 0.  0.
          5    1    5    5  501    0  0.11531054765E+02 -0.28715384673E+02  0.25237297614E+02  0.40206339448E+02  0.47000000000E+01 0. -1.
        -11    1    6    6    0    0 -0.24653279450E+02 -0.41535944285E+02 -0.12185972128E+03  0.13108321985E+03  0.00000000000E+00 0.  1.
         12    1    6    6    0    0 -0.59043533747E+02 -0.36883547585E+01 -0.36870358375E+02  0.69707719550E+02  0.00000000000E+00 0. -1.
         -5    1    3    3    0  503  0.70187448108E+02  0.88340270581E+02 -0.85515177156E+02  0.14165174479E+03  0.47000000000E+01 0.  1.
         13    1    4    4    0    0 -0.12597668397E+02 -0.37562928424E+02 -0.30470410769E+02  0.49981204200E+02  0.00000000000E+00 0. -1.
        -14    1    4    4    0    0  0.14575978720E+02  0.23162341560E+02  0.16871198937E+02  0.32149503508E+02  0.00000000000E+00 0.  1.
</event>
<event>
12    1  0.9873238E-001  0.1985679E+03  0.7818608E-02  0.1151358E+00
         21   -1    0    0  501  502  0.00000000000E+00  0.00000000000E+00  0.30620469513E+03  0.30620469513E+03  0.00000000000E+00 0.  1.
         21   -1    0    0  502  503 -0.00000000000E+00 -0.00000000000E+00 -0.20020400525E+03  0.20020400525E+03  0.00000000000E+00 0.  1.
         -6    2    1    2    0  503  0.64977299161E+02  0.74687561029E+02  0.20570258145E+03  0.28590691742E+03  0.17213056740E+03 0.  0.
        -24    2    3    3    0    0  0.23792704787E+02  0.10452558540E+03  0.19041222649E+03  0.23259309682E+03  0.79693424367E+02 0.  0.
          6    2    1    2  501    0 -0.64977299161E+02 -0.74687561029E+02 -0.99701891573E+02  0.22050178296E+03  0.16994201343E+03 0.  0.
         24    2    5    5    0    0 -0.41125135721E+02 -0.58371130438E+02  0.86177082101E+01  0.10829493243E+03  0.80963336391E+02 0.  0.
          5    1    5    5  501    0 -0.23852163440E+02 -0.16316430591E+02 -0.10831959978E+03  0.11220685053E+03  0.47000000000E+01 0. -1.
        -11    1    6    6    0    0 -0.41970325803E+02 -0.13454118884E+02  0.34925012368E+02  0.56234136002E+02  0.00000000000E+00 0.  1.
         12    1    6    6    0    0  0.84519008212E+00 -0.44917011553E+02 -0.26307304158E+02  0.52060796433E+02  0.00000000000E+00 0. -1.
         -5    1    3    3    0  503  0.41184594374E+02 -0.29838024368E+02  0.15290354962E+02  0.53313820598E+02  0.47000000000E+01 0.  1.
         11    1    4    4    0    0  0.25391369055E+02  0.53743962762E+02  0.16581175116E+03  0.17614389566E+03  0.00000000000E+00 0. -1.
        -12    1    4    4    0    0 -0.15986642680E+01  0.50781622635E+02  0.24600475330E+02  0.56449201157E+02  0.00000000000E+00 0.  1.
</event>
<event>
12    1  0.9873238E-001  0.2024254E+03  0.7818608E-02  0.1148027E+00
         21   -1    0    0  501  502  0.00000000000E+00  0.00000000000E+00  0.49602996257E+03  0.49602996257E+03  0.00000000000E+00 0. -1.
         21   -1    0    0  502  503 -0.00000000000E+00 -0.00000000000E+00 -0.82395606908E+02  0.82395606908E+02  0.00000000000E+00 0. -1.
         -6    2    1    2    0  503 -0.92404657643E+02 -0.51742379414E+02  0.18721278267E+03  0.27572573384E+03  0.17251133216E+03 0.  0.
        -24    2    3    3    0    0 -0.30190484782E+02 -0.37292065580E+02  0.16105448134E+02  0.93025912254E+02  0.78053003559E+02 0.  0.
          6    2    1    2  501    0  0.92404657643E+02  0.51742379414E+02  0.22642157298E+03  0.30269983563E+03  0.17071779988E+03 0.  0.
         24    2    5    5    0    0 -0.80869883448E+01  0.23457030574E+02  0.46577521337E+02  0.94698381826E+02  0.78630060172E+02 0.  0.
          5    1    5    5  501    0  0.10049164599E+03  0.28285348840E+02  0.17984405165E+03  0.20800145381E+03  0.47000000000E+01 0. -1.
        -13    1    6    6    0    0  0.31974591308E+02 -0.59830080091E+01  0.15169460404E+02  0.35892665032E+02  0.00000000000E+00 0.  1.
         14    1    6    6    0    0 -0.40061579653E+02  0.29440038583E+02  0.31408060934E+02  0.58805716794E+02  0.00000000000E+00 0. -1.
         -5    1    3    3    0  503 -0.62214172862E+02 -0.14450313834E+02  0.17110733454E+03  0.18269982159E+03  0.47000000000E+01 0.  1.
         11    1    4    4    0    0 -0.33084056877E+01  0.46552333097E+01 -0.26722625766E+02  0.27326095096E+02  0.00000000000E+00 0. -1.
        -12    1    4    4    0    0 -0.26882079094E+02 -0.41947298890E+02  0.42828073900E+02  0.65699817158E+02  0.00000000000E+00 0.  1.
</event>
<event>
12    1  0.9873238E-001  0.1901650E+03  0.7818608E-02  0.1159511E+00
         21   -1    0    0  503  502  0.00000000000E+00  0.00000000000E+00  0.26858621250E+02  0.26858621250E+02  0.00000000000E+00 0. -1.
         21   -1    0    0  501  503 -0.00000000000E+00 -0.00000000000E+00 -0.16889305494E+04  0.16889305494E+04  0.00000000000E+00 0. -1.
          6    2    1    2  501    0 -0.61564206318E+02  0.31490046416E+02 -0.43347101672E+03  0.47334960976E+03  0.17714670812E+03 0.  0.
         24    2    3    3    0    0 -0.83318686449E+02 -0.37580678871E+02 -0.27388349735E+03  0.29803763402E+03  0.73891476082E+02 0.  0.
         -6    2    1    2    0  502  0.61564206318E+02 -0.31490046416E+02 -0.12286009114E+04  0.12424395609E+04  0.17150535963E+03 0.  0.
        -24    2    5    5    0    0 -0.52400250201E+01  0.26353824468E+02 -0.81678149422E+03  0.82121985443E+03  0.80920072159E+02 0.  0.
          5    1    3    3  501    0  0.21754480131E+02  0.69070725286E+02 -0.15958751937E+03  0.17531197574E+03  0.47000000000E+01 0. -1.
        -13    1    4    4    0    0 -0.71882906181E+01 -0.34121090368E+02 -0.45828514872E+02  0.57586223225E+02  0.00000000000E+00 0.  1.
         14    1    4    4    0    0 -0.76130395831E+02 -0.34595885024E+01 -0.22805498248E+03  0.24045141080E+03  0.00000000000E+00 0. -1.
         -5    1    5    5    0  502  0.66804231338E+02 -0.57843870883E+02 -0.41181941717E+03  0.42121970642E+03  0.47000000000E+01 0.  1.
         11    1    6    6    0    0  0.27121200186E+01  0.18172643354E+02 -0.36583130784E+02  0.40938075424E+02  0.00000000000E+00 0. -1.
        -12    1    6    6    0    0 -0.79521450387E+01  0.81811811134E+01 -0.78019836344E+03  0.78028177900E+03  0.00000000000E+00 0.  1.
</event>
<event>
12    1  0.9873238E-001  0.2589862E+03  0.7818608E-02  0.1108642E+00
         21   -1    0    0  503  502  0.00000000000E+00  0.00000000000E+00  0.15623616903E+03  0.15623616903E+03  0.00000000000E+00 0.  1.
         21   -1    0    0  501  503 -0.00000000000E+00 -0.00000000000E+00 -0.72059116919E+03  0.72059116919E+03  0.00000000000E+00 0.  1.
          6    2    1    2  501    0  0.16942692488E+03  0.73287810413E+02 -0.76800531523E+00  0.25898738430E+03  0.18165156030E+03 0.  0.
         24    2    3    3    0    0  0.15855098404E+03  0.79823449341E+02 -0.53171199784E+02  0.20486543444E+03  0.87364020843E+02 0.  0.
         -6    2    1    2    0  502 -0.16942692488E+03 -0.73287810413E+02 -0.56358699484E+03  0.61783995393E+03  0.17326084924E+03 0.  0.
        -24    2    5    5    0    0 -0.14585502764E+02 -0.14148309325E+02 -0.24421648044E+03  0.25798864843E+03  0.80644540144E+02 0.  0.
          5    1    3    3  501    0  0.10875940845E+02 -0.65356389284E+01  0.52403194468E+02  0.54121949854E+02  0.47000000000E+01 0. -1.
        -11    1    4    4    0    0 -0.13953743662E+01  0.19710755455E+01 -0.24576321120E+02  0.24694691093E+02  0.00000000000E+00 0.  1.
         12    1    4    4    0    0  0.15994635841E+03  0.77852373796E+02 -0.28594878664E+02  0.18017074335E+03  0.00000000000E+00 0. -1.
         -5    1    5    5    0  502 -0.15484142212E+03 -0.59139501088E+02 -0.31937051440E+03  0.35985130549E+03  0.47000000000E+01 0.  1.
         13    1    6    6    0    0 -0.28090024181E+02 -0.13504688214E+02 -0.29719259295E+02  0.43065768718E+02  0.00000000000E+00 0. -1.
        -14    1    6    6    0    0  0.13504521417E+02 -0.64362111100E+00 -0.21449722114E+03  0.21492287972E+03  0.00000000000E+00 0.  1.
</event>
<event>
12    1  0.9873238E-001  0.2285693E+03  0.7818608E-02  0.1127899E+00
         21   -1    0    0  501  502  0.00000000000E+00  0.00000000000E+00  0.18653341650E+03  0.18653341650E+03  0.00000000000E+00 0.  1.
         21   -1    0    0  502  503 -0.00000000000E+00 -0.00000000000E+00 -0.28672322024E+03  0.28672322024E+03  0.00000000000E+00 0.  1.
         -6    2    1    2    0  503  0.10536577117E+03 -0.10445604862E+03 -0.98536206178E+01  0.22878155606E+03  0.17387033883E+03 0.  0.
        -24    2    3    3    0    0  0.13867455760E+02 -0.88754870778E+02  0.43192173949E+02  0.12175625517E+03  0.69923446480E+02 0.  0.
          6    2    1    2  501    0 -0.10536577117E+03  0.10445604862E+03 -0.90336183120E+02  0.24447508068E+03  0.17203030915E+03 0.  0.
         24    2    5    5    0    0 -0.60663473343E+02 -0.10169835907E+02 -0.26176802357E+02  0.10563738776E+03  0.81795783212E+02 0.  0.
          5    1    5    5  501    0 -0.44702297826E+02  0.11462588453E+03 -0.64159380763E+02  0.13883769292E+03  0.47000000000E+01 0. -1.
        -13    1    6    6    0    0 -0.80406532897E+01 -0.76458264968E+01  0.27969761221E+02  0.30090169672E+02  0.00000000000E+00 0.  1.
         14    1    6    6    0    0 -0.52622820053E+02 -0.25240094102E+01 -0.54146563578E+02  0.75547218090E+02  0.00000000000E+00 0. -1.
         -5    1    3    3    0  503  0.91498315409E+02 -0.15701177845E+02 -0.53045794566E+02  0.10702530089E+03  0.47000000000E+01 0.  1.
         11    1    4    4    0    0 -0.13626343103E+02 -0.11569761742E+02  0.35140724055E+02  0.39425969871E+02  0.00000000000E+00 0. -1.
        -12    1    4    4    0    0  0.27493798864E+02 -0.77185109035E+02  0.80514498933E+01  0.82330285303E+02  0.00000000000E+00 0.  1.
</event>
<event>
12    1  0.9873238E-001  0.2070727E+03  0.7818608E-02  0.1145197E+00
         21   -1    0    0  501  502  0.00000000000E+00  0.00000000000E+00  0.52534401364E+03  0.52534401364E+03  0.00000000000E+00 0.  1.
         21   -1    0    0  502  503 -0.00000000000E+00 -0.00000000000E+00 -0.80860496282E+02  0.80860496282E+02  0.00000000000E+00 0.  1.
         -6    2    1    2    0  503 -0.82487148282E+02 -0.63723499666E+02  0.26288692570E+03  0.33078408273E+03  0.17159184025E+03 0.  0.
        -24    2    3    3    0    0 -0.87593771037E+02 -0.75781973413E+02  0.11188117353E+03  0.17913873472E+03  0.78471097011E+02 0.  0.
          6    2    1    2  501    0  0.82487148282E+02  0.63723499666E+02  0.18159659166E+03  0.27542042720E+03  0.17892533519E+03 0.  0.
         24    2    5    5    0    0  0.35809390329E+00  0.81267228655E+02  0.14284876519E+03  0.18281131287E+03  0.80060700178E+02 0.  0.
          5    1    5    5  501    0  0.82129054379E+02 -0.17543728989E+02  0.38747826471E+02  0.92609114326E+02  0.47000000000E+01 0. -1.
        -11    1    6    6    0    0 -0.11978889270E+02  0.16973387452E+02  0.10532265759E+03  0.10735199984E+03  0.00000000000E+00 0.  1.
         12    1    6    6    0    0  0.12336983173E+02  0.64293841203E+02  0.37526107601E+02  0.75459313025E+02  0.00000000000E+00 0. -1.
         -5    1    3    3    0  503  0.51066227546E+01  0.12058473747E+02  0.15100575217E+03  0.15164534801E+03  0.47000000000E+01 0.  1.
         13    1    4    4    0    0 -0.66780747925E+02 -0.51605292956E+02  0.11954051294E+03  0.14633081968E+03  0.00000000000E+00 0. -1.
        -14    1    4    4    0    0 -0.20813023112E+02 -0.24176680458E+02 -0.76593394057E+01  0.32807915038E+02  0.00000000000E+00 0.  1.
</event>
<event>
12    1  0.9873238E-001  0.1946720E+03  0.7818608E-02  0.1154478E+00
         21   -1    0    0  503  502  0.00000000000E+00  0.00000000000E+00  0.48311712382E+02  0.48311712382E+02  0.00000000000E+00 0.  1.
         21   -1    0    0  501  503 -0.00000000000E+00 -0.00000000000E+00 -0.83203401885E+03  0.83203401885E+03  0.00000000000E+00 0.  1.
          6    2    1    2  501    0 -0.25499651399E+02  0.87007652596E+02 -0.28400036269E+03  0.34431583542E+03  0.17226904737E+03 0.  0.
         24    2    3    3    0    0  0.63178364927E+01  0.39437118605E+02 -0.27151642911E+03  0.28555150238E+03  0.78887818158E+02 0.  0.
         -6    2    1    2    0  502  0.25499651399E+02 -0.87007652596E+02 -0.49972194377E+03  0.53602989581E+03  0.17142188973E+03 0.  0.
        -24    2    5    5    0    0 -0.37141800137E+02 -0.29210734135E+01 -0.28350173518E+03  0.29568062318E+03  0.75271183635E+02 0.  0.
          5    1    3    3  501    0 -0.31817487891E+02  0.47570533991E+02 -0.12483933581E+02  0.58764333039E+02  0.47000000000E+01 0. -1.
        -11    1    4    4    0    0 -0.26745476102E+02 -0.59571467009E+01 -0.13818838009E+03  0.14087880068E+03  0.00000000000E+00 0.  1.
         12    1    4    4    0    0  0.33063312595E+02  0.45394265306E+02 -0.13332804902E+03  0.14467270170E+03  0.00000000000E+00 0. -1.
         -5    1    5    5    0  502  0.62641451536E+02 -0.84086579183E+02 -0.21622020860E+03  0.24034927263E+03  0.47000000000E+01 0.  1.
         11    1    6    6    0    0  0.18496820011E+02 -0.13522606535E+02 -0.13124695349E+03  0.13323196328E+03  0.00000000000E+00 0. -1.
        -12    1    6    6    0    0 -0.55638620148E+02  0.10601533121E+02 -0.15225478169E+03  0.16244865990E+03  0.00000000000E+00 0.  1.
</event>
<event>
12    1  0.9873238E-001  0.2851374E+03  0.7818608E-02  0.1092959E+00
         21   -1    0    0  501  502  0.00000000000E+00  0.00000000000E+00  0.16301122083E+03  0.16301122083E+03  0.00000000000E+00 0.  1.
         21   -1    0    0  502  503 -0.00000000000E+00 -0.00000000000E+00 -0.49874367899E+03  0.49874367899E+03  0.00000000000E+00 0.  1.
         -6    2    1    2    0  503 -0.13091023322E+03  0.18581961368E+03 -0.17893007999E+03  0.33662936929E+03  0.17215382876E+03 0.  0.
        -24    2    3    3    0    0 -0.24379389198E+02  0.11018849335E+03 -0.14832557769E+03  0.20236242381E+03  0.78830291673E+02 0.  0.
          6    2    1    2  501    0  0.13091023322E+03 -0.18581961368E+03 -0.15680237817E+03  0.32512553054E+03  0.17161936610E+03 0.  0.
         24    2    5    5    0    0  0.60943195236E+02 -0.18801939491E+03 -0.10927151124E+03  0.24038180657E+03  0.82327297136E+02 0.  0.
          5    1    5    5  501    0  0.69967037981E+02  0.21997812283E+01 -0.47530866930E+02  0.84743723971E+02  0.47000000000E+01 0. -1.
        -13    1    6    6    0    0  0.35014906587E+02 -0.31184017339E+02  0.10275207750E+01  0.46899279521E+02  0.00000000000E+00 0.  1.
         14    1    6    6    0    0  0.25928288649E+02 -0.15683537757E+03 -0.11029903201E+03  0.19348252705E+03  0.00000000000E+00 0. -1.
         -5    1    3    3    0  503 -0.10653084402E+03  0.75631120322E+02 -0.30604502296E+02  0.13426694548E+03  0.47000000000E+01 0.  1.
         11    1    4    4    0    0 -0.36667778358E+02  0.54085437996E+02 -0.12364816308E+03  0.13985216768E+03  0.00000000000E+00 0. -1.
        -12    1    4    4    0    0  0.12288389160E+02  0.56103055358E+02 -0.24677414619E+02  0.62510256126E+02  0.00000000000E+00 0.  1.
</event>
<event>
12    1  0.9873238E-001  0.1739788E+03  0.7818608E-02  0.1176072E+00
         21   -1    0    0  501  502  0.00000000000E+00  0.00000000000E+00  0.13694280903E+03  0.13694280903E+03  0.00000000000E+00 0. -1.
         21   -1    0    0  502  503 -0.00000000000E+00 -0.00000000000E+00 -0.21767643045E+03  0.21767643045E+03  0.00000000000E+00 0. -1.
         -6    2    1    2    0  503 -0.17773168886E+02 -0.19019049374E+02 -0.72871914387E+02  0.18046289001E+03  0.16303045419E+03 0.  0.
        -24    2    3    3    0    0 -0.48952718401E+01 -0.66353733175E+02 -0.18430948405E+02  0.10703046325E+03  0.81786542973E+02 0.  0.
          6    2    1    2  501    0  0.17773168886E+02  0.19019049374E+02 -0.78617070300E+01  0.17415634948E+03  0.17202039953E+03 0.  0.
         24    2    5    5    0    0 -0.48437950350E+01 -0.17813881851E+02  0.48428210497E+02  0.10303084987E+03  0.89046435726E+02 0.  0.
          5    1    5    5  501    0  0.22616963922E+02  0.36832931225E+02 -0.56289917527E+02  0.71125499610E+02  0.47000000000E+01 0. -1.
        -11    1    6    6    0    0  0.16287645922E+02  0.70761491164E+01  0.64314179614E+02  0.66720858773E+02  0.00000000000E+00 0.  1.
         12    1    6    6    0    0 -0.21131440957E+02 -0.24890030968E+02 -0.15885969117E+02  0.36309991094E+02  0.00000000000E+00 0. -1.
         -5    1    3    3    0  503 -0.12877897046E+02  0.47334683801E+02 -0.54440965982E+02  0.73432426760E+02  0.47000000000E+01 0.  1.
         13    1    4    4    0    0 -0.31135506467E+02 -0.18144328384E+02 -0.34448389346E+02  0.49853063536E+02  0.00000000000E+00 0. -1.
        -14    1    4    4    0    0  0.26240234627E+02 -0.48209404791E+02  0.16017440941E+02  0.57177399712E+02  0.00000000000E+00 0.  1.
</event>
<event>
12    1  0.9873238E-001  0.1753406E+03  0.7818608E-02  0.1172626E+00
         21   -1    0    0  503  502  0.00000000000E+00  0.00000000000E+00  0.10886273495E+03  0.10886273495E+03  0.00000000000E+00 0.  1.
         21   -1    0    0  501  503 -0.00000000000E+00 -0.00000000000E+00 -0.33753295062E+03  0.33753295062E+03  0.00000000000E+00 0.  1.
          6    2    1    2  501    0  0.27878277663E+02  0.16611903643E+02 -0.22653775301E+02  0.17586453421E+03  0.17135339842E+03 0.  0.
         24    2    3    3    0    0  0.81673831167E+02 -0.49066456096E+01 -0.22963400765E+02  0.11773368692E+03  0.81481368377E+02 0.  0.
         -6    2    1    2    0  502 -0.27878277663E+02 -0.16611903643E+02 -0.20601644037E+03  0.27053115136E+03  0.17231127777E+03 0.  0.
        -24    2    5    5    0    0  0.35056630554E+02  0.74854719146E+00 -0.18160999282E+03  0.20067449379E+03  0.77836593549E+02 0.  0.
          5    1    3    3  501    0 -0.53795553504E+02  0.21518549252E+02  0.30962546362E+00  0.58130847290E+02  0.47000000000E+01 0. -1.
        -13    1    4    4    0    0  0.66737237173E+02 -0.39222863863E+02 -0.96443955644E+01  0.78008372890E+02  0.00000000000E+00 0.  1.
         14    1    4    4    0    0  0.14936593994E+02  0.34316218253E+02 -0.13319005201E+02  0.39725314031E+02  0.00000000000E+00 0. -1.
         -5    1    5    5    0  502 -0.62934908217E+02 -0.17360450834E+02 -0.24406447545E+02  0.69856657573E+02  0.47000000000E+01 0.  1.
         13    1    6    6    0    0 -0.84742678595E+01  0.28428612880E+02 -0.98372317394E+02  0.10274780813E+03  0.00000000000E+00 0. -1.
        -14    1    6    6    0    0  0.43530898414E+02 -0.27680065688E+02 -0.83237675430E+02  0.97926685659E+02  0.00000000000E+00 0.  1.
</event>
<event>
12    1  0.9873238E-001  0.1842541E+03  0.7818608E-02  0.1164717E+00
         21   -1    0    0  503  502  0.00000000000E+00  0.00000000000E+00  0.33465532396E+02  0.33465532396E+02  0.00000000000E+00 0. -1.
         21   -1    0    0  501  503 -0.00000000000E+00 -0.00000000000E+00 -0.10650355785E+04  0.10650355785E+04  0.00000000000E+00 0. -1.
          6    2    1    2  501    0  0.46659072016E+02  0.44299321105E+02 -0.37747775460E+03  0.42004644958E+03  0.17265591718E+03 0.  0.
         24    2    3    3    0    0 -0.15008672423E+02  0.76138338790E+02 -0.18594077922E+03  0.21626927547E+03  0.78588289544E+02 0.  0.
         -6    2    1    2    0  502 -0.46659072016E+02 -0.44299321105E+02 -0.65409229149E+03  0.67845466130E+03  0.16829884967E+03 0.  0.
        -24    2    5    5    0    0 -0.50504386659E+02 -0.92323735398E+02 -0.47366798118E+03  0.49164954209E+03  0.79268850442E+02 0.  0.
          5    1    3    3  501    0  0.61667744438E+02 -0.31839017685E+02 -0.19153697538E+03  0.20377717411E+03  0.47000000000E+01 0. -1.
        -11    1    4    4    0    0  0.25122462742E+02  0.12667591909E+02 -0.90826108172E+02  0.95084109843E+02  0.00000000000E+00 0.  1.
         12    1    4    4    0    0 -0.40131135164E+02  0.63470746881E+02 -0.95114671045E+02  0.12118516562E+03  0.00000000000E+00 0. -1.
         -5    1    5    5    0  502  0.38453146438E+01  0.48024414293E+02 -0.18042431031E+03  0.18680511921E+03  0.47000000000E+01 0.  1.
         13    1    6    6    0    0  0.19718088547E+02 -0.38557520114E+02 -0.15632653971E+03  0.16221427924E+03  0.00000000000E+00 0. -1.
        -14    1    6    6    0    0 -0.70222475206E+02 -0.53766215283E+02 -0.31734144147E+03  0.32943526285E+03  0.00000000000E+00 0.  1.
</event>
<event>
12    1  0.9873238E-001  0.2806518E+03  0.7818608E-02  0.1095334E+00
         21   -1    0    0  503  502  0.00000000000E+00  0.00000000000E+00  0.62751394611E+03  0.62751394611E+03  0.00000000000E+00 0. -1.
         21   -1    0    0  501  503 -0.00000000000E+00 -0.00000000000E+00 -0.12553175444E+03  0.12553175444E+03  0.00000000000E+00 0. -1.
          6    2    1    2  501    0 -0.19584060321E+03  0.10340866818E+03  0.24691607472E+03  0.37380413310E+03  0.17238064697E+03 0.  0.
         24    2    3    3    0    0 -0.10087970717E+03  0.22437825138E+02  0.20304298446E+03  0.24143802245E+03  0.79910536441E+02 0.  0.
         -6    2    1    2    0  502  0.19584060321E+03 -0.10340866818E+03  0.25506611695E+03  0.37924156746E+03  0.17239068407E+03 0.  0.
        -24    2    5    5    0    0  0.63460691771E+02 -0.89425420354E+02  0.15283484494E+03  0.21133297581E+03  0.96327418906E+02 0.  0.
          5    1    3    3  501    0 -0.94960896037E+02  0.80970843039E+02  0.43873090264E+02  0.13236611065E+03  0.47000000000E+01 0. -1.
        -13    1    4    4    0    0 -0.39308720675E+02  0.42672698691E+02  0.55506697858E+02  0.80294011244E+02  0.00000000000E+00 0.  1.
         14    1    4    4    0    0 -0.61570986494E+02 -0.20234873552E+02  0.14753628660E+03  0.16114401121E+03  0.00000000000E+00 0. -1.
         -5    1    5    5    0  502  0.13237991143E+03 -0.13983247823E+02  0.10223127201E+03  0.16790859164E+03  0.47000000000E+01 0.  1.
         11    1    6    6    0    0  0.60913219475E+02 -0.14056337439E+02  0.35606116886E+02  0.71943008616E+02  0.00000000000E+00 0. -1.
        -12    1    6    6    0    0  0.25474722964E+01 -0.75369082915E+02  0.11722872805E+03  0.13938996720E+03  0.00000000000E+00 0.  1.
</event>
<event>
12    1  0.9873238E-001  0.3873122E+03  0.7818608E-02  0.1048324E+00
         21   -1    0    0  503  502  0.00000000000E+00  0.00000000000E+00  0.17601136439E+04  0.17601136439E+04  0.00000000000E+00 0.  1.
         21   -1    0    0  501  503 -0.00000000000E+00 -0.00000000000E+00 -0.92996250542E+02  0.92996250542E+02  0.00000000000E+00 0. -1.
          6    2    1    2  501    0 -0.14919115835E+03 -0.31300383470E+03  0.11032121541E+04  0.11690047272E+04  0.17107189417E+03 0.  0.
         24    2    3    3    0    0 -0.15476665167E+03 -0.17765660949E+03  0.77290404244E+03  0.81196761970E+03  0.79976054252E+02 0.  0.
         -6    2    1    2    0  502  0.14919115835E+03  0.31300383470E+03  0.56390523927E+03  0.68410516727E+03  0.17257276360E+03 0.  0.
        -24    2    5    5    0    0  0.14472434401E+03  0.15161555081E+03  0.36104791899E+03  0.42479972383E+03  0.78528940887E+02 0.  0.
          5    1    3    3  501    0  0.55754933277E+01 -0.13534722521E+03  0.33030811166E+03  0.35703710749E+03  0.47000000000E+01 0. -1.
        -13    1    4    4    0    0 -0.11071804220E+03 -0.97338778308E+02  0.35983212313E+03  0.38886048844E+03  0.00000000000E+00 0.  1.
         14    1    4    4    0    0 -0.44048609473E+02 -0.80317831186E+02  0.41307191931E+03  0.42310713127E+03  0.00000000000E+00 0. -1.
         -5    1    5    5    0  502  0.44668143327E+01  0.16138828388E+03  0.20285732028E+03  0.25930544344E+03  0.47000000000E+01 0.  1.
         11    1    6    6    0    0  0.15155191669E+03  0.15449476135E+03  0.34932118157E+03  0.41092809910E+03  0.00000000000E+00 0. -1.
        -12    1    6    6    0    0 -0.68275726754E+01 -0.28792105400E+01  0.11726737425E+02  0.13871624729E+02  0.00000000000E+00 0.  1.
</event>
<event>
12    1  0.9873238E-001  0.2890498E+03  0.7818608E-02  0.1091049E+00
         21   -1    0    0  501  502  0.00000000000E+00  0.00000000000E+00  0.14770104573E+03  0.14770104573E+03  0.00000000000E+00 0.  1.
         21   -1    0    0  502  503 -0.00000000000E+00 -0.00000000000E+00 -0.10604621753E+04  0.10604621753E+04  0.00000000000E+00 0.  1.
         -6    2    1    2    0  503 -0.22313208499E+03  0.63978036671E+02 -0.43145881262E+02  0.29225216804E+03  0.17224588856E+03 0.  0.
        -24    2    3    3    0    0 -0.10715297045E+03  0.74307196135E+02 -0.76910837350E+02  0.17092612465E+03  0.79354550679E+02 0.  0.
          6    2    1    2  501    0  0.22313208499E+03 -0.63978036671E+02 -0.86961524833E+03  0.91591105301E+03  0.16965040631E+03 0.  0.
         24    2    5    5    0    0  0.10068049012E+03 -0.19931973577E+02 -0.62730412707E+03  0.64082703267E+03  0.81332486103E+02 0.  0.
          5    1    5    5  501    0  0.12245159487E+03 -0.44046063093E+02 -0.24231112127E+03  0.27508402034E+03  0.47000000000E+01 0. -1.
        -13    1    6    6    0    0  0.17501624172E+02  0.16045737010E+02 -0.39572149780E+02  0.46148971420E+02  0.00000000000E+00 0.  1.
         14    1    6    6    0    0  0.83178865952E+02 -0.35977710588E+02 -0.58773197729E+03  0.59467806125E+03  0.00000000000E+00 0. -1.
         -5    1    3    3    0  503 -0.11597911454E+03 -0.10329159464E+02  0.33764956088E+02  0.12132604339E+03  0.47000000000E+01 0.  1.
         13    1    4    4    0    0 -0.73136111550E+02  0.22700476008E+02 -0.59326189105E+01  0.76807541237E+02  0.00000000000E+00 0. -1.
        -14    1    4    4    0    0 -0.34016858901E+02  0.51606720126E+02 -0.70978218439E+02  0.94118583417E+02  0.00000000000E+00 0.  1.
</event>
<event>
12    1  0.9873238E-001  0.2092973E+03  0.7818608E-02  0.1143234E+00
         21   -1    0    0  503  502  0.00000000000E+00  0.00000000000E+00  0.91294724469E+03  0.91294724469E+03  0.00000000000E+00 0. -1.
         21   -1    0    0  501  503 -0.00000000000E+00 -0.00000000000E+00 -0.80022760439E+02  0.80022760439E+02  0.00000000000E+00 0. -1.
          6    2    1    2  501    0 -0.37335786534E+01  0.10851818375E+03  0.73993358469E+03  0.76896494051E+03  0.17892801391E+03 0.  0.
         24    2    3    3    0    0  0.21302403791E+02  0.11853755173E+03  0.72199590606E+03  0.73623821647E+03  0.79143410594E+02 0.  0.
         -6    2    1    2    0  502  0.37335786534E+01 -0.10851818375E+03  0.92990899551E+02  0.22400506462E+03  0.17245528627E+03 0.  0.
        -24    2    5    5    0    0  0.11173408055E+02 -0.94698043647E+02  0.13491716508E+03  0.17899118814E+03  0.68866824225E+02 0.  0.
          5    1    3    3  501    0 -0.25035982444E+02 -0.10019367987E+02  0.17937678636E+02  0.32726724044E+02  0.47000000000E+01 0. -1.
        -13    1    4    4    0    0  0.24867958194E+02  0.12980705905E+03  0.67064981924E+03  0.68354917012E+03  0.00000000000E+00 0.  1.
         14    1    4    4    0    0 -0.35655544037E+01 -0.11269507315E+02  0.51346086818E+02  0.52689046346E+02  0.00000000000E+00 0. -1.
         -5    1    5    5    0  502 -0.74398294019E+01 -0.13820140100E+02 -0.41926265533E+02  0.45013876477E+02  0.47000000000E+01 0.  1.
         11    1    6    6    0    0  0.40442213939E+02 -0.56673773570E+02  0.78473361227E+02  0.10490737677E+03  0.00000000000E+00 0. -1.
        -12    1    6    6    0    0 -0.29268805883E+02 -0.38024270077E+02  0.56443803857E+02  0.74083811367E+02  0.00000000000E+00 0.  1.
</event>
<event>
12    1  0.9873238E-001  0.2272401E+03  0.7818608E-02  0.1128690E+00
         21   -1    0    0  503  502  0.00000000000E+00  0.00000000000E+00  0.91247792760E+03  0.91247792760E+03  0.00000000000E+00 0.  1.
         21   -1    0    0  501  503 -0.00000000000E+00 -0.00000000000E+00 -0.89624840580E+02  0.89624840580E+02  0.00000000000E+00 0.  1.
          6    2    1    2  501    0 -0.99109579282E+02 -0.11048949114E+03  0.71591501942E+03  0.75095777899E+03  0.17138446379E+03 0.  0.
         24    2    3    3    0    0 -0.11409763065E+03 -0.34689024095E+02  0.54355978317E+03  0.56201659780E+03  0.78637272340E+02 0.  0.
         -6    2    1    2    0  502  0.99109579282E+02  0.11048949114E+03  0.10693806760E+03  0.25114498919E+03  0.17206806484E+03 0.  0.
        -24    2    5    5    0    0  0.12438571763E+02  0.85275566699E+02  0.69464489315E+01  0.11635619391E+03  0.77870856972E+02 0.  0.
          5    1    3    3  501    0  0.14988051369E+02 -0.75800467043E+02  0.17235523625E+03  0.18894118119E+03  0.47000000000E+01 0. -1.
        -11    1    4    4    0    0  0.97406857469E+00  0.36035465564E+01  0.15334370853E+03  0.15338913685E+03  0.00000000000E+00 0.  1.
         12    1    4    4    0    0 -0.11507169923E+03 -0.38292570651E+02  0.39021607464E+03  0.40862746094E+03  0.00000000000E+00 0. -1.
         -5    1    5    5    0  502  0.86671007518E+02  0.25213924439E+02  0.99991618666E+02  0.13478879528E+03  0.47000000000E+01 0.  1.
         13    1    6    6    0    0  0.37011213338E+02  0.12670563764E+02  0.67938147083E+01  0.39705528798E+02  0.00000000000E+00 0. -1.
        -14    1    6    6    0    0 -0.24572641574E+02  0.72605002935E+02  0.15263422317E+00  0.76650665114E+02  0.00000000000E+00 0.  1.
</event>
<event>
12    1  0.9873238E-001  0.1854326E+03  0.7818608E-02  0.1163302E+00
         21   -1    0    0  501  502  0.00000000000E+00  0.00000000000E+00  0.35138928561E+03  0.35138928561E+03  0.00000000000E+00 0. -1.
         21   -1    0    0  502  503 -0.00000000000E+00 -0.00000000000E+00 -0.96488749606E+02  0.96488749606E+02  0.00000000000E+00 0. -1.
         -6    2    1    2    0  503 -0.67289732557E+02 -0.86898511388E+01  0.12114446800E+03  0.22149774148E+03  0.17257417459E+03 0.  0.
        -24    2    3    3    0    0 -0.99009115717E+02  0.26245747811E+02  0.57731512963E+02  0.14231498952E+03  0.80180947735E+02 0.  0.
          6    2    1    2  501    0  0.67289732557E+02  0.86898511388E+01  0.13375606801E+03  0.22638029374E+03  0.16956983825E+03 0.  0.
         24    2    5    5    0    0  0.25443827393E+02 -0.50468205362E+02  0.11261245892E+03  0.15075028889E+03  0.82762646113E+02 0.  0.
          5    1    5    5  501    0  0.41845905164E+02  0.59158056500E+02  0.21143609086E+02  0.75630004847E+02  0.47000000000E+01 0. -1.
        -11    1    6    6    0    0  0.26882426556E+02  0.12525659572E+02  0.66049523869E+02  0.72402324607E+02  0.00000000000E+00 0.  1.
         12    1    6    6    0    0 -0.14385991625E+01 -0.62993864933E+02  0.46562935056E+02  0.78347964286E+02  0.00000000000E+00 0. -1.
         -5    1    3    3    0  503  0.31719383159E+02 -0.34935598950E+02  0.63412955034E+02  0.79182751961E+02  0.47000000000E+01 0.  1.
         13    1    4    4    0    0 -0.45155974923E+02 -0.27675926763E+02  0.32003750645E+02  0.61881007173E+02  0.00000000000E+00 0. -1.
        -14    1    4    4    0    0 -0.53853140794E+02  0.53921674573E+02  0.25727762317E+02  0.80433982346E+02  0.00000000000E+00 0.  1.
</event>
<event>
12    1  0.9873238E-001  0.1880198E+03  0.7818608E-02  0.1160988E+00
         21   -1    0    0  503  502  0.00000000000E+00  0.00000000000E+00  0.94150143359E+02  0.94150143359E+02  0.00000000000E+00 0. -1.
         21   -1    0    0  501  503 -0.00000000000E+00 -0.00000000000E+00 -0.39930257812E+03  0.39930257812E+03  0.00000000000E+00 0. -1.
          6    2    1    2  501    0  0.15894417876E+02  0.61680960384E+02 -0.86032107510E+02  0.20676794607E+03  0.17690191239E+03 0.  0.
         24    2    3    3    0    0  0.52895601734E+02  0.66713218318E+02 -0.11105973352E+03  0.16156967962E+03  0.80758273764E+02 0.  0.
         -6    2    1    2    0  502 -0.15894417876E+02 -0.61680960384E+02 -0.21912032725E+03  0.28668477541E+03  0.17354327772E+03 0.  0.
        -24    2    5    5    0    0  0.11801990847E+02 -0.89729266820E+02 -0.86202491145E+02  0.14796549158E+03  0.79197783469E+02 0.  0.
          5    1    3    3  501    0 -0.37001183858E+02 -0.50322579340E+01  0.25027626010E+02  0.45198266455E+02  0.47000000000E+01 0. -1.
        -11    1    4    4    0    0  0.23882347097E+01 -0.97691295857E+01 -0.51018127295E+02  0.51999892986E+02  0.00000000000E+00 0.  1.
         12    1    4    4    0    0  0.50507367024E+02  0.76482347904E+02 -0.60041606225E+02  0.10956978663E+03  0.00000000000E+00 0. -1.
         -5    1    5    5    0  502 -0.27696408723E+02  0.28048306436E+02 -0.13291783611E+03  0.13871928383E+03  0.47000000000E+01 0.  1.
         13    1    6    6    0    0  0.41854483108E+02 -0.62391266617E+02 -0.74221342808E+02  0.10560906985E+03  0.00000000000E+00 0. -1.
        -14    1    6    6    0    0 -0.30052492260E+02 -0.27338000203E+02 -0.11981148336E+02  0.42356421728E+02  0.00000000000E+00 0.  1.
</event>
<event>
12    1  0.9873238E-001  0.2310138E+03  0.7818608E-02  0.1126071E+00
         21   -1    0    0  501  502  0.00000000000E+00  0.00000000000E+00  0.38749547189E+03  0.38749547189E+03  0.00000000000E+00 0. -1.
         21   -1    0    0  502  503 -0.00000000000E+00 -0.00000000000E+00 -0.19646809393E+03  0.19646809393E+03  0.00000000000E+00 0. -1.
         -6    2    1    2    0  503  0.10141346294E+02 -0.15218052411E+03 -0.64921813116E+02  0.23917762949E+03  0.17242197599E+03 0.  0.
        -24    2    3    3    0    0  0.17028622120E+01 -0.98209712919E+02  0.29143259507E+02  0.13029978802E+03  0.80502532463E+02 0.  0.
          6    2    1    2  501    0 -0.10141346294E+02  0.15218052411E+03  0.25594919107E+03  0.34478593634E+03  0.17350963852E+03 0.  0.
         24    2    5    5    0    0 -0.39283183909E+02  0.40212673932E+02  0.18331971434E+03  0.20809951761E+03  0.80864478496E+02 0.  0.
          5    1    5    5  501    0  0.29141837616E+02  0.11196785018E+03  0.72629476738E+02  0.13668641873E+03  0.47000000000E+01 0. -1.
        -11    1    6    6    0    0 -0.45024687439E+02 -0.44984753821E+01  0.50341280888E+02  0.67688280531E+02  0.00000000000E+00 0.  1.
         12    1    6    6    0    0  0.57415035302E+01  0.44711149314E+02  0.13297843345E+03  0.14041123708E+03  0.00000000000E+00 0. -1.
         -5    1    3    3    0  503  0.84384840817E+01 -0.53970811189E+02 -0.94065072623E+02  0.10887784146E+03  0.47000000000E+01 0.  1.
         11    1    4    4    0    0 -0.11539590509E+02 -0.10548006141E+03  0.10981286513E+02  0.10667611802E+03  0.00000000000E+00 0. -1.
        -12    1    4    4    0    0  0.13242452721E+02  0.72703484867E+01  0.18161972993E+02  0.23623669999E+02  0.00000000000E+00 0.  1.
</event>
<event>
12    1  0.9873238E-001  0.1752866E+03  0.7818608E-02  0.1173753E+00
         21   -1    0    0  501  502  0.00000000000E+00  0.00000000000E+00  0.28244962976E+03  0.28244962976E+03  0.00000000000E+00 0. -1.
         21   -1    0    0  502  503 -0.00000000000E+00 -0.00000000000E+00 -0.10572011562E+03  0.10572011562E+03  0.00000000000E+00 0. -1.
         -6    2    1    2    0  503  0.31062099135E+00 -0.13206031097E+02  0.80882223641E+02  0.18838958770E+03  0.16962961684E+03 0.  0.
        -24    2    3    3    0    0 -0.62702122414E+02 -0.10650255866E+02  0.63238513713E+02  0.12273497386E+03  0.83784127890E+02 0.  0.
          6    2    1    2  501    0 -0.31062099135E+00  0.13206031097E+02  0.95847290499E+02  0.19978015768E+03  0.17478819343E+03 0.  0.
         24    2    5    5    0    0 -0.34486779484E+02 -0.82105360994E+01 -0.96909945991E+01  0.86700102930E+02  0.78525420148E+02 0.  0.
          5    1    5    5  501    0  0.34176158493E+02  0.21416567196E+02  0.10553828510E+03  0.11308005475E+03  0.47000000000E+01 0. -1.
        -11    1    6    6    0    0 -0.50277076835E+02 -0.27174431580E+02 -0.19147272327E+02  0.60273146793E+02  0.00000000000E+00 0.  1.
         12    1    6    6    0    0  0.15790297350E+02  0.18963895480E+02  0.94562777276E+01  0.26426956137E+02  0.00000000000E+00 0. -1.
         -5    1    3    3    0  503  0.63012743405E+02 -0.25557752309E+01  0.17643709927E+02  0.65654613840E+02  0.47000000000E+01 0.  1.
         11    1    4    4    0    0 -0.50324712846E+02  0.31379024050E+02  0.48164337441E+02  0.76400414099E+02  0.00000000000E+00 0. -1.
        -12    1    4    4    0    0 -0.12377409568E+02 -0.42029279916E+02  0.15074176273E+02  0.46334559760E+02  0.00000000000E+00 0.  1.
</event>
<event>
12    1  0.9873238E-001  0.2219829E+03  0.7818608E-02  0.1132846E+00
         21   -1    0    0  503  502  0.00000000000E+00  0.00000000000E+00  0.43719162094E+02  0.43719162094E+02  0.00000000000E+00 0. -1.
         21   -1    0    0  501  503 -0.00000000000E+00 -0.00000000000E+00 -0.11399751277E+04  0.11399751277E+04  0.00000000000E+00 0.  1.
          6    2    1    2  501    0  0.81871441025E+02 -0.11015174109E+03 -0.63238817235E+03  0.66944753376E+03  0.17149011930E+03 0.  0.
         24    2    3    3    0    0  0.76128847225E+02 -0.42426072031E+02 -0.54945482681E+03  0.56211732630E+03  0.80496638753E+02 0.  0.
         -6    2    1    2    0  502 -0.81871441025E+02  0.11015174109E+03 -0.46386779322E+03  0.51424675600E+03  0.17447079280E+03 0.  0.
        -24    2    5    5    0    0 -0.32992653090E+02  0.10081868770E+03 -0.17225103882E+03  0.21837742124E+03  0.82251776809E+02 0.  0.
          5    1    3    3  501    0  0.57425937999E+01 -0.67725669057E+02 -0.82933345534E+02  0.10733020746E+03  0.47000000000E+01 0. -1.
        -13    1    4    4    0    0 -0.87402250084E+01  0.10256209975E+02 -0.14028715863E+03  0.14093285016E+03  0.00000000000E+00 0.  1.
         14    1    4    4    0    0  0.84869072234E+02 -0.52682282006E+02 -0.40916766818E+03  0.42118447614E+03  0.00000000000E+00 0. -1.
         -5    1    5    5    0  502 -0.48878787935E+02  0.93330533884E+01 -0.29161675441E+03  0.29586933475E+03  0.47000000000E+01 0.  1.
         11    1    6    6    0    0  0.86038536089E+00  0.10013314139E+03 -0.13419560998E+03  0.16743908744E+03  0.00000000000E+00 0. -1.
        -12    1    6    6    0    0 -0.33853038451E+02  0.68554631255E+00 -0.38055428843E+02  0.50938333802E+02  0.00000000000E+00 0.  1.
</event>
<event>
12    1  0.9873238E-001  0.1751126E+03  0.7818608E-02  0.1172864E+00
         21   -1    0    0  501  502  0.00000000000E+00  0.00000000000E+00  0.15783296360E+03  0.15783296360E+03  0.00000000000E+00 0. -1.
         21   -1    0    0  502  503 -0.00000000000E+00 -0.00000000000E+00 -0.19914209754E+03  0.19914209754E+03  0.00000000000E+00 0. -1.
         -6    2    1    2    0  503 -0.48221203756E+01  0.33175340536E+02  0.10107872167E+02  0.17540404218E+03  0.17187365380E+03 0.  0.
        -24    2    3    3    0    0 -0.28960837340E+01 -0.15250060515E+02 -0.52810872325E+02  0.95845337488E+02  0.78462658863E+02 0.  0.
          6    2    1    2  501    0  0.48221203756E+01 -0.33175340536E+02 -0.51417006105E+02  0.18157101895E+03  0.17088145114E+03 0.  0.
         24    2    5    5    0    0 -0.44905778946E+02 -0.67694910235E+02 -0.39512460960E+02  0.11969798073E+03  0.78531790800E+02 0.  0.
          5    1    5    5  501    0  0.49727899322E+02  0.34519569699E+02 -0.11904545145E+02  0.61873038218E+02  0.47000000000E+01 0. -1.
        -13    1    6    6    0    0  0.20013804128E+01 -0.65973499185E+02 -0.24767675397E+02  0.70497842966E+02  0.00000000000E+00 0.  1.
         14    1    6    6    0    0 -0.46907159359E+02 -0.17214110502E+01 -0.14744785563E+02  0.49200137769E+02  0.00000000000E+00 0. -1.
         -5    1    3    3    0  503 -0.19260366416E+01  0.48425401051E+02  0.62918744492E+02  0.79558704693E+02  0.47000000000E+01 0.  1.
         13    1    4    4    0    0  0.31677058465E+02  0.42301260413E-01 -0.48316711923E+02  0.57774929454E+02  0.00000000000E+00 0. -1.
        -14    1    4    4    0    0 -0.34573142199E+02 -0.15292361775E+02 -0.44941604019E+01  0.38070408034E+02  0.00000000000E+00 0.  1.
</event>
<event>
12    1  0.9873238E-001  0.1903107E+03  0.7818608E-02  0.1158453E+00
         21   -1    0    0  501  502  0.00000000000E+00  0.00000000000E+00  0.25803651373E+03  0.25803651373E+03  0.00000000000E+00 0. -1.
         21   -1    0    0  502  503 -0.00000000000E+00 -0.00000000000E+00 -0.15164762370E+03  0.15164762370E+03  0.00000000000E+00 0. -1.
         -6    2    1    2    0  503  0.80531797013E+02 -0.22038465863E+00  0.11107192693E+03  0.21931582031E+03  0.17110533944E+03 0.  0.
        -24    2    3    3    0    0 -0.19821456976E+02 -0.21147075778E+02  0.46648582802E+02  0.98149986609E+02  0.81346423543E+02 0.  0.
          6    2    1    2  501    0 -0.80531797013E+02  0.22038465863E+00 -0.46830368991E+01  0.19036831712E+03  0.17243186025E+03 0.  0.
         24    2    5    5    0    0  0.22304204140E+01 -0.18783843951E+02  0.43798732670E+02  0.92473897880E+02  0.79216697967E+02 0.  0.
          5    1    5    5  501    0 -0.82762217427E+02  0.19004228609E+02 -0.48481769570E+02  0.97894419244E+02  0.47000000000E+01 0. -1.
        -11    1    6    6    0    0 -0.30673941832E+02  0.14910310655E+02  0.21935923264E+02  0.40551113435E+02  0.00000000000E+00 0.  1.
         12    1    6    6    0    0  0.32904362246E+02 -0.33694154605E+02  0.21862809406E+02  0.51922784445E+02  0.00000000000E+00 0. -1.
         -5    1    3    3    0  503  0.10035325399E+03  0.20926691120E+02  0.64423344131E+02  0.12116583370E+03  0.47000000000E+01 0.  1.
         13    1    4    4    0    0 -0.89541061297E+01 -0.52194453209E+01 -0.23348629765E+02  0.25545589403E+02  0.00000000000E+00 0. -1.
        -14    1    4    4    0    0 -0.10867350846E+02 -0.15927630457E+02  0.69997212567E+02  0.72604397206E+02  0.00000000000E+00 0.  1.
</event>
<event>
12    1  0.9873238E-001  0.4142774E+03  0.7818608E-02  0.1038958E+00
         21   -1    0    0  503  502  0.00000000000E+00  0.00000000000E+00  0.20942110322E+03  0.20942110322E+03  0.00000000000E+00 0. -1.
         21   -1    0    0  501  503 -0.00000000000E+00 -0.00000000000E+00 -0.82163804935E+03  0.82163804935E+03  0.00000000000E+00 0. -1.
          6    2    1    2  501    0  0.28639428381E+03 -0.24470911776E+03 -0.33417164642E+03  0.53225600542E+03  0.17239932692E+03 0.  0.
         24    2    3    3    0    0  0.25104686006E+03 -0.12939807573E+03 -0.25150755709E+03  0.38596342719E+03  0.77092982235E+02 0.  0.
         -6    2    1    2    0  502 -0.28639428381E+03  0.24470911776E+03 -0.27804529971E+03  0.49880314716E+03  0.17202079180E+03 0.  0.
        -24    2    5    5    0    0 -0.23800475016E+03  0.19791635117E+03 -0.14814491860E+03  0.35242244834E+03  0.80234169960E+02 0.  0.
          5    1    3    3  501    0  0.35347423751E+02 -0.11531104203E+03 -0.82664089326E+02  0.14629257822E+03  0.47000000000E+01 0. -1.
        -11    1    4    4    0    0  0.14659265788E+03 -0.11633004536E+03 -0.15175387743E+03  0.24093842806E+03  0.00000000000E+00 0.  1.
         12    1    4    4    0    0  0.10445420217E+03 -0.13068030373E+02 -0.99753679658E+02  0.14502499914E+03  0.00000000000E+00 0. -1.
         -5    1    5    5    0  502 -0.48389533644E+02  0.46792766587E+02 -0.12990038112E+03  0.14638069881E+03  0.47000000000E+01 0.  1.
         13    1    6    6    0    0 -0.98833718232E+02  0.11275213780E+03 -0.35288902625E+02  0.15403394134E+03  0.00000000000E+00 0. -1.
        -14    1    6    6    0    0 -0.13917103193E+03  0.85164213373E+02 -0.11285601597E+03  0.19838850700E+03  0.00000000000E+00 0.  1.
</event>
<event>
12    1  0.9873238E-001  0.1896644E+03  0.7818608E-02  0.1158842E+00
         21   -1    0    0  501  502  0.00000000000E+00  0.00000000000E+00  0.33306023062E+03  0.33306023062E+03  0.00000000000E+00 0.  1.
         21   -1    0    0  502  503 -0.00000000000E+00 -0.00000000000E+00 -0.10956946574E+03  0.10956946574E+03  0.00000000000E+00 0.  1.
         -6    2    1    2    0  503 -0.97700022875E+01 -0.79880062621E+02  0.83614650210E+02  0.20696484076E+03  0.17136731961E+03 0.  0.
        -24    2    3    3    0    0 -0.71199503142E+02 -0.58443153213E+02  0.58197697866E+02  0.13695601184E+03  0.82975934681E+02 0.  0.
          6    2    1    2  501    0  0.97700022875E+01  0.79880062621E+02  0.13987611467E+03  0.23566485560E+03  0.17174492529E+03 0.  0.
         24    2    5    5    0    0 -0.45750541488E+02  0.32033956869E+02  0.12639283018E+03  0.16099444930E+03  0.82612219107E+02 0.  0.
          5    1    5    5  501    0  0.55520543775E+02  0.47846105752E+02  0.13483284489E+02  0.74670406302E+02  0.47000000000E+01 0. -1.
        -11    1    6    6    0    0 -0.29267075793E+02 -0.19415051468E+02  0.87905978335E+02  0.94662384166E+02  0.00000000000E+00 0.  1.
         12    1    6    6    0    0 -0.16483465695E+02  0.51449008337E+02  0.38486851845E+02  0.66332065135E+02  0.00000000000E+00 0. -1.
         -5    1    3    3    0  503  0.61429500855E+02 -0.21436909408E+02  0.25416952343E+02  0.70008828919E+02  0.47000000000E+01 0.  1.
         11    1    4    4    0    0 -0.37969261293E+02 -0.18197530373E+02  0.71607787922E+02  0.83069189270E+02  0.00000000000E+00 0. -1.
        -12    1    4    4    0    0 -0.33230241849E+02 -0.40245622840E+02 -0.13410090056E+02  0.53886822567E+02  0.00000000000E+00 0.  1.
</event>
<event>
12    1  0.9873238E-001  0.2084552E+03  0.7818608E-02  0.1142975E+00
         21   -1    0    0  501  502  0.00000000000E+00  0.00000000000E+00  0.80610285060E+02  0.80610285060E+02  0.00000000000E+00 0.  1.
         21   -1    0    0  502  503 -0.00000000000E+00 -0.00000000000E+00 -0.56421896577E+03  0.56421896577E+03  0.00000000000E+00 0. -1.
         -6    2    1    2    0  503 -0.61220043842E+02 -0.10036875374E+03 -0.17114776085E+03  0.26971302048E+03  0.17213883025E+03 0.  0.
        -24    2    3    3    0    0 -0.43937395954E+02 -0.11629424558E+03 -0.66367063247E+02  0.16222629666E+03  0.80361296196E+02 0.  0.
          6    2    1    2  501    0  0.61220043842E+02  0.10036875374E+03 -0.31246091987E+03  0.37511623035E+03  0.17105139384E+03 0.  0.
         24    2    5    5    0    0 -0.71564869590E+01  0.35192498881E+02 -0.24527481884E+03  0.25910176430E+03  0.75394033072E+02 0.  0.
          5    1    5    5  501    0  0.68376530801E+02  0.65176254858E+02 -0.67186101022E+02  0.11601446605E+03  0.47000000000E+01 0. -1.
        -11    1    6    6    0    0 -0.29044810837E+02  0.48673604201E+02 -0.14785035100E+03  0.15834281503E+03  0.00000000000E+00 0.  1.
         12    1    6    6    0    0  0.21888323878E+02 -0.13481105320E+02 -0.97424467847E+02  0.10075894927E+03  0.00000000000E+00 0. -1.
         -5    1    3    3    0  503 -0.17282647888E+02  0.15925491839E+02 -0.10478069760E+03  0.10748672382E+03  0.47000000000E+01 0.  1.
         11    1    4    4    0    0  0.16386222916E+02 -0.19663329942E+01  0.85490300845E+00  0.16525907723E+02  0.00000000000E+00 0. -1.
        -12    1    4    4    0    0 -0.60323618870E+02 -0.11432791258E+03 -0.67221966255E+02  0.14570038894E+03  0.00000000000E+00 0.  1.
</event>
<event>
12    1  0.9873238E-001  0.2395412E+03  0.7818608E-02  0.1120470E+00
         21   -1    0    0  501  502  0.00000000000E+00  0.00000000000E+00  0.22612349199E+03  0.22612349199E+03  0.00000000000E+00 0. -1.
         21   -1    0    0  502  503 -0.00000000000E+00 -0.00000000000E+00 -0.31571733076E+03  0.31571733076E+03  0.00000000000E+00 0. -1.
         -6    2    1    2    0  503 -0.67313414393E+02  0.15315298869E+03  0.77630713003E+02  0.24970376396E+03  0.16834045394E+03 0.  0.
        -24    2    3    3    0    0  0.23243180026E+02  0.55643559537E+02  0.10264997835E+02  0.10047636987E+03  0.79709971687E+02 0.  0.
          6    2    1    2  501    0  0.67313414393E+02 -0.15315298869E+03 -0.16722455178E+03  0.29213705879E+03  0.17144409205E+03 0.  0.
         24    2    5    5    0    0  0.84933742480E+02 -0.10702885607E+03 -0.51731671995E+02  0.16644454966E+03  0.79741492209E+02 0.  0.
          5    1    5    5  501    0 -0.17620328086E+02 -0.46124132617E+02 -0.11549287978E+03  0.12569250913E+03  0.47000000000E+01 0. -1.
        -13    1    6    6    0    0  0.46700649784E+01 -0.63819320303E+02 -0.37546338203E+02  0.74191931255E+02  0.00000000000E+00 0.  1.
         14    1    6    6    0    0  0.80263677501E+02 -0.43209535769E+02 -0.14185333792E+02  0.92252618403E+02  0.00000000000E+00 0. -1.
         -5    1    3    3    0  503 -0.90556594419E+02  0.97509429152E+02  0.67365715168E+02  0.14922739409E+03  0.47000000000E+01 0.  1.
         11    1    4    4    0    0 -0.20448475636E+02 -0.58450228651E+01 -0.82415437946E+01  0.22808496054E+02  0.00000000000E+00 0. -1.
        -12    1    4    4    0    0  0.43691655662E+02  0.61488582402E+02  0.18506541630E+02  0.77667873818E+02  0.00000000000E+00 0.  1.
</event>
<event>
12    1  0.9873238E-001  0.2064112E+03  0.7818608E-02  0.1145024E+00
         21   -1    0    0  503  502  0.00000000000E+00  0.00000000000E+00  0.71798120857E+02  0.71798120857E+02  0.00000000000E+00 0. -1.
         21   -1    0    0  501  503 -0.00000000000E+00 -0.00000000000E+00 -0.89975719983E+03  0.89975719983E+03  0.00000000000E+00 0. -1.
          6    2    1    2  501    0 -0.97062012884E+02 -0.55808664608E+02 -0.12863991278E+03  0.24321560455E+03  0.17340692532E+03 0.  0.
         24    2    3    3    0    0 -0.12994814827E+03 -0.50599720306E+02 -0.69191223728E+02  0.17491576830E+03  0.79757429909E+02 0.  0.
         -6    2    1    2    0  502  0.97062012884E+02  0.55808664608E+02 -0.69931916619E+03  0.72833971613E+03  0.16998765985E+03 0.  0.
        -24    2    5    5    0    0  0.10826905919E+03  0.30699266109E+02 -0.32488533685E+03  0.35286819613E+03  0.79377878657E+02 0.  0.
          5    1    3    3  501    0  0.32886135390E+02 -0.52089443020E+01 -0.59448689053E+02  0.68299836250E+02  0.47000000000E+01 0. -1.
        -13    1    4    4    0    0 -0.12362744893E+03 -0.47381355013E+02 -0.30874948351E+02  0.13594852470E+03  0.00000000000E+00 0.  1.
         14    1    4    4    0    0 -0.63206993416E+01 -0.32183652929E+01 -0.38316275378E+02  0.38967243605E+02  0.00000000000E+00 0. -1.
         -5    1    5    5    0  502 -0.11207046305E+02  0.25109398498E+02 -0.37443382934E+03  0.37547152000E+03  0.47000000000E+01 0.  1.
         13    1    6    6    0    0  0.16549712744E+02 -0.21723883518E+02 -0.35409718643E+02  0.44717650669E+02  0.00000000000E+00 0. -1.
        -14    1    6    6    0    0  0.91719346446E+02  0.52423149627E+02 -0.28947561821E+03  0.30815054546E+03  0.00000000000E+00 0.  1.
</event>
<event>
12    1  0.9873238E-001  0.2556856E+03  0.7818608E-02  0.1110242E+00
         21   -1    0    0  503  502  0.00000000000E+00  0.00000000000E+00  0.31798737502E+03  0.31798737502E+03  0.00000000000E+00 0. -1.
         21   -1    0    0  501  503 -0.00000000000E+00 -0.00000000000E+00 -0.20579059610E+03  0.20579059610E+03  0.00000000000E+00 0. -1.
          6    2    1    2  501    0  0.12440406470E+03 -0.13497959024E+03  0.26527649020E+02  0.25705806667E+03  0.17798671968E+03 0.  0.
         24    2    3    3    0    0  0.42276639326E+02 -0.14688121120E+03  0.19224092197E+02  0.17361949931E+03  0.80079712694E+02 0.  0.
         -6    2    1    2    0  502 -0.12440406470E+03  0.13497959024E+03  0.85669129906E+02  0.26671990445E+03  0.17350632989E+03 0.  0.
        -24    2    5    5    0    0 -0.96775394009E+02  0.77952280241E+02  0.12474593165E+03  0.19212403348E+03  0.76863918054E+02 0.  0.
          5    1    3    3  501    0  0.82127425374E+02  0.11901620957E+02  0.73035568221E+01  0.83438567355E+02  0.47000000000E+01 0. -1.
        -13    1    4    4    0    0  0.46679806794E+02 -0.13773255865E+03 -0.69003148844E+01  0.14559147098E+03  0.00000000000E+00 0.  1.
         14    1    4    4    0    0 -0.44031674675E+01 -0.91486525465E+01  0.26124407082E+02  0.28028028338E+02  0.00000000000E+00 0. -1.
         -5    1    5    5    0  502 -0.27628670692E+02  0.57027310001E+02 -0.39076801744E+02  0.74595870963E+02  0.47000000000E+01 0.  1.
         13    1    6    6    0    0 -0.44688875530E+02  0.79488030775E+02  0.60640433326E+02  0.10951120850E+03  0.00000000000E+00 0. -1.
        -14    1    6    6    0    0 -0.52086518479E+02 -0.15357505334E+01  0.64105498324E+02  0.82612824987E+02  0.00000000000E+00 0.  1.
</event>
<event>
12    1  0.9873238E-001  0.2000600E+03  0.7818608E-02  0.1149734E+00
         21   -1    0    0  501  502  0.00000000000E+00  0.00000000000E+00  0.55752484709E+03  0.55752484709E+03  0.00000000000E+00 0. -1.
         21   -1    0    0  502  503 -0.00000000000E+00 -0.00000000000E+00 -0.12550819803E+03  0.12550819803E+03  0.00000000000E+00 0. -1.
         -6    2    1    2    0  503  0.91106666255E+02  0.46355974017E+02  0.43966797610E+03  0.48304442227E+03  0.17197291563E+03 0.  0.
        -24    2    3    3    0    0  0.17107811248E+02  0.57374445605E+02  0.12744378097E+03  0.16194743492E+03  0.80003438390E+02 0.  0.
          6    2    1    2  501    0 -0.91106666255E+02 -0.46355974017E+02 -0.76513270421E+01  0.19998862285E+03  0.17171955481E+03 0.  0.
         24    2    5    5    0    0 -0.57611463656E+01  0.26081424477E+02  0.16229060208E+02  0.85431225184E+02  0.79508995284E+02 0.  0.
          5    1    5    5  501    0 -0.85345519889E+02 -0.72437398494E+02 -0.23880387250E+02  0.11455739767E+03  0.47000000000E+01 0. -1.
        -13    1    6    6    0    0 -0.62917079765E+01  0.10493064502E+02  0.48269545316E+02  0.49795973702E+02  0.00000000000E+00 0.  1.
         14    1    6    6    0    0  0.53056161090E+00  0.15588359975E+02 -0.32040485107E+02  0.35635251483E+02  0.00000000000E+00 0. -1.
         -5    1    3    3    0  503  0.73998855007E+02 -0.11018471588E+02  0.31222419513E+03  0.32109698734E+03  0.47000000000E+01 0.  1.
         13    1    4    4    0    0  0.28675969655E+02  0.70792913049E+02  0.12100929504E+03  0.14309855785E+03  0.00000000000E+00 0. -1.
        -14    1    4    4    0    0 -0.11568158407E+02 -0.13418467444E+02  0.64344859345E+01  0.18848877068E+02  0.00000000000E+00 0.  1.
</event>
<event>
12    1  0.9873238E-001  0.1740046E+03  0.7818608E-02  0.1174879E+00
         21   -1    0    0  503  502  0.00000000000E+00  0.00000000000E+00  0.89416231330E+03  0.89416231330E+03  0.00000000000E+00 0.  1.
         21   -1    0    0  501  503 -0.00000000000E+00 -0.00000000000E+00 -0.33637887329E+02  0.33637887329E+02  0.00000000000E+00 0.  1.
          6    2    1    2  501    0  0.22650160469E+02 -0.23552310281E+02  0.48872810304E+03  0.51730036922E+03  0.16636337397E+03 0.  0.
         24    2    3    3    0    0  0.75604263230E+02 -0.63409295933E+01  0.37504215018E+03  0.39062379481E+03  0.78575585629E+02 0.  0.
         -6    2    1    2    0  502 -0.22650160469E+02  0.23552310281E+02  0.37179632293E+03  0.41049983142E+03  0.17090893703E+03 0.  0.
        -24    2    5    5    0    0 -0.41805526258E+02 -0.45197400529E+02  0.16085856758E+03  0.18776618463E+03  0.74767334365E+02 0.  0.
          5    1    3    3  501    0 -0.52954102760E+02 -0.17211380688E+02  0.11368595287E+03  0.12667657441E+03  0.47000000000E+01 0. -1.
        -11    1    4    4    0    0  0.28818859512E+02  0.35562661673E+02  0.17938260502E+03  0.18513062565E+03  0.00000000000E+00 0.  1.
         12    1    4    4    0    0  0.46785403717E+02 -0.41903591266E+02  0.19565954516E+03  0.20549316916E+03  0.00000000000E+00 0. -1.
         -5    1    5    5    0  502  0.19155365789E+02  0.68749710811E+02  0.21093775535E+03  0.22273364678E+03  0.47000000000E+01 0.  1.
         11    1    6    6    0    0 -0.25184689334E+02  0.13742177639E+02  0.88168730271E+02  0.92719151316E+02  0.00000000000E+00 0. -1.
        -12    1    6    6    0    0 -0.16620836924E+02 -0.58939578169E+02  0.72689837309E+02  0.95047033319E+02  0.00000000000E+00 0.  1.
</event>
<event>
12    1  0.9873238E-001  0.3385850E+03  0.7818608E-02  0.1067499E+00
         21   -1    0    0  503  502  0.00000000000E+00  0.00000000000E+00  0.19441706466E+04  0.19441706466E+04  0.00000000000E+00 0. -1.
         21   -1    0    0  501  503 -0.00000000000E+00 -0.00000000000E+00 -0.19185078496E+03  0.19185078496E+03  0.00000000000E+00 0. -1.
          6    2    1    2  501    0  0.36761635780E+02  0.28941167184E+03 -0.13600396219E+02  0.33793517371E+03  0.17001375589E+03 0.  0.
         24    2    3    3    0    0  0.88810912787E+02  0.22330714136E+03 -0.12817043705E+02  0.25366394595E+03  0.80172708911E+02 0.  0.
         -6    2    1    2    0  502 -0.36761635780E+02 -0.28941167184E+03  0.17659202579E+04  0.17980862579E+04  0.17184091458E+03 0.  0.
        -24    2    5    5    0    0  0.98647404241E+01 -0.12312110332E+03  0.49956862992E+03  0.52000366752E+03  0.74691894149E+02 0.  0.
          5    1    3    3  501    0 -0.52049277007E+02  0.66104530479E+02 -0.78335251417E+00  0.84271227759E+02  0.47000000000E+01 0. -1.
        -11    1    4    4    0    0  0.50761017017E+02  0.86242543706E+02  0.31095568867E+02  0.10479213518E+03  0.00000000000E+00 0.  1.
         12    1    4    4    0    0  0.38049895770E+02  0.13706459765E+03 -0.43912612571E+02  0.14887181076E+03  0.00000000000E+00 0. -1.
         -5    1    5    5    0  502 -0.46626376204E+02 -0.16629056852E+03  0.12663516279E+04  0.12780825903E+04  0.47000000000E+01 0.  1.
         13    1    6    6    0    0 -0.23547266940E+02 -0.45389846171E+02  0.10931016510E+03  0.12067901272E+03  0.00000000000E+00 0. -1.
        -14    1    6    6    0    0  0.33412007364E+02 -0.77731257146E+02  0.39025846481E+03  0.39932465480E+03  0.00000000000E+00 0.  1.
</event>
<event>
12    1  0.9873238E-001  0.2531361E+03  0.7818608E-02  0.1111701E+00
         21   -1    0    0  501  502  0.00000000000E+00  0.00000000000E+00  0.27923232755E+03  0.27923232755E+03  0.00000000000E+00 0.  1.
         21   -1    0    0  502  503 -0.00000000000E+00 -0.00000000000E+00 -0.23383921963E+03  0.23383921963E+03  0.00000000000E+00 0.  1.
         -6    2    1    2    0  503  0.13441174634E+03 -0.12821810856E+03 -0.19831790270E+02  0.25391180916E+03  0.17196367642E+03 0.  0.
        -24    2    3    3    0    0  0.15584526454E+03 -0.10550065309E+03 -0.31114581188E+02  0.22037272962E+03  0.11035347078E+03 0.  0.
          6    2    1    2  501    0 -0.13441174634E+03  0.12821810856E+03  0.65224898185E+02  0.25915973802E+03  0.16853213803E+03 0.  0.
         24    2    5    5    0    0 -0.21054076687E+02  0.22995733126E+02 -0.13561460386E+02  0.85519046188E+02  0.78469842398E+02 0.  0.
          5    1    5    5  501    0 -0.11335766966E+03  0.10522237544E+03  0.78786358572E+02  0.17364069183E+03  0.47000000000E+01 0. -1.
        -13    1    6    6    0    0  0.19834188704E+02  0.33569811105E+02 -0.18203429355E+02  0.43031292096E+02  0.00000000000E+00 0.  1.
         14    1    6    6    0    0 -0.40888265391E+02 -0.10574077980E+02  0.46419689682E+01  0.42487754092E+02  0.00000000000E+00 0. -1.
         -5    1    3    3    0  503 -0.21433518200E+02 -0.22717455471E+02  0.11282790917E+02  0.33539079540E+02  0.47000000000E+01 0.  1.
         11    1    4    4    0    0  0.84452559008E+02 -0.11841750849E+03 -0.24801401282E+02  0.14754677410E+03  0.00000000000E+00 0. -1.
        -12    1    4    4    0    0  0.71392705536E+02  0.12916855402E+02 -0.63131799057E+01  0.72825955522E+02  0.00000000000E+00 0.  1.
</event>
<event>
12    1  0.9873238E-001  0.1761866E+03  0.7818608E-02  0.1171920E+00
         21   -1    0    0  503  502  0.00000000000E+00  0.00000000000E+00  0.18390511864E+03  0.18390511864E+03  0.00000000000E+00 0.  1.
         21   -1    0    0  501  503 -0.00000000000E+00 -0.00000000000E+00 -0.20352932307E+03  0.20352932307E+03  0.00000000000E+00 0.  1.
          6    2    1    2  501    0 -0.12830217098E+02  0.31979844741E+02 -0.91441340000E+02  0.19717296589E+03  0.17125517475E+03 0.  0.
         24    2    3    3    0    0  0.16832940267E+02  0.64145865235E+02 -0.11063985497E+02  0.10553692006E+03  0.81348569844E+02 0.  0.
         -6    2    1    2    0  502  0.12830217098E+02 -0.31979844741E+02  0.71817135567E+02  0.19026147582E+03  0.17278426803E+03 0.  0.
        -24    2    5    5    0    0  0.59762043777E+02  0.22193534245E+02  0.17907812815E+02  0.10045247613E+03  0.75537774401E+02 0.  0.
          5    1    3    3  501    0 -0.29663157365E+02 -0.32166020494E+02 -0.80377354503E+02  0.91636045834E+02  0.47000000000E+01 0. -1.
        -13    1    4    4    0    0  0.28658059841E+02  0.49850839716E+02 -0.40787861444E+02  0.70498512434E+02  0.00000000000E+00 0.  1.
         14    1    4    4    0    0 -0.11825119575E+02  0.14295025519E+02  0.29723875947E+02  0.35038407625E+02  0.00000000000E+00 0. -1.
         -5    1    5    5    0  502 -0.46931826679E+02 -0.54173378986E+02  0.53909322752E+02  0.89808999693E+02  0.47000000000E+01 0.  1.
         11    1    6    6    0    0  0.71277119137E+02 -0.27881009090E+01  0.13325247571E+02  0.72565580284E+02  0.00000000000E+00 0. -1.
        -12    1    6    6    0    0 -0.11515075360E+02  0.24981635154E+02  0.45825652438E+01  0.27886895842E+02  0.00000000000E+00 0.  1.
</event>
<event>
12    1  0.9873238E-001  0.2319897E+03  0.7818608E-02  0.1125521E+00
         21   -1    0    0  501  502  0.00000000000E+00  0.00000000000E+00  0.25856446773E+03  0.25856446773E+03  0.00000000000E+00 0. -1.
         21   -1    0    0  502  503 -0.00000000000E+00 -0.00000000000E+00 -0.28474054884E+03  0.28474054884E+03  0.00000000000E+00 0. -1.
         -6    2    1    2    0  503 -0.32878833904E+02 -0.15139525396E+03  0.12905731853E+03  0.26547127669E+03  0.17267792749E+03 0.  0.
        -24    2    3    3    0    0 -0.77355360579E+02 -0.89375845035E+02  0.36936997972E+02  0.14575155414E+03  0.76858833118E+02 0.  0.
          6    2    1    2  501    0  0.32878833904E+02  0.15139525396E+03 -0.15523339964E+03  0.27783373987E+03  0.17056564133E+03 0.  0.
         24    2    5    5    0    0  0.86459238964E+02  0.80677987914E+02 -0.97330058262E+02  0.17178338170E+03  0.77796222611E+02 0.  0.
          5    1    5    5  501    0 -0.53580405060E+02  0.70717266047E+02 -0.57903341383E+02  0.10605035816E+03  0.47000000000E+01 0. -1.
        -13    1    6    6    0    0  0.48370015776E+02  0.10704162393E+02 -0.73481737668E+02  0.88621686338E+02  0.00000000000E+00 0.  1.
         14    1    6    6    0    0  0.38089223189E+02  0.69973825521E+02 -0.23848320594E+02  0.83161695367E+02  0.00000000000E+00 0. -1.
         -5    1    3    3    0  503  0.44476526675E+02 -0.62019408926E+02  0.92120320560E+02  0.11971972256E+03  0.47000000000E+01 0.  1.
         11    1    4    4    0    0 -0.20360429808E+02  0.12005321728E+02  0.13122480424E+02  0.27034687796E+02  0.00000000000E+00 0. -1.
        -12    1    4    4    0    0 -0.56994930772E+02 -0.10138116676E+03  0.23814517548E+02  0.11871686634E+03  0.00000000000E+00 0.  1.
</event>
<event>
12    1  0.9873238E-001  0.1731720E+03  0.7818608E-02  0.1174643E+00
         21   -1    0    0  501  502  0.00000000000E+00  0.00000000000E+00  0.36385188408E+02  0.36385188408E+02  0.00000000000E+00 0.  1.
         21   -1    0    0  502  503 -0.00000000000E+00 -0.00000000000E+00 -0.92890961259E+03  0.92890961259E+03  0.00000000000E+00 0.  1.
         -6    2    1    2    0  503 -0.17698553874E+02  0.14757571129E+02 -0.28358441680E+03  0.33227800282E+03  0.17163194631E+03 0.  0.
        -24    2    3    3    0    0  0.31536695813E+02  0.52540554435E+02 -0.11226705154E+03  0.15000514890E+03  0.78374618285E+02 0.  0.
          6    2    1    2  501    0  0.17698553874E+02 -0.14757571129E+02 -0.60894000739E+03  0.63301679818E+03  0.17138059827E+03 0.  0.
         24    2    5    5    0    0 -0.34589942304E+02  0.14448116823E+02 -0.50501051387E+03  0.51297310336E+03  0.81857030660E+02 0.  0.
          5    1    5    5  501    0  0.52288496178E+02 -0.29205687952E+02 -0.10392949352E+03  0.12004369481E+03  0.47000000000E+01 0. -1.
        -13    1    6    6    0    0 -0.57153872233E+02 -0.34824410746E+00 -0.24558433806E+03  0.25214748360E+03  0.00000000000E+00 0.  1.
         14    1    6    6    0    0  0.22563929929E+02  0.14796360931E+02 -0.25942617581E+03  0.26082561977E+03  0.00000000000E+00 0. -1.
         -5    1    3    3    0  503 -0.49235249687E+02 -0.37782983306E+02 -0.17131736526E+03  0.18227285393E+03  0.47000000000E+01 0.  1.
         11    1    4    4    0    0  0.10166347930E+02 -0.19087949904E+02 -0.42835138903E+02  0.47984930828E+02  0.00000000000E+00 0. -1.
        -12    1    4    4    0    0  0.21370347882E+02  0.71628504339E+02 -0.69431912636E+02  0.10202021807E+03  0.00000000000E+00 0.  1.
</event>
<event>
12    1  0.9873238E-001  0.2002361E+03  0.7818608E-02  0.1150193E+00
         21   -1    0    0  501  502  0.00000000000E+00  0.00000000000E+00  0.31023480287E+03  0.31023480287E+03  0.00000000000E+00 0.  1.
         21   -1    0    0  502  503 -0.00000000000E+00 -0.00000000000E+00 -0.24130321178E+03  0.24130321178E+03  0.00000000000E+00 0.  1.
         -6    2    1    2    0  503 -0.98476640935E+02 -0.10403932675E+02  0.22390336973E+03  0.29833701500E+03  0.17048860641E+03 0.  0.
        -24    2    3    3    0    0 -0.10750603997E+03 -0.19069566330E+02  0.23996232814E+03  0.27744195820E+03  0.86434508454E+02 0.  0.
          6    2    1    2  501    0  0.98476640935E+02  0.10403932675E+02 -0.15497177863E+03  0.25320099965E+03  0.17403621298E+03 0.  0.
         24    2    5    5    0    0  0.14117947004E+02 -0.38416735047E+02 -0.11935710047E+03  0.14932442800E+03  0.79853023760E+02 0.  0.
          5    1    5    5  501    0  0.84358693932E+02  0.48820667722E+02 -0.35614678159E+02  0.10387657166E+03  0.47000000000E+01 0. -1.
        -11    1    6    6    0    0  0.35683783629E+02 -0.29084985468E+02 -0.11697269788E+03  0.12570553227E+03  0.00000000000E+00 0.  1.
         12    1    6    6    0    0 -0.21565836625E+02 -0.93317495793E+01 -0.23844025919E+01  0.23618895725E+02  0.00000000000E+00 0. -1.
         -5    1    3    3    0  503  0.90293990304E+01  0.86656336547E+01 -0.16058958410E+02  0.20895056801E+02  0.47000000000E+01 0.  1.
         11    1    4    4    0    0  0.11367169693E+02  0.12201143773E-01  0.31711989951E+01  0.11801237171E+02  0.00000000000E+00 0. -1.
        -12    1    4    4    0    0 -0.11887320966E+03 -0.19081767473E+02  0.23679112915E+03  0.26564072103E+03  0.00000000000E+00 0.  1.
</event>
<event>
12    1  0.9873238E-001  0.1878718E+03  0.7818608E-02  0.1161692E+00
         21   -1    0    0  503  502  0.00000000000E+00  0.00000000000E+00  0.60402590130E+03  0.60402590130E+03  0.00000000000E+00 0. -1.
         21   -1    0    0  501  503 -0.00000000000E+00 -0.00000000000E+00 -0.58205769876E+02  0.58205769876E+02  0.00000000000E+00 0. -1.
          6    2    1    2  501    0  0.61002996929E+02  0.19887027178E+02  0.21586303125E+03  0.28253773317E+03  0.17062784919E+03 0.  0.
         24    2    3    3    0    0  0.92992667412E+02 -0.26264646802E+02  0.12963700876E+03  0.17953126259E+03  0.78027253828E+02 0.  0.
         -6    2    1    2    0  502 -0.61002996929E+02 -0.19887027178E+02  0.32995710018E+03  0.37969393801E+03  0.17657559038E+03 0.  0.
        -24    2    5    5    0    0  0.31703047158E+01  0.14563292661E+01  0.29041317419E+03  0.30121105076E+03  0.79850570628E+02 0.  0.
          5    1    3    3  501    0 -0.31989670483E+02  0.46151673980E+02  0.86226022483E+02  0.10300647058E+03  0.47000000000E+01 0. -1.
        -11    1    4    4    0    0  0.81805015751E+02  0.11570436061E+02  0.10246903895E+03  0.13162765490E+03  0.00000000000E+00 0.  1.
         12    1    4    4    0    0  0.11187651661E+02 -0.37835082863E+02  0.27167969818E+02  0.47903607682E+02  0.00000000000E+00 0. -1.
         -5    1    5    5    0  502 -0.64173301645E+02 -0.21343356444E+02  0.39543925983E+02  0.78482887246E+02  0.47000000000E+01 0.  1.
         13    1    6    6    0    0 -0.30582641524E+02 -0.16105058508E+02  0.20233714379E+03  0.20526809452E+03  0.00000000000E+00 0. -1.
        -14    1    6    6    0    0  0.33752946240E+02  0.17561387774E+02  0.88076030406E+02  0.95942956242E+02  0.00000000000E+00 0.  1.
</event>
<event>
12    1  0.9873238E-001  0.2206896E+03  0.7818608E-02  0.1133739E+00
         21   -1    0    0  501  502  0.00000000000E+00  0.00000000000E+00  0.20632855632E+03  0.20632855632E+03  0.00000000000E+00 0. -1.
         21   -1    0    0  502  503 -0.00000000000E+00 -0.00000000000E+00 -0.26737337373E+03  0.26737337373E+03  0.00000000000E+00 0. -1.
         -6    2    1    2    0  503  0.39363550622E+02  0.13274246212E+03 -0.11440061497E+03  0.24857876044E+03  0.17185415057E+03 0.  0.
        -24    2    3    3    0    0  0.20650303765E+02 -0.94054791884E+00 -0.26652705911E+02  0.87510084636E+02  0.80748551099E+02 0.  0.
          6    2    1    2  501    0 -0.39363550622E+02 -0.13274246212E+03  0.53355797562E+02  0.22512316960E+03  0.16930313048E+03 0.  0.
         24    2    5    5    0    0  0.73916574560E+00 -0.88621395633E+02 -0.30954092695E+02  0.12175419958E+03  0.77534709204E+02 0.  0.
          5    1    5    5  501    0 -0.40102716368E+02 -0.44121066490E+02  0.84309890257E+02  0.10336897002E+03  0.47000000000E+01 0. -1.
        -11    1    6    6    0    0 -0.24570066272E+02 -0.79884097903E+02 -0.38659724137E+01  0.83666618176E+02  0.00000000000E+00 0.  1.
         12    1    6    6    0    0  0.25309232018E+02 -0.87372977303E+01 -0.27088120281E+02  0.38087581406E+02  0.00000000000E+00 0. -1.
         -5    1    3    3    0  503  0.18713246857E+02  0.13368301004E+03 -0.87747909064E+02  0.16106867581E+03  0.47000000000E+01 0.  1.
         13    1    4    4    0    0  0.33737001870E+01 -0.18981131886E+01 -0.54547413915E+02  0.54684596108E+02  0.00000000000E+00 0. -1.
        -14    1    4    4    0    0  0.17276603578E+02  0.95756526976E+00  0.27894708005E+02  0.32825488528E+02  0.00000000000E+00 0.  1.
</event>
<event>
12    1  0.9873238E-001  0.2956528E+03  0.7818608E-02  0.1087489E+00
         21   -1    0    0  501  502  0.00000000000E+00  0.00000000000E+00  0.42574813165E+03  0.42574813165E+03  0.00000000000E+00 0. -1.
         21   -1    0    0  502  503 -0.00000000000E+00 -0.00000000000E+00 -0.22872011608E+03  0.22872011608E+03  0.00000000000E+00 0. -1.
         -6    2    1    2    0  503 -0.18055919348E+03  0.15897502388E+03 -0.69017607467E+01  0.29530544878E+03  0.17112274311E+03 0.  0.
        -24    2    3    3    0    0 -0.41432376396E+02  0.85858601876E+01  0.13667116177E+02  0.89348316141E+02  0.77498211100E+02 0.  0.
          6    2    1    2  501    0  0.18055919348E+03 -0.15897502388E+03  0.20392977631E+03  0.35916279895E+03  0.17186006493E+03 0.  0.
         24    2    5    5    0    0  0.17636126407E+03 -0.71637072428E+02  0.10630307253E+03  0.22801935205E+03  0.66763134055E+02 0.  0.
          5    1    5    5  501    0  0.41979294122E+01 -0.87337951450E+02  0.97626703781E+02  0.13114344690E+03  0.47000000000E+01 0. -1.
        -11    1    6    6    0    0  0.21766546140E+02  0.13105072202E+02  0.14442455215E+02  0.29225159724E+02  0.00000000000E+00 0.  1.
         12    1    6    6    0    0  0.15459471793E+03 -0.84742144629E+02  0.91860617318E+02  0.19879419232E+03  0.00000000000E+00 0. -1.
         -5    1    3    3    0  503 -0.13912681708E+03  0.15038916369E+03 -0.20568876923E+02  0.20595713264E+03  0.47000000000E+01 0.  1.
         13    1    4    4    0    0 -0.42075821962E+02 -0.27345918358E+02  0.17640607513E+02  0.53191776414E+02  0.00000000000E+00 0. -1.
        -14    1    4    4    0    0  0.64344556534E+00  0.35931778546E+02 -0.39734913363E+01  0.36156539728E+02  0.00000000000E+00 0.  1.
</event>
<event>
12    1  0.9873238E-001  0.1801633E+03  0.7818608E-02  0.1168249E+00
         21   -1    0    0  501  502  0.00000000000E+00  0.00000000000E+00  0.34974846755E+03  0.34974846755E+03  0.00000000000E+00 0.  1.
         21   -1    0    0  502  503 -0.00000000000E+00 -0.00000000000E+00 -0.10536177877E+03  0.10536177877E+03  0.00000000000E+00 0.  1.
         -6    2    1    2    0  503  0.14568679270E+02  0.49064266302E+02  0.20389699453E+03  0.27045315850E+03  0.17015104443E+03 0.  0.
        -24    2    3    3    0    0  0.50860469362E+02  0.81344297879E+02  0.11331774716E+03  0.16756591672E+03  0.77677168360E+02 0.  0.
          6    2    1    2  501    0 -0.14568679270E+02 -0.49064266302E+02  0.40489694256E+02  0.18465708782E+03  0.17274048772E+03 0.  0.
         24    2    5    5    0    0  0.23832050630E+02 -0.15301724668E+01  0.75595724812E+02  0.11402685693E+03  0.81957930838E+02 0.  0.
          5    1    5    5  501    0 -0.38400729900E+02 -0.47534093835E+02 -0.35106030555E+02  0.70630230885E+02  0.47000000000E+01 0. -1.
        -11    1    6    6    0    0 -0.19970181361E+02  0.25640042968E+02  0.19752501912E+02  0.38031319709E+02  0.00000000000E+00 0.  1.
         12    1    6    6    0    0  0.43802231991E+02 -0.27170215435E+02  0.55843222900E+02  0.75995537225E+02  0.00000000000E+00 0. -1.
         -5    1    3    3    0  503 -0.36291790092E+02 -0.32280031578E+02  0.90579247368E+02  0.10288724178E+03  0.47000000000E+01 0.  1.
         11    1    4    4    0    0  0.35563677461E+02  0.78255307344E+02  0.44098343170E+02  0.96609172196E+02  0.00000000000E+00 0. -1.
        -12    1    4    4    0    0  0.15296791901E+02  0.30889905353E+01  0.69219403993E+02  0.70956744529E+02  0.00000000000E+00 0.  1.
</event>
<event>
12    1  0.9873238E-001  0.5114583E+03  0.7818608E-02  0.1010843E+00
         21   -1    0    0  501  502  0.00000000000E+00  0.00000000000E+00  0.22512734168E+04  0.22512734168E+04  0.00000000000E+00 0.  1.
         21   -1    0    0  502  503 -0.00000000000E+00 -0.00000000000E+00 -0.14853157964E+03  0.14853157964E+03  0.00000000000E+00 0.  1.
         -6    2    1    2    0  503  0.21980602847E+03 -0.42845019717E+03  0.16117696115E+04  0.16909733433E+04  0.17235227198E+03 0.  0.
        -24    2    3    3    0    0  0.13260810764E+03 -0.35854529340E+03  0.11062176523E+04  0.11731943882E+04  0.80795671271E+02 0.  0.
          6    2    1    2  501    0 -0.21980602847E+03  0.42845019717E+03  0.49097222571E+03  0.70883165317E+03  0.17176822906E+03 0.  0.
         24    2    5    5    0    0 -0.13240515868E+03  0.32037275435E+03  0.26492166850E+03  0.44342519112E+03  0.79199633219E+02 0.  0.
          5    1    5    5  501    0 -0.87400869786E+02  0.10807744283E+03  0.22605055721E+03  0.26540646206E+03  0.47000000000E+01 0. -1.
        -11    1    6    6    0    0  0.97594143742E+01  0.15966970407E+02  0.21730287990E+02  0.28677442861E+02  0.00000000000E+00 0.  1.
         12    1    6    6    0    0 -0.14216457306E+03  0.30440578394E+03  0.24319138051E+03  0.41474774826E+03  0.00000000000E+00 0. -1.
         -5    1    3    3    0  503  0.87197920831E+02 -0.69904903779E+02  0.50555195917E+03  0.51777895514E+03  0.47000000000E+01 0.  1.
         13    1    4    4    0    0  0.55140374976E+01 -0.12246201861E+03  0.34144471412E+03  0.36278346629E+03  0.00000000000E+00 0. -1.
        -14    1    4    4    0    0  0.12709407014E+03 -0.23608327478E+03  0.76477293821E+03  0.81041092188E+03  0.00000000000E+00 0.  1.
</event>
<event>
12    1  0.9873238E-001  0.2212648E+03  0.7818608E-02  0.1132962E+00
         21   -1    0    0  501  502  0.00000000000E+00  0.00000000000E+00  0.22165471276E+03  0.22165471276E+03  0.00000000000E+00 0. -1.
         21   -1    0    0  502  503 -0.00000000000E+00 -0.00000000000E+00 -0.25005764969E+03  0.25005764969E+03  0.00000000000E+00 0. -1.
         -6    2    1    2    0  503 -0.11034546053E+03  0.84448423346E+02  0.66509240240E+02  0.23095014059E+03  0.17206635793E+03 0.  0.
        -24    2    3    3    0    0 -0.14470294852E+03  0.49640871041E+02  0.52858786342E+02  0.17995575295E+03  0.78656610270E+02 0.  0.
          6    2    1    2  501    0  0.11034546053E+03 -0.84448423346E+02 -0.94912177164E+02  0.24076222186E+03  0.17219311611E+03 0.  0.
         24    2    5    5    0    0  0.61029068383E+01 -0.98983507828E+01 -0.77048303706E+02  0.11128082824E+03  0.79446578333E+02 0.  0.
          5    1    5    5  501    0  0.10424255370E+03 -0.74550072563E+02 -0.17863873458E+02  0.12948139363E+03  0.47000000000E+01 0. -1.
        -11    1    6    6    0    0  0.39544682856E+02  0.15514002451E+01 -0.20437440415E+02  0.44540742648E+02  0.00000000000E+00 0.  1.
         12    1    6    6    0    0 -0.33441776018E+02 -0.11449751028E+02 -0.56610863291E+02  0.66740085588E+02  0.00000000000E+00 0. -1.
         -5    1    3    3    0  503  0.34357487988E+02  0.34807552305E+02  0.13650453898E+02  0.50994387631E+02  0.47000000000E+01 0.  1.
         13    1    4    4    0    0 -0.10925556678E+01  0.13864533498E+02 -0.11999224856E+02  0.18368461126E+02  0.00000000000E+00 0. -1.
        -14    1    4    4    0    0 -0.14361039285E+03  0.35776337543E+02  0.64858011198E+02  0.16158729183E+03  0.00000000000E+00 0.  1.
</event>
<event>
12    1  0.9873238E-001  0.2132857E+03  0.7818608E-02  0.1139103E+00
         21   -1    0    0  503  502  0.00000000000E+00  0.00000000000E+00  0.12657758619E+03  0.12657758619E+03  0.00000000000E+00 0. -1.
         21   -1    0    0  501  503 -0.00000000000E+00 -0.00000000000E+00 -0.38687381989E+03  0.38687381989E+03  0.00000000000E+00 0. -1.
          6    2    1    2  501    0 -0.70373330257E+02  0.10370392897E+03 -0.19993944692E+03  0.29234665177E+03  0.17258004483E+03 0.  0.
         24    2    3    3    0    0 -0.10917072146E+03  0.96956011046E+02 -0.18777880511E+03  0.25086481033E+03  0.79709214700E+02 0.  0.
         -6    2    1    2    0  502  0.70373330257E+02 -0.10370392897E+03 -0.60356786779E+02  0.22110475431E+03  0.17186465656E+03 0.  0.
        -24    2    5    5    0    0  0.90566655055E+02 -0.12298738896E+03 -0.76838916207E+02  0.18834238587E+03  0.78996319027E+02 0.  0.
          5    1    3    3  501    0  0.38797391207E+02  0.67479179248E+01 -0.12160641808E+02  0.41481841449E+02  0.47000000000E+01 0. -1.
        -13    1    4    4    0    0 -0.41900526136E+02  0.36356235029E+01 -0.92057912342E+02  0.10121033086E+03  0.00000000000E+00 0.  1.
         14    1    4    4    0    0 -0.67270195329E+02  0.93320387543E+02 -0.95720892767E+02  0.14965447946E+03  0.00000000000E+00 0. -1.
         -5    1    5    5    0  502 -0.20193324798E+02  0.19283459989E+02  0.16482129428E+02  0.32762368443E+02  0.47000000000E+01 0.  1.
         13    1    6    6    0    0 -0.73825299133E+01 -0.79134653361E+01 -0.27213709712E+02  0.29286697967E+02  0.00000000000E+00 0. -1.
        -14    1    6    6    0    0  0.97949184968E+02 -0.11507392362E+03 -0.49625206495E+02  0.15905568790E+03  0.00000000000E+00 0.  1.
</event>
<event>
12    1  0.9873238E-001  0.1837237E+03  0.7818608E-02  0.1164935E+00
         21   -1    0    0  503  502  0.00000000000E+00  0.00000000000E+00  0.21546338454E+03  0.21546338454E+03  0.00000000000E+00 0. -1.
         21   -1    0    0  501  503 -0.00000000000E+00 -0.00000000000E+00 -0.27223631238E+03  0.27223631238E+03  0.00000000000E+00 0. -1.
          6    2    1    2  501    0  0.63200081138E+00 -0.52859484294E+02  0.13204976744E+03  0.22625549351E+03  0.17595420643E+03 0.  0.
         24    2    3    3    0    0 -0.66467351238E+02 -0.42862540328E+02  0.75420678062E+02  0.13776139372E+03  0.83873814610E+02 0.  0.
         -6    2    1    2    0  502 -0.63200081138E+00  0.52859484294E+02 -0.18882269528E+03  0.26144420341E+03  0.17292928249E+03 0.  0.
        -24    2    5    5    0    0 -0.23696925796E+02 -0.34535972512E+02 -0.88865687055E+02  0.12659817964E+03  0.79848049836E+02 0.  0.
          5    1    3    3  501    0  0.67099352049E+02 -0.99969439653E+01  0.56629089376E+02  0.88494099790E+02  0.47000000000E+01 0. -1.
        -13    1    4    4    0    0 -0.36947640923E+02 -0.63043459450E+02  0.27738139563E+02  0.78160158237E+02  0.00000000000E+00 0.  1.
         14    1    4    4    0    0 -0.29519710315E+02  0.20180919122E+02  0.47682538500E+02  0.59601235486E+02  0.00000000000E+00 0. -1.
         -5    1    5    5    0  502  0.23064924984E+02  0.87395456806E+02 -0.99957008222E+02  0.13484602377E+03  0.47000000000E+01 0.  1.
         13    1    6    6    0    0 -0.34829847704E+02 -0.98208973073E+01 -0.92426643063E+02  0.99258514310E+02  0.00000000000E+00 0. -1.
        -14    1    6    6    0    0  0.11132921909E+02 -0.24715075205E+02  0.35609560083E+01  0.27339665329E+02  0.00000000000E+00 0.  1.
</event>
<event>
12    1  0.9873238E-001  0.1855458E+03  0.7818608E-02  0.1162737E+00
         21   -1    0    0  501  502  0.00000000000E+00  0.00000000000E+00  0.14388403472E+04  0.14388403472E+04  0.00000000000E+00 0. -1.
         21   -1    0    0  502  503 -0.00000000000E+00 -0.00000000000E+00 -0.24129301036E+02  0.24129301036E+02  0.00000000000E+00 0. -1.
         -6    2    1    2    0  503 -0.30913181179E+02 -0.58230855227E+02  0.62595160162E+03  0.65287262853E+03  0.17343818566E+03 0.  0.
        -24    2    3    3    0    0 -0.82834450206E+02 -0.20261757970E+02  0.46922464745E+03  0.48339431521E+03  0.78906331962E+02 0.  0.
          6    2    1    2  501    0  0.30913181179E+02  0.58230855227E+02  0.78875944453E+03  0.81009701969E+03  0.17253771386E+03 0.  0.
         24    2    5    5    0    0 -0.22747263376E+02  0.61451586875E+02  0.25654065918E+03  0.27514959994E+03  0.74836201214E+02 0.  0.
          5    1    5    5  501    0  0.53660444555E+02 -0.32207316477E+01  0.53221878535E+03  0.53494741976E+03  0.47000000000E+01 0. -1.
        -11    1    6    6    0    0 -0.32723464730E+02 -0.42107783003E+01  0.89711241107E+02  0.95585891107E+02  0.00000000000E+00 0.  1.
         12    1    6    6    0    0  0.99762013543E+01  0.65662365175E+02  0.16682941807E+03  0.17956370883E+03  0.00000000000E+00 0. -1.
         -5    1    3    3    0  503  0.51921269027E+02 -0.37969097256E+02  0.15672695417E+03  0.16947831332E+03  0.47000000000E+01 0.  1.
         13    1    4    4    0    0 -0.22933076152E+02 -0.34260453473E+02  0.30949074452E+03  0.31222463963E+03  0.00000000000E+00 0. -1.
        -14    1    4    4    0    0 -0.59901374054E+02  0.13998695503E+02  0.15973390294E+03  0.17116967558E+03  0.00000000000E+00 0.  1.
</event>
<event>
12    1  0.9873238E-001  0.1751628E+03  0.7818608E-02  0.1172795E+00
         21   -1    0    0  501  502  0.00000000000E+00  0.00000000000E+00  0.12647172011E+04  0.12647172011E+04  0.00000000000E+00 0. -1.
         21   -1    0    0  502  503 -0.00000000000E+00 -0.00000000000E+00 -0.24146719483E+02  0.24146719483E+02  0.00000000000E+00 0. -1.
         -6    2    1    2    0  503 -0.31287395874E+02  0.10680397093E+02  0.60453130396E+03  0.62914592649E+03  0.17109508271E+03 0.  0.
        -24    2    3    3    0    0 -0.13125131004E+02  0.22811599166E+02  0.13031474039E+03  0.15440339301E+03  0.78522850751E+02 0.  0.
          6    2    1    2  501    0  0.31287395874E+02 -0.10680397093E+02  0.63603917765E+03  0.65971799408E+03  0.17201460459E+03 0.  0.
         24    2    5    5    0    0  0.67997686079E+02 -0.37266405986E+02  0.54834229388E+03  0.56088836949E+03  0.88904563657E+02 0.  0.
          5    1    5    5  501    0 -0.36710290206E+02  0.26586008893E+02  0.87696883768E+02  0.98829624599E+02  0.47000000000E+01 0. -1.
        -13    1    6    6    0    0  0.50441354588E+02  0.22823465620E+02  0.25876596519E+03  0.26462249635E+03  0.00000000000E+00 0.  1.
         14    1    6    6    0    0  0.17556331491E+02 -0.60089871606E+02  0.28957632869E+03  0.29626587313E+03  0.00000000000E+00 0. -1.
         -5    1    3    3    0  503 -0.18162264869E+02 -0.12131202073E+02  0.47421656357E+03  0.47474253348E+03  0.47000000000E+01 0.  1.
         13    1    4    4    0    0  0.27936358155E+02 -0.10596101179E+02  0.47591595365E+02  0.56193215040E+02  0.00000000000E+00 0. -1.
        -14    1    4    4    0    0 -0.41061489159E+02  0.33407700346E+02  0.82723145021E+02  0.98210177968E+02  0.00000000000E+00 0.  1.
</event>
<event>
12    1  0.9873238E-001  0.2534021E+03  0.7818608E-02  0.1113410E+00
         21   -1    0    0  501  502  0.00000000000E+00  0.00000000000E+00  0.18521900410E+03  0.18521900410E+03  0.00000000000E+00 0.  1.
         21   -1    0    0  502  503 -0.00000000000E+00 -0.00000000000E+00 -0.42784040727E+03  0.42784040727E+03  0.00000000000E+00 0.  1.
         -6    2    1    2    0  503  0.17403207524E+03 -0.63992386213E+02  0.29485085753E+02  0.24123341197E+03  0.15146616806E+03 0.  0.
        -24    2    3    3    0    0  0.92355177453E+02 -0.59368166340E+02  0.66339208228E+02  0.15138456454E+03  0.80388667466E+02 0.  0.
          6    2    1    2  501    0 -0.17403207524E+03  0.63992386213E+02 -0.27210648892E+03  0.37182599940E+03  0.17271492064E+03 0.  0.
         24    2    5    5    0    0 -0.18329919133E+03  0.12645552645E+02 -0.21139249130E+03  0.29163462664E+03  0.81274021288E+02 0.  0.
          5    1    5    5  501    0  0.92671160873E+01  0.51346833567E+02 -0.60713997619E+02  0.80191372758E+02  0.47000000000E+01 0. -1.
        -11    1    6    6    0    0 -0.17948200303E+02 -0.19419926919E+02 -0.58331180278E+02  0.64045281233E+02  0.00000000000E+00 0.  1.
         12    1    6    6    0    0 -0.16535099102E+03  0.32065479565E+02 -0.15306131103E+03  0.22758934541E+03  0.00000000000E+00 0. -1.
         -5    1    3    3    0  503  0.81676897785E+02 -0.46242198729E+01 -0.36854122475E+02  0.89848847431E+02  0.47000000000E+01 0.  1.
         11    1    4    4    0    0  0.72391788165E+02 -0.27646230076E+02  0.27121517231E+01  0.77538640678E+02  0.00000000000E+00 0. -1.
        -12    1    4    4    0    0  0.19963389287E+02 -0.31721936264E+02  0.63627056505E+02  0.73845923866E+02  0.00000000000E+00 0.  1.
</event>
<event>
12    1  0.9873238E-001  0.2351633E+03  0.7818608E-02  0.1123073E+00
         21   -1    0    0  501  502  0.00000000000E+00  0.00000000000E+00  0.68473374198E+02  0.68473374198E+02  0.00000000000E+00 0. -1.
         21   -1    0    0  502  503 -0.00000000000E+00 -0.00000000000E+00 -0.97046479414E+03  0.97046479414E+03  0.00000000000E+00 0. -1.
         -6    2    1    2    0  503 -0.15110880315E+03 -0.41118022307E+02 -0.66390686679E+03  0.70429503585E+03  0.17531288488E+03 0.  0.
        -24    2    3    3    0    0 -0.29718125138E+02  0.14264097947E+02 -0.39155095336E+03  0.40097555159E+03  0.79891253859E+02 0.  0.
          6    2    1    2  501    0  0.15110880315E+03  0.41118022307E+02 -0.23808455316E+03  0.33464313249E+03  0.17543434534E+03 0.  0.
         24    2    5    5    0    0  0.17862408308E+03  0.17374785029E+02 -0.21464568557E+03  0.29114252951E+03  0.80515563386E+02 0.  0.
          5    1    5    5  501    0 -0.27515279929E+02  0.23743237278E+02 -0.23438867583E+02  0.43500602979E+02  0.47000000000E+01 0. -1.
        -11    1    6    6    0    0  0.66997020997E+02  0.42366423040E+02 -0.63364846860E+02  0.10148210897E+03  0.00000000000E+00 0.  1.
         12    1    6    6    0    0  0.11162706208E+03 -0.24991638011E+02 -0.15128083871E+03  0.18966042054E+03  0.00000000000E+00 0. -1.
         -5    1    3    3    0  503 -0.12139067801E+03 -0.55382120254E+02 -0.27235591343E+03  0.30331948426E+03  0.47000000000E+01 0.  1.
         13    1    4    4    0    0 -0.47568233953E+02  0.52071497785E+01 -0.36280534504E+03  0.36594749580E+03  0.00000000000E+00 0. -1.
        -14    1    4    4    0    0  0.17850108815E+02  0.90569481687E+01 -0.28745608313E+02  0.35028055785E+02  0.00000000000E+00 0.  1.
</event>
<event>
12    1  0.9873238E-001  0.2405154E+03  0.7818608E-02  0.1119554E+00
         21   -1    0    0  501  502  0.00000000000E+00  0.00000000000E+00  0.47132307137E+03  0.47132307137E+03  0.00000000000E+00 0. -1.
         21   -1    0    0  502  503 -0.00000000000E+00 -0.00000000000E+00 -0.12450551619E+03  0.12450551619E+03  0.00000000000E+00 0. -1.
         -6    2    1    2    0  503 -0.21224658511E+02  0.16796285160E+03  0.13502651547E+03  0.27582568550E+03  0.17083806150E+03 0.  0.
        -24    2    3    3    0    0 -0.68912189912E+02  0.10170901615E+03  0.41391085764E+02  0.15151416126E+03  0.78420056091E+02 0.  0.
          6    2    1    2  501    0  0.21224658511E+02 -0.16796285160E+03  0.21179103972E+03  0.32000290206E+03  0.16995413257E+03 0.  0.
         24    2    5    5    0    0 -0.29295983293E+02 -0.10159036324E+03  0.57889455879E+02  0.14488742597E+03  0.80388559891E+02 0.  0.
          5    1    5    5  501    0  0.50520641804E+02 -0.66372488353E+02  0.15390158384E+03  0.17511547610E+03  0.47000000000E+01 0. -1.
        -11    1    6    6    0    0 -0.34073193449E+02 -0.94404387589E+02  0.75289088075E+02  0.12546560362E+03  0.00000000000E+00 0.  1.
         12    1    6    6    0    0  0.47772101561E+01 -0.71859756531E+01 -0.17399632195E+02  0.19421822353E+02  0.00000000000E+00 0. -1.
         -5    1    3    3    0  503  0.47687531402E+02  0.66253835444E+02  0.93635429701E+02  0.12431152423E+03  0.47000000000E+01 0.  1.
         13    1    4    4    0    0 -0.84442729358E+01  0.23525536932E+02 -0.22659051445E+02  0.33737060420E+02  0.00000000000E+00 0. -1.
        -14    1    4    4    0    0 -0.60467916977E+02  0.78183479219E+02  0.64050137210E+02  0.11777710084E+03  0.00000000000E+00 0.  1.
</event>
<event>
12    1  0.9873238E-001  0.1729782E+03  0.7818608E-02  0.1175954E+00
         21   -1    0    0  503  502  0.00000000000E+00  0.00000000000E+00  0.37414252703E+02  0.37414252703E+02  0.00000000000E+00 0. -1.
         21   -1    0    0  501  503 -0.00000000000E+00 -0.00000000000E+00 -0.78414854584E+03  0.78414854584E+03  0.00000000000E+00 0. -1.
          6    2    1    2  501    0  0.55167347485E+01 -0.20111211294E+02 -0.33456694285E+03  0.37456909774E+03  0.16712891597E+03 0.  0.
         24    2    3    3    0    0  0.29115034827E+02 -0.48294458364E+02 -0.11221766217E+03  0.14915288758E+03  0.80459556362E+02 0.  0.
         -6    2    1    2    0  502 -0.55167347485E+01  0.20111211294E+02 -0.41216735028E+03  0.44699370080E+03  0.17171647776E+03 0.  0.
        -24    2    5    5    0    0 -0.39142099876E+01  0.89204149053E+01 -0.42316981603E+03  0.43053325542E+03  0.78684788789E+02 0.  0.
          5    1    3    3  501    0 -0.23598300078E+02  0.28183247070E+02 -0.22234928068E+03  0.22541621016E+03  0.47000000000E+01 0. -1.
        -11    1    4    4    0    0  0.38681508674E+02  0.88031851666E+01 -0.37108555729E+02  0.54321267388E+02  0.00000000000E+00 0.  1.
         12    1    4    4    0    0 -0.95664738469E+01 -0.57097643530E+02 -0.75109106438E+02  0.94831620193E+02  0.00000000000E+00 0. -1.
         -5    1    5    5    0  502 -0.16025247609E+01  0.11190796388E+02  0.11002465746E+02  0.16460445374E+02  0.47000000000E+01 0.  1.
         11    1    6    6    0    0 -0.12001813980E+02 -0.33300684617E+02 -0.15937377444E+03  0.16325740141E+03  0.00000000000E+00 0. -1.
        -12    1    6    6    0    0  0.80876039921E+01  0.42221099522E+02 -0.26379604159E+03  0.26727585402E+03  0.00000000000E+00 0.  1.
</event>
<event>
12    1  0.9873238E-001  0.3264233E+03  0.7818608E-02  0.1072784E+00
         21   -1    0    0  501  502  0.00000000000E+00  0.00000000000E+00  0.36303835535E+03  0.36303835535E+03  0.00000000000E+00 0.  1.
         21   -1    0    0  502  503 -0.00000000000E+00 -0.00000000000E+00 -0.35597774044E+03  0.35597774044E+03  0.00000000000E+00 0. -1.
         -6    2    1    2    0  503 -0.27230522254E+03 -0.51166707372E+02 -0.14758903785E+03  0.35823829341E+03  0.17258037144E+03 0.  0.
        -24    2    3    3    0    0 -0.12895083315E+03  0.37307634496E+02 -0.77128074533E+02  0.17557733021E+03  0.82815952812E+02 0.  0.
          6    2    1    2  501    0  0.27230522254E+03  0.51166707372E+02  0.15464965277E+03  0.36077780238E+03  0.17168558886E+03 0.  0.
         24    2    5    5    0    0  0.47612706609E+02  0.40659896595E+02  0.43573571180E+02  0.10986525648E+03  0.79066563443E+02 0.  0.
          5    1    5    5  501    0  0.22469251593E+03  0.10506810776E+02  0.11107608159E+03  0.25091254590E+03  0.47000000000E+01 0. -1.
        -11    1    6    6    0    0  0.30846287971E+02 -0.16067583601E+02 -0.25233846550E+01  0.34871595812E+02  0.00000000000E+00 0.  1.
         12    1    6    6    0    0  0.16766418638E+02  0.56727480197E+02  0.46096955835E+02  0.74993660670E+02  0.00000000000E+00 0. -1.
         -5    1    3    3    0  503 -0.14335438939E+03 -0.88474341868E+02 -0.70460963314E+02  0.18266096320E+03  0.47000000000E+01 0.  1.
         13    1    4    4    0    0 -0.14880999353E+02 -0.35666091044E+01  0.16457967698E+02  0.22472862368E+02  0.00000000000E+00 0. -1.
        -14    1    4    4    0    0 -0.11406983379E+03  0.40874243601E+02 -0.93586042231E+02  0.15310446784E+03  0.00000000000E+00 0.  1.
</event>
<event>
12    1  0.9873238E-001  0.1748236E+03  0.7818608E-02  0.1172989E+00
         21   -1    0    0  501  502  0.00000000000E+00  0.00000000000E+00  0.54034979724E+03  0.54034979724E+03  0.00000000000E+00 0.  1.
         21   -1    0    0  502  503 -0.00000000000E+00 -0.00000000000E+00 -0.13761593095E+03  0.13761593095E+03  0.00000000000E+00 0.  1.
         -6    2    1    2    0  503 -0.25575455215E+02  0.20440351202E+02  0.46161064192E+03  0.49349411952E+03  0.17140638670E+03 0.  0.
        -24    2    3    3    0    0  0.35804112894E+01 -0.38505795852E+02  0.35408924616E+03  0.36736857353E+03  0.89916399594E+02 0.  0.
          6    2    1    2  501    0  0.25575455215E+02 -0.20440351202E+02 -0.58876775619E+02  0.18447160867E+03  0.17173056755E+03 0.  0.
         24    2    5    5    0    0  0.23247132522E+02 -0.79847828716E+02 -0.46181278095E+02  0.12349673574E+03  0.78756767148E+02 0.  0.
          5    1    5    5  501    0  0.23283226935E+01  0.59407477514E+02 -0.12695497524E+02  0.60974872928E+02  0.47000000000E+01 0. -1.
        -11    1    6    6    0    0  0.40381513632E+02 -0.30942966726E+02 -0.50264101994E+02  0.71516528036E+02  0.00000000000E+00 0.  1.
         12    1    6    6    0    0 -0.17134381110E+02 -0.48904861991E+02  0.40828238990E+01  0.51980207708E+02  0.00000000000E+00 0. -1.
         -5    1    3    3    0  503 -0.29155866505E+02  0.58946147055E+02  0.10752139576E+03  0.12612554599E+03  0.47000000000E+01 0.  1.
         13    1    4    4    0    0  0.45070868130E+02 -0.66614321004E+01  0.16828757673E+03  0.17434582390E+03  0.00000000000E+00 0. -1.
        -14    1    4    4    0    0 -0.41490456841E+02 -0.31844363752E+02  0.18580166943E+03  0.19302274963E+03  0.00000000000E+00 0.  1.
</event>
<event>
12    1  0.9873238E-001  0.2365072E+03  0.7818608E-02  0.1122179E+00
         21   -1    0    0  503  502  0.00000000000E+00  0.00000000000E+00  0.39455809473E+03  0.39455809473E+03  0.00000000000E+00 0.  1.
         21   -1    0    0  501  503 -0.00000000000E+00 -0.00000000000E+00 -0.14805885406E+03  0.14805885406E+03  0.00000000000E+00 0.  1.
          6    2    1    2  501    0  0.41695558144E+02 -0.15632224804E+03  0.17970585443E+03  0.29685888195E+03  0.17220870152E+03 0.  0.
         24    2    3    3    0    0 -0.22969055524E+02 -0.54584200694E+02  0.29293963786E+02  0.10404298690E+03  0.80372845736E+02 0.  0.
         -6    2    1    2    0  502 -0.41695558144E+02  0.15632224804E+03  0.66793386249E+02  0.24575806684E+03  0.17251233628E+03 0.  0.
        -24    2    5    5    0    0  0.99432494431E+01  0.51896003149E+01  0.21574653936E+02  0.79702451428E+02  0.75902667346E+02 0.  0.
          5    1    3    3  501    0  0.64664613668E+02 -0.10173804735E+03  0.15041189064E+03  0.19281589505E+03  0.47000000000E+01 0. -1.
        -11    1    4    4    0    0 -0.36722582034E+02 -0.60895092982E+02  0.44443287658E-01  0.71110915870E+02  0.00000000000E+00 0.  1.
         12    1    4    4    0    0  0.13753526511E+02  0.63108922884E+01  0.29249520499E+02  0.32932071030E+02  0.00000000000E+00 0. -1.
         -5    1    5    5    0  502 -0.51638807588E+02  0.15113264772E+03  0.45218732313E+02  0.16605561541E+03  0.47000000000E+01 0.  1.
         13    1    6    6    0    0  0.67837297585E+01  0.40567405602E+02  0.97886153670E+01  0.42279432086E+02  0.00000000000E+00 0. -1.
        -14    1    6    6    0    0  0.31595196846E+01 -0.35377805287E+02  0.11786038569E+02  0.37423019342E+02  0.00000000000E+00 0.  1.
</event>
<event>
12    1  0.9873238E-001  0.2765915E+03  0.7818608E-02  0.1097908E+00
         21   -1    0    0  503  502  0.00000000000E+00  0.00000000000E+00  0.45869921508E+03  0.45869921508E+03  0.00000000000E+00 0. -1.
         21   -1    0    0  501  503 -0.00000000000E+00 -0.00000000000E+00 -0.21917165831E+03  0.21917165831E+03  0.00000000000E+00 0. -1.
          6    2    1    2  501    0  0.68816523875E+02 -0.20305864098E+03  0.28739151320E+03  0.39716848134E+03  0.17082270070E+03 0.  0.
         24    2    3    3    0    0 -0.69768922241E+01 -0.16980204981E+03  0.16582745514E+03  0.25002721251E+03  0.78316339112E+02 0.  0.
         -6    2    1    2    0  502 -0.68816523875E+02  0.20305864098E+03 -0.47863956436E+02  0.28070239204E+03  0.17474080502E+03 0.  0.
        -24    2    5    5    0    0 -0.16130637733E+01  0.50379844501E+02 -0.64348767226E+02  0.11300934230E+03  0.78035997449E+02 0.  0.
          5    1    3    3  501    0  0.75793416099E+02 -0.33256591167E+02  0.12156405806E+03  0.14714126883E+03  0.47000000000E+01 0. -1.
        -11    1    4    4    0    0  0.31063005877E+02 -0.52054509633E+02  0.35203131058E+02  0.70098807005E+02  0.00000000000E+00 0.  1.
         12    1    4    4    0    0 -0.38039898101E+02 -0.11774754018E+03  0.13062432408E+03  0.17992840551E+03  0.00000000000E+00 0. -1.
         -5    1    5    5    0  502 -0.67203460102E+02  0.15267879648E+03  0.16484810790E+02  0.16769304974E+03  0.47000000000E+01 0.  1.
         11    1    6    6    0    0 -0.29455479892E+02  0.26909635375E+02 -0.65366389352E+02  0.76580145133E+02  0.00000000000E+00 0. -1.
        -12    1    6    6    0    0  0.27842416118E+02  0.23470209126E+02  0.10176221261E+01  0.36429197171E+02  0.00000000000E+00 0.  1.
</event>
<event>
12    1  0.9873238E-001  0.1889586E+03  0.7818608E-02  0.1159441E+00
         21   -1    0    0  503  502  0.00000000000E+00  0.00000000000E+00  0.66055991241E+03  0.66055991241E+03  0.00000000000E+00 0.  1.
         21   -1    0    0  501  503 -0.00000000000E+00 -0.00000000000E+00 -0.73582426677E+02  0.73582426677E+02  0.00000000000E+00 0.  1.
          6    2    1    2  501    0  0.66195679475E+02 -0.40445060550E+02  0.48291020202E+03  0.51856302147E+03  0.17230111178E+03 0.  0.
         24    2    3    3    0    0 -0.28598617106E+02 -0.35310961800E+02  0.25864047800E+03  0.27498281549E+03  0.81583742446E+02 0.  0.
         -6    2    1    2    0  502 -0.66195679475E+02  0.40445060550E+02  0.10406728371E+03  0.21557931761E+03  0.17212429154E+03 0.  0.
        -24    2    5    5    0    0 -0.23405017902E+02  0.83948553930E+02  0.99922043182E+02  0.15423709990E+03  0.78800467659E+02 0.  0.
          5    1    3    3  501    0  0.94794296581E+02 -0.51340987506E+01  0.22426972402E+03  0.24358020598E+03  0.47000000000E+01 0. -1.
        -11    1    4    4    0    0 -0.49629341133E+02 -0.43186174652E+02  0.22587067433E+03  0.23525662309E+03  0.00000000000E+00 0.  1.
         12    1    4    4    0    0  0.21030724027E+02  0.78752128524E+01  0.32769803670E+02  0.39726192407E+02  0.00000000000E+00 0. -1.
         -5    1    5    5    0  502 -0.42790661573E+02 -0.43503493380E+02  0.41452405266E+01  0.61342217706E+02  0.47000000000E+01 0.  1.
         11    1    6    6    0    0  0.15739453252E+01  0.21622313971E+02 -0.11201816340E+02  0.24402509188E+02  0.00000000000E+00 0. -1.
        -12    1    6    6    0    0 -0.24978963228E+02  0.62326239960E+02  0.11112385952E+03  0.12983459072E+03  0.00000000000E+00 0.  1.
</event>
<event>
12    1  0.9873238E-001  0.2492755E+03  0.7818608E-02  0.1113918E+00
         21   -1    0    0  503  502  0.00000000000E+00  0.00000000000E+00  0.15031269514E+04  0.15031269514E+04  0.00000000000E+00 0.  1.
         21   -1    0    0  501  503 -0.00000000000E+00 -0.00000000000E+00 -0.42304039725E+02  0.42304039725E+02  0.00000000000E+00 0.  1.
          6    2    1    2  501    0 -0.15991133972E+03 -0.79862430925E+02  0.60299915414E+03  0.65212261762E+03  0.17235511038E+03 0.  0.
         24    2    3    3    0    0 -0.17909767603E+03 -0.95635460023E+02  0.57079989324E+03  0.61118624809E+03  0.80709311474E+02 0.  0.
         -6    2    1    2    0  502  0.15991133972E+03  0.79862430925E+02  0.85782375752E+03  0.89330837349E+03  0.17374868844E+03 0.  0.
        -24    2    5    5    0    0  0.17608451919E+03  0.48609249262E+02  0.80850724190E+03  0.83254208505E+03  0.77934242554E+02 0.  0.
          5    1    3    3  501    0  0.19186336308E+02  0.15773029098E+02  0.32199260905E+02  0.40936369534E+02  0.47000000000E+01 0. -1.
        -13    1    4    4    0    0 -0.47326399434E+02 -0.51456294593E+02  0.28411308397E+03  0.29258807703E+03  0.00000000000E+00 0.  1.
         14    1    4    4    0    0 -0.13177127660E+03 -0.44179165429E+02  0.28668680927E+03  0.31859817106E+03  0.00000000000E+00 0. -1.
         -5    1    5    5    0  502 -0.16173179463E+02  0.31253181664E+02  0.49316515623E+02  0.60766288444E+02  0.47000000000E+01 0.  1.
         11    1    6    6    0    0  0.46129732271E+02 -0.16705235339E+02  0.28563562947E+03  0.28981844301E+03  0.00000000000E+00 0. -1.
        -12    1    6    6    0    0  0.12995478692E+03  0.65314484601E+02  0.52287161243E+03  0.54272364203E+03  0.00000000000E+00 0.  1.
</event>
<event>
12    1  0.9873238E-001  0.8304820E+03  0.7818608E-02  0.9517260E-01
         21   -1    0    0  503  502  0.00000000000E+00  0.00000000000E+00  0.48502364141E+03  0.48502364141E+03  0.00000000000E+00 0. -1.
         21   -1    0    0  501  503 -0.00000000000E+00 -0.00000000000E+00 -0.16543537400E+04  0.16543537400E+04  0.00000000000E+00 0.  1.
          6    2    1    2  501    0  0.40149068519E+03  0.70593883739E+03 -0.18260334329E+03  0.85032013973E+03  0.17365467640E+03 0.  0.
         24    2    3    3    0    0  0.28136819613E+03  0.43336248762E+03 -0.56943285937E+02  0.52699395947E+03  0.86654417293E+02 0.  0.
         -6    2    1    2    0  502 -0.40149068519E+03 -0.70593883739E+03 -0.98672675526E+03  0.12890572416E+04  0.16880305162E+03 0.  0.
        -24    2    5    5    0    0 -0.25370469305E+03 -0.37929179480E+03 -0.64116123991E+03  0.79108474711E+03  0.80616404452E+02 0.  0.
          5    1    3    3  501    0  0.12012248905E+03  0.27257634977E+03 -0.12566005735E+03  0.32332618026E+03  0.47000000000E+01 0. -1.
        -13    1    4    4    0    0  0.29008684273E+02  0.95726998113E+02 -0.30795447764E+02  0.10465907287E+03  0.00000000000E+00 0.  1.
         14    1    4    4    0    0  0.25235951186E+03  0.33763548950E+03 -0.26147838173E+02  0.42233488660E+03  0.00000000000E+00 0. -1.
         -5    1    5    5    0  502 -0.14778599214E+03 -0.32664704259E+03 -0.34556551535E+03  0.49797249452E+03  0.47000000000E+01 0.  1.
         13    1    6    6    0    0 -0.14575473903E+03 -0.23213492341E+03 -0.31693258348E+03  0.41901948533E+03  0.00000000000E+00 0. -1.
        -14    1    6    6    0    0 -0.10794995402E+03 -0.14715687138E+03 -0.32422865643E+03  0.37206526177E+03  0.00000000000E+00 0.  1.
</event>
<event>
12    1  0.9873238E-001  0.5575505E+03  0.7818608E-02  0.9997656E-01
         21   -1    0    0  503  502  0.00000000000E+00  0.00000000000E+00  0.30680143136E+03  0.30680143136E+03  0.00000000000E+00 0. -1.
         21   -1    0    0  501  503 -0.00000000000E+00 -0.00000000000E+00 -0.10384497170E+04  0.10384497170E+04  0.00000000000E+00 0.  1.
          6    2    1    2  501    0 -0.51962977615E+02 -0.52792548237E+03 -0.26070564281E+03  0.61542269987E+03  0.17138320028E+03 0.  0.
         24    2    3    3    0    0  0.79270430251E+01 -0.20119358437E+03 -0.15518652193E+03  0.26685861305E+03  0.81172448341E+02 0.  0.
         -6    2    1    2    0  502  0.51962977615E+02  0.52792548237E+03 -0.47094264278E+03  0.72982844844E+03  0.17163078216E+03 0.  0.
        -24    2    5    5    0    0  0.29776436097E+01  0.17331263635E+03 -0.10649352137E+03  0.21895166720E+03  0.80949528706E+02 0.  0.
          5    1    3    3  501    0 -0.59890020640E+02 -0.32673189800E+03 -0.10551912088E+03  0.34856408681E+03  0.47000000000E+01 0. -1.
        -11    1    4    4    0    0  0.25543557237E+02 -0.16618570054E+02 -0.32371158650E+02  0.44458318674E+02  0.00000000000E+00 0.  1.
         12    1    4    4    0    0 -0.17616514212E+02 -0.18457501431E+03 -0.12281536328E+03  0.22240029438E+03  0.00000000000E+00 0. -1.
         -5    1    5    5    0  502  0.48985334005E+02  0.35461284602E+03 -0.36444912141E+03  0.51087678124E+03  0.47000000000E+01 0.  1.
         13    1    6    6    0    0 -0.17081636687E+02  0.16201989203E+03 -0.10866122073E+03  0.19583025460E+03  0.00000000000E+00 0. -1.
        -14    1    6    6    0    0  0.20059280296E+02  0.11292744312E+02  0.21676993605E+01  0.23121412600E+02  0.00000000000E+00 0.  1.
</event>
<event>
12    1  0.9873238E-001  0.1767309E+03  0.7818608E-02  0.1171014E+00
         21   -1    0    0  501  502  0.00000000000E+00  0.00000000000E+00  0.43498303828E+03  0.43498303828E+03  0.00000000000E+00 0.  1.
         21   -1    0    0  502  503 -0.00000000000E+00 -0.00000000000E+00 -0.71790217667E+02  0.71790217667E+02  0.00000000000E+00 0.  1.
         -6    2    1    2    0  503  0.39985132296E+02 -0.11163728942E+02  0.18154907021E+03  0.25334029544E+03  0.17174923799E+03 0.  0.
        -24    2    3    3    0    0  0.50085890988E+02 -0.10901133341E+02  0.23297177248E+02  0.94696524966E+02  0.76139622988E+02 0.  0.
          6    2    1    2  501    0 -0.39985132296E+02  0.11163728942E+02  0.18164375040E+03  0.25343296051E+03  0.17178583691E+03 0.  0.
         24    2    5    5    0    0 -0.10567929238E+02  0.70186028944E+02  0.10434049832E+03  0.15171331386E+03  0.84215379972E+02 0.  0.
          5    1    5    5  501    0 -0.29417203058E+02 -0.59022300002E+02  0.77303252081E+02  0.10171964665E+03  0.47000000000E+01 0. -1.
        -11    1    6    6    0    0  0.25119073819E+02  0.37529426729E+02  0.90911434785E+02  0.10151017050E+03  0.00000000000E+00 0.  1.
         12    1    6    6    0    0 -0.35687003057E+02  0.32656602215E+02  0.13429063537E+02  0.50203143357E+02  0.00000000000E+00 0. -1.
         -5    1    3    3    0  503 -0.10100758692E+02 -0.26259560091E+00  0.15825189296E+03  0.15864377047E+03  0.47000000000E+01 0.  1.
         11    1    4    4    0    0  0.22971708706E+02  0.94386826011E+01 -0.25296063637E+02  0.35449668062E+02  0.00000000000E+00 0. -1.
        -12    1    4    4    0    0  0.27114182281E+02 -0.20339815942E+02  0.48593240885E+02  0.59246856905E+02  0.00000000000E+00 0.  1.
</event>
<event>
12    1  0.9873238E-001  0.1937820E+03  0.7818608E-02  0.1155463E+00
         21   -1    0    0  501  502  0.00000000000E+00  0.00000000000E+00  0.57828106269E+03  0.57828106269E+03  0.00000000000E+00 0. -1.
         21   -1    0    0  502  503 -0.00000000000E+00 -0.00000000000E+00 -0.66321038616E+02  0.66321038616E+02  0.00000000000E+00 0. -1.
         -6    2    1    2    0  503  0.60305932762E+02 -0.61114827594E+02  0.31008550766E+03  0.36477220857E+03  0.17185434068E+03 0.  0.
        -24    2    3    3    0    0  0.86675788677E+02 -0.47078510522E+02  0.12755080184E+03  0.17974951720E+03  0.79445600166E+02 0.  0.
          6    2    1    2  501    0 -0.60305932762E+02  0.61114827594E+02  0.20187451642E+03  0.27982989273E+03  0.17372282754E+03 0.  0.
         24    2    5    5    0    0 -0.71897300341E+02  0.28456802890E+02  0.47099244532E+02  0.12115292160E+03  0.80502671696E+02 0.  0.
          5    1    5    5  501    0  0.11591367579E+02  0.32658024704E+02  0.15477527189E+03  0.15867697113E+03  0.47000000000E+01 0. -1.
        -11    1    6    6    0    0  0.66403964254E+01 -0.18814857688E+02  0.88144537810E+01  0.21812572750E+02  0.00000000000E+00 0.  1.
         12    1    6    6    0    0 -0.78537696767E+02  0.47271660578E+02  0.38284790751E+02  0.99340348852E+02  0.00000000000E+00 0. -1.
         -5    1    3    3    0  503 -0.26369855915E+02 -0.14036317073E+02  0.18253470581E+03  0.18502269138E+03  0.47000000000E+01 0.  1.
         11    1    4    4    0    0  0.76445343600E+02 -0.46846963217E+02  0.52281278682E+02  0.10378757450E+03  0.00000000000E+00 0. -1.
        -12    1    4    4    0    0  0.10230445078E+02 -0.23154730424E+00  0.75269523163E+02  0.75961942694E+02  0.00000000000E+00 0.  1.
</event>
<event>
12    1  0.9873238E-001  0.3602126E+03  0.7818608E-02  0.1058581E+00
         21   -1    0    0  503  502  0.00000000000E+00  0.00000000000E+00  0.19077925991E+04  0.19077925991E+04  0.00000000000E+00 0. -1.
         21   -1    0    0  501  503 -0.00000000000E+00 -0.00000000000E+00 -0.70590900285E+02  0.70590900285E+02  0.00000000000E+00 0. -1.
          6    2    1    2  501    0  0.29530499811E+03  0.11267693008E+03  0.11142695364E+04  0.11710464234E+04  0.17277729493E+03 0.  0.
         24    2    3    3    0    0  0.14771316756E+03  0.89420753457E+02  0.81040341357E+03  0.83240072541E+03  0.79511155958E+02 0.  0.
         -6    2    1    2    0  502 -0.29530499811E+03 -0.11267693008E+03  0.72293216247E+03  0.80733707599E+03  0.17105879181E+03 0.  0.
        -24    2    5    5    0    0 -0.17697141509E+03 -0.57163373432E+02  0.28251008935E+03  0.34790450821E+03  0.81480446914E+02 0.  0.
          5    1    3    3  501    0  0.14759183054E+03  0.23256176625E+02  0.30386612282E+03  0.33864569803E+03  0.47000000000E+01 0. -1.
        -13    1    4    4    0    0  0.11630281028E+03  0.44058105335E+02  0.41713149282E+03  0.43527708718E+03  0.00000000000E+00 0.  1.
         14    1    4    4    0    0  0.31410357278E+02  0.45362648121E+02  0.39327192076E+03  0.39712363823E+03  0.00000000000E+00 0. -1.
         -5    1    5    5    0  502 -0.11833358301E+03 -0.55513556650E+02  0.44042207312E+03  0.45943256778E+03  0.47000000000E+01 0.  1.
         13    1    6    6    0    0 -0.56678144974E+02 -0.39945121764E+02  0.49778909236E+02  0.85357862410E+02  0.00000000000E+00 0. -1.
        -14    1    6    6    0    0 -0.12029327012E+03 -0.17218251668E+02  0.23273118011E+03  0.26254664580E+03  0.00000000000E+00 0.  1.
</event>
<event>
12    1  0.9873238E-001  0.1789568E+03  0.7818608E-02  0.1168939E+00
         21   -1    0    0  501  502  0.00000000000E+00  0.00000000000E+00  0.65639880760E+02  0.65639880760E+02  0.00000000000E+00 0. -1.
         21   -1    0    0  502  503 -0.00000000000E+00 -0.00000000000E+00 -0.51667004914E+03  0.51667004914E+03  0.00000000000E+00 0. -1.
         -6    2    1    2    0  503 -0.18914338378E+01 -0.46926964923E+02 -0.29613139561E+03  0.34600483431E+03  0.17268417513E+03 0.  0.
        -24    2    3    3    0    0 -0.38076252087E+02 -0.67442530125E+02 -0.11423233543E+03  0.15935117755E+03  0.79658492869E+02 0.  0.
          6    2    1    2  501    0  0.18914338378E+01  0.46926964923E+02 -0.15489877277E+03  0.23630509559E+03  0.17216489432E+03 0.  0.
         24    2    5    5    0    0 -0.27264584949E+01  0.72450703029E+02 -0.17081505071E+03  0.20551217368E+03  0.88322896443E+02 0.  0.
          5    1    5    5  501    0  0.46178923327E+01 -0.25523738106E+02  0.15916277938E+02  0.30792921912E+02  0.47000000000E+01 0. -1.
        -11    1    6    6    0    0  0.36998670593E+01  0.72666457776E+02 -0.59444373861E+02  0.93956035919E+02  0.00000000000E+00 0.  1.
         12    1    6    6    0    0 -0.64263255542E+01 -0.21575474694E+00 -0.11137067685E+03  0.11155613776E+03  0.00000000000E+00 0. -1.
         -5    1    3    3    0  503  0.36184818249E+02  0.20515565202E+02 -0.18189906017E+03  0.18665365675E+03  0.47000000000E+01 0.  1.
         13    1    4    4    0    0  0.22225640612E+02 -0.36666527822E+02 -0.51950970163E+02  0.67359607065E+02  0.00000000000E+00 0. -1.
        -14    1    4    4    0    0 -0.60301892698E+02 -0.30776002303E+02 -0.62281365269E+02  0.91991570486E+02  0.00000000000E+00 0.  1.
</event>
<event>
12    1  0.9873238E-001  0.1782657E+03  0.7818608E-02  0.1169698E+00
         21   -1    0    0  503  502  0.00000000000E+00  0.00000000000E+00  0.37094119621E+03  0.37094119621E+03  0.00000000000E+00 0.  1.
         21   -1    0    0  501  503 -0.00000000000E+00 -0.00000000000E+00 -0.11192421731E+03  0.11192421731E+03  0.00000000000E+00 0.  1.
          6    2    1    2  501    0 -0.36849640050E+02  0.28362689182E+02  0.11450223154E+02  0.17779497984E+03  0.17122385679E+03 0.  0.
         24    2    3    3    0    0  0.58911455137E+01  0.64690637159E+02 -0.27750914365E+02  0.10919969036E+03  0.83275896850E+02 0.  0.
         -6    2    1    2    0  502  0.36849640050E+02 -0.28362689182E+02  0.24756675575E+03  0.30507043369E+03  0.17209396518E+03 0.  0.
        -24    2    5    5    0    0  0.12020003463E+02  0.47344139575E+02  0.16940538699E+03  0.19335953745E+03  0.79396332068E+02 0.  0.
          5    1    3    3  501    0 -0.42740785563E+02 -0.36327947977E+02  0.39201137519E+02  0.68595289471E+02  0.47000000000E+01 0. -1.
        -11    1    4    4    0    0  0.48875718877E+01 -0.16771397219E+02 -0.21197665600E+02  0.27468329955E+02  0.00000000000E+00 0.  1.
         12    1    4    4    0    0  0.10035736259E+01  0.81462034378E+02 -0.65532487650E+01  0.81731360410E+02  0.00000000000E+00 0. -1.
         -5    1    5    5    0  502  0.24829636587E+02 -0.75706828757E+02  0.78161368754E+02  0.11171089624E+03  0.47000000000E+01 0.  1.
         11    1    6    6    0    0 -0.50371315235E+01 -0.72069818534E+01 -0.47999249864E+01  0.10017612555E+02  0.00000000000E+00 0. -1.
        -12    1    6    6    0    0  0.17057134987E+02  0.54551121429E+02  0.17420531198E+03  0.18334192490E+03  0.00000000000E+00 0.  1.
</event>
<event>
12    1  0.9873238E-001  0.4886936E+03  0.7818608E-02  0.1016792E+00
         21   -1    0    0  501  502  0.00000000000E+00  0.00000000000E+00  0.33561678624E+03  0.33561678624E+03  0.00000000000E+00 0. -1.
         21   -1    0    0  502  503 -0.00000000000E+00 -0.00000000000E+00 -0.88738291415E+03  0.88738291415E+03  0.00000000000E+00 0. -1.
         -6    2    1    2    0  503 -0.14809497227E+03 -0.43292141788E+03 -0.54830385302E+03  0.73429388577E+03  0.17087223465E+03 0.  0.
        -24    2    3    3    0    0 -0.12553215243E+03 -0.33092160059E+03 -0.31978941300E+03  0.48298932381E+03  0.75802316681E+02 0.  0.
          6    2    1    2  501    0  0.14809497227E+03  0.43292141788E+03 -0.34622748857E+01  0.48870581462E+03  0.17166336542E+03 0.  0.
         24    2    5    5    0    0  0.47781701517E+02  0.13918854822E+03 -0.51638784261E+02  0.17456441801E+03  0.78419570523E+02 0.  0.
          5    1    5    5  501    0  0.10031327075E+03  0.29373286966E+03  0.48176509376E+02  0.31414139661E+03  0.47000000000E+01 0. -1.
        -11    1    6    6    0    0 -0.14140692300E+02  0.60894038322E+02 -0.74869167506E+00  0.62518826133E+02  0.00000000000E+00 0.  1.
         12    1    6    6    0    0  0.61922393818E+02  0.78294509896E+02 -0.50890092586E+02  0.11204559188E+03  0.00000000000E+00 0. -1.
         -5    1    3    3    0  503 -0.22562819831E+02 -0.10199981729E+03 -0.22851444002E+03  0.25130456197E+03  0.47000000000E+01 0.  1.
         11    1    4    4    0    0 -0.78925102736E+02 -0.19299272701E+03 -0.13779385834E+03  0.24992501259E+03  0.00000000000E+00 0. -1.
        -12    1    4    4    0    0 -0.46607049698E+02 -0.13792887358E+03 -0.18199555466E+03  0.23306431122E+03  0.00000000000E+00 0.  1.
</event>
<event>
12    1  0.9873238E-001  0.2247745E+03  0.7818608E-02  0.1130468E+00
         21   -1    0    0  501  502  0.00000000000E+00  0.00000000000E+00  0.13738732439E+03  0.13738732439E+03  0.00000000000E+00 0.  1.
         21   -1    0    0  502  503 -0.00000000000E+00 -0.00000000000E+00 -0.75995996838E+03  0.75995996838E+03  0.00000000000E+00 0.  1.
         -6    2    1    2    0  503 -0.13276880622E+03  0.56343690742E+02  0.11567771725E+02  0.22454891814E+03  0.17171556686E+03 0.  0.
        -24    2    3    3    0    0 -0.11633680509E+03  0.99146010839E+02  0.30862333251E+02  0.17458473726E+03  0.78505816252E+02 0.  0.
          6    2    1    2  501    0  0.13276880622E+03 -0.56343690742E+02 -0.63414041571E+03  0.67279837463E+03  0.17239901006E+03 0.  0.
         24    2    5    5    0    0  0.16202712293E+03 -0.46159570807E+02 -0.58895599922E+03  0.61781213190E+03  0.80244418896E+02 0.  0.
          5    1    5    5  501    0 -0.29258316708E+02 -0.10184119935E+02 -0.45184416490E+02  0.54986242725E+02  0.47000000000E+01 0. -1.
        -11    1    6    6    0    0  0.24071400545E+02 -0.26121391146E+02 -0.23018499102E+03  0.23290961657E+03  0.00000000000E+00 0.  1.
         12    1    6    6    0    0  0.13795572239E+03 -0.20038179661E+02 -0.35877100820E+03  0.38490251533E+03  0.00000000000E+00 0. -1.
         -5    1    3    3    0  503 -0.16432001131E+02 -0.42802320097E+02 -0.19294561526E+02  0.49964180883E+02  0.47000000000E+01 0.  1.
         13    1    4    4    0    0 -0.95197840922E+02  0.30650883549E+02  0.21470032872E+02  0.10228913867E+03  0.00000000000E+00 0. -1.
        -14    1    4    4    0    0 -0.21138964171E+02  0.68495127290E+02  0.93923003791E+01  0.72295598587E+02  0.00000000000E+00 0.  1.
</event>
<event>
12    1  0.9873238E-001  0.1844722E+03  0.7818608E-02  0.1163622E+00
         21   -1    0    0  503  502  0.00000000000E+00  0.00000000000E+00  0.43538034795E+03  0.43538034795E+03  0.00000000000E+00 0. -1.
         21   -1    0    0  501  503 -0.00000000000E+00 -0.00000000000E+00 -0.36566242804E+03  0.36566242804E+03  0.00000000000E+00 0. -1.
          6    2    1    2  501    0  0.36315113191E+02  0.55718496772E+02 -0.32036617274E+03  0.36968161157E+03  0.17206589136E+03 0.  0.
         24    2    3    3    0    0  0.48889171461E+01  0.10971724221E+03 -0.22188930498E+03  0.25296291645E+03  0.51899890979E+02 0.  0.
         -6    2    1    2    0  502 -0.36315113191E+02 -0.55718496772E+02  0.39008409264E+03  0.43136116442E+03  0.17170764838E+03 0.  0.
        -24    2    5    5    0    0  0.52872066668E+01  0.33244668772E+02  0.14172015940E+03  0.16424334177E+03  0.75882205954E+02 0.  0.
          5    1    3    3  501    0  0.31426196045E+02 -0.53998745443E+02 -0.98476867758E+02  0.11671869512E+03  0.47000000000E+01 0. -1.
        -11    1    4    4    0    0 -0.21181302465E+02  0.75732133132E+02 -0.14400017450E+03  0.16407331842E+03  0.00000000000E+00 0.  1.
         12    1    4    4    0    0  0.26070219611E+02  0.33985109082E+02 -0.77889130481E+02  0.88889598025E+02  0.00000000000E+00 0. -1.
         -5    1    5    5    0  502 -0.41602319858E+02 -0.88963165544E+02  0.24836393324E+03  0.26711782265E+03  0.47000000000E+01 0.  1.
         11    1    6    6    0    0  0.39249310671E+02  0.87645935981E+01  0.57196528523E+02  0.69919735155E+02  0.00000000000E+00 0. -1.
        -12    1    6    6    0    0 -0.33962104004E+02  0.24480075174E+02  0.84523630878E+02  0.94323606620E+02  0.00000000000E+00 0.  1.
</event>
<event>
12    1  0.9873238E-001  0.1813935E+03  0.7818608E-02  0.1166645E+00
         21   -1    0    0  503  502  0.00000000000E+00  0.00000000000E+00  0.23182838606E+03  0.23182838606E+03  0.00000000000E+00 0. -1.
         21   -1    0    0  501  503 -0.00000000000E+00 -0.00000000000E+00 -0.21298830464E+03  0.21298830464E+03  0.00000000000E+00 0. -1.
          6    2    1    2  501    0 -0.58466074219E+02  0.93180142863E+01 -0.11956823062E+03  0.21725598092E+03  0.17145988524E+03 0.  0.
         24    2    3    3    0    0 -0.74739795227E+02 -0.48087947403E+02 -0.64043941349E+02  0.13561459967E+03  0.79945015759E+02 0.  0.
         -6    2    1    2    0  502  0.58466074219E+02 -0.93180142863E+01  0.13840831204E+03  0.22756070977E+03  0.17065142415E+03 0.  0.
        -24    2    5    5    0    0  0.37152359678E+02 -0.70434932182E+02  0.10812135759E+03  0.15594407979E+03  0.79290292925E+02 0.  0.
          5    1    3    3  501    0  0.16273721008E+02  0.57405961690E+02 -0.55524289274E+02  0.81641381249E+02  0.47000000000E+01 0. -1.
        -11    1    4    4    0    0 -0.82313999109E+02 -0.13259080314E+02 -0.38951780230E+02  0.92025207651E+02  0.00000000000E+00 0.  1.
         12    1    4    4    0    0  0.75742038821E+01 -0.34828867089E+02 -0.25092161120E+02  0.43589392022E+02  0.00000000000E+00 0. -1.
         -5    1    5    5    0  502  0.21313714541E+02  0.61116917896E+02  0.30286954453E+02  0.71616629987E+02  0.47000000000E+01 0.  1.
         13    1    6    6    0    0 -0.64496747798E+01  0.11854655158E+02  0.35090508210E+02  0.37596208853E+02  0.00000000000E+00 0. -1.
        -14    1    6    6    0    0  0.43602034457E+02 -0.82289587339E+02  0.73030849381E+02  0.11834787093E+03  0.00000000000E+00 0.  1.
</event>
<event>
12    1  0.9873238E-001  0.1811125E+03  0.7818608E-02  0.1166758E+00
         21   -1    0    0  501  502  0.00000000000E+00  0.00000000000E+00  0.11741980917E+03  0.11741980917E+03  0.00000000000E+00 0.  1.
         21   -1    0    0  502  503 -0.00000000000E+00 -0.00000000000E+00 -0.29231064796E+03  0.29231064796E+03  0.00000000000E+00 0.  1.
         -6    2    1    2    0  503  0.55767327881E+02 -0.88521376032E+01 -0.44001139993E+02  0.18627159594E+03  0.17196700828E+03 0.  0.
        -24    2    3    3    0    0  0.31879250819E+02  0.57526932541E+02 -0.51030531377E+02  0.11522004056E+03  0.79661207714E+02 0.  0.
          6    2    1    2  501    0 -0.55767327881E+02  0.88521376032E+01 -0.13088969879E+03  0.22345886119E+03  0.17208542702E+03 0.  0.
         24    2    5    5    0    0  0.52065569421E+01  0.35079666030E+02  0.43886740392E+01  0.72700690483E+02  0.63312232095E+02 0.  0.
          5    1    5    5  501    0 -0.60973884824E+02 -0.26227528427E+02 -0.13527837283E+03  0.15075817070E+03  0.47000000000E+01 0. -1.
        -11    1    6    6    0    0 -0.44208967578E+01  0.28584891360E+02 -0.26792604865E+02  0.39426945325E+02  0.00000000000E+00 0.  1.
         12    1    6    6    0    0  0.96274536999E+01  0.64947746704E+01  0.31181278904E+02  0.33273745158E+02  0.00000000000E+00 0. -1.
         -5    1    3    3    0  503  0.23888077062E+02 -0.66379070144E+02  0.70293913836E+01  0.71051555382E+02  0.47000000000E+01 0.  1.
         11    1    4    4    0    0  0.57881194106E+02  0.36058767955E+02 -0.42793603430E+02  0.80509377542E+02  0.00000000000E+00 0. -1.
        -12    1    4    4    0    0 -0.26001943287E+02  0.21468164585E+02 -0.82369279472E+01  0.34710663022E+02  0.00000000000E+00 0.  1.
</event>
<event>
12    1  0.9873238E-001  0.4393386E+03  0.7818608E-02  0.1030960E+00
         21   -1    0    0  501  502  0.00000000000E+00  0.00000000000E+00  0.57411130158E+03  0.57411130158E+03  0.00000000000E+00 0.  1.
         21   -1    0    0  502  503 -0.00000000000E+00 -0.00000000000E+00 -0.34847671392E+03  0.34847671392E+03  0.00000000000E+00 0.  1.
         -6    2    1    2    0  503  0.11472779542E+03 -0.38748392379E+03  0.19976981111E+03  0.48262446252E+03  0.17237208636E+03 0.  0.
        -24    2    3    3    0    0  0.13867304202E+03 -0.35368909329E+03  0.14602469558E+03  0.41460907569E+03  0.79065078426E+02 0.  0.
          6    2    1    2  501    0 -0.11472779542E+03  0.38748392379E+03  0.25864776552E+02  0.43996355298E+03  0.17202523958E+03 0.  0.
         24    2    5    5    0    0 -0.14388796469E+03  0.35975713631E+03  0.36897717421E+02  0.39797657881E+03  0.83035969468E+02 0.  0.
          5    1    5    5  501    0  0.29160169269E+02  0.27726787478E+02 -0.11032940869E+02  0.41986974169E+02  0.47000000000E+01 0. -1.
        -11    1    6    6    0    0 -0.27478064651E+02  0.11451799730E+03 -0.22970882908E+02  0.11998782106E+03  0.00000000000E+00 0.  1.
         12    1    6    6    0    0 -0.11640990004E+03  0.24523913901E+03  0.59868600328E+02  0.27798875775E+03  0.00000000000E+00 0. -1.
         -5    1    3    3    0  503 -0.23945246598E+02 -0.33794830498E+02  0.53745115529E+02  0.68015386835E+02  0.47000000000E+01 0.  1.
         13    1    4    4    0    0  0.16818453659E+02 -0.13837929378E+03  0.36816864239E+02  0.14417756699E+03  0.00000000000E+00 0. -1.
        -14    1    4    4    0    0  0.12185458836E+03 -0.21530979951E+03  0.10920783134E+03  0.27043150870E+03  0.00000000000E+00 0.  1.
</event>
<event>
12    1  0.9873238E-001  0.2845162E+03  0.7818608E-02  0.1093371E+00
         21   -1    0    0  503  502  0.00000000000E+00  0.00000000000E+00  0.21065764019E+03  0.21065764019E+03  0.00000000000E+00 0. -1.
         21   -1    0    0  501  503 -0.00000000000E+00 -0.00000000000E+00 -0.42489817968E+03  0.42489817968E+03  0.00000000000E+00 0. -1.
          6    2    1    2  501    0  0.13142509401E+03  0.18170710276E+03 -0.72072348651E+01  0.28368617936E+03  0.17359688245E+03 0.  0.
         24    2    3    3    0    0  0.13134900803E+03  0.89711737440E+02  0.37011939795E+02  0.18150703062E+03  0.79209600002E+02 0.  0.
         -6    2    1    2    0  502 -0.13142509401E+03 -0.18170710276E+03 -0.20703330463E+03  0.35186964051E+03  0.17509833853E+03 0.  0.
        -24    2    5    5    0    0 -0.35916773278E+02 -0.10386940312E+03 -0.36195129296E+02  0.14118428514E+03  0.80895287130E+02 0.  0.
          5    1    3    3  501    0  0.76085976773E-01  0.91995365322E+02 -0.44219174660E+02  0.10217914874E+03  0.47000000000E+01 0. -1.
        -13    1    4    4    0    0 -0.30119610980E+01  0.18044168935E+02 -0.11593806555E+02  0.21658261533E+02  0.00000000000E+00 0.  1.
         14    1    4    4    0    0  0.13436096913E+03  0.71667568505E+02  0.48605746350E+02  0.15984876909E+03  0.00000000000E+00 0. -1.
         -5    1    5    5    0  502 -0.95508320730E+02 -0.77837699644E+02 -0.17083817533E+03  0.21068535537E+03  0.47000000000E+01 0.  1.
         11    1    6    6    0    0  0.19240437196E+02 -0.30748520902E+02 -0.33772992912E+02  0.49560881867E+02  0.00000000000E+00 0. -1.
        -12    1    6    6    0    0 -0.55157210474E+02 -0.73120882216E+02 -0.24221363834E+01  0.91623403277E+02  0.00000000000E+00 0.  1.
</event>
<event>
12    1  0.9873238E-001  0.1898172E+03  0.7818608E-02  0.1158868E+00
         21   -1    0    0  501  502  0.00000000000E+00  0.00000000000E+00  0.18177062424E+03  0.18177062424E+03  0.00000000000E+00 0.  1.
         21   -1    0    0  502  503 -0.00000000000E+00 -0.00000000000E+00 -0.20487445215E+03  0.20487445215E+03  0.00000000000E+00 0.  1.
         -6    2    1    2    0  503 -0.75585214277E+02  0.24454333617E+02  0.26121873035E+02  0.19054881249E+03  0.17121728488E+03 0.  0.
        -24    2    3    3    0    0 -0.91990027651E+02  0.19965094104E+02 -0.33734948334E+02  0.12814528504E+03  0.80139860058E+02 0.  0.
          6    2    1    2  501    0  0.75585214277E+02 -0.24454333617E+02 -0.49225700947E+02  0.19609626390E+03  0.17239325982E+03 0.  0.
         24    2    5    5    0    0 -0.22034623492E+02 -0.35318144528E+02 -0.35298528017E+02  0.96780045390E+02  0.79921806412E+02 0.  0.
          5    1    5    5  501    0  0.97619837769E+02  0.10863810911E+02 -0.13927172930E+02  0.99316218512E+02  0.47000000000E+01 0. -1.
        -13    1    6    6    0    0  0.95513243853E+01 -0.38938182317E+02  0.10110403686E+02  0.41347673482E+02  0.00000000000E+00 0.  1.
         14    1    6    6    0    0 -0.31585947878E+02  0.36200377893E+01 -0.45408931703E+02  0.55432371908E+02  0.00000000000E+00 0. -1.
         -5    1    3    3    0  503  0.16404813374E+02  0.44892395132E+01  0.59856821369E+02  0.62403527445E+02  0.47000000000E+01 0.  1.
         13    1    4    4    0    0  0.68894921040E+01 -0.15170865437E+02  0.30680750322E+01  0.16942058433E+02  0.00000000000E+00 0. -1.
        -14    1    4    4    0    0 -0.98879519755E+02  0.35135959540E+02 -0.36803023366E+02  0.11120322661E+03  0.00000000000E+00 0.  1.
</event>
<event>
12    1  0.9873238E-001  0.1981903E+03  0.7818608E-02  0.1151301E+00
         21   -1    0    0  503  502  0.00000000000E+00  0.00000000000E+00  0.40296368042E+03  0.40296368042E+03  0.00000000000E+00 0.  1.
         21   -1    0    0  501  503 -0.00000000000E+00 -0.00000000000E+00 -0.10104848752E+03  0.10104848752E+03  0.00000000000E+00 0.  1.
          6    2    1    2  501    0  0.70427646451E+02 -0.67746215281E+02  0.10313578396E+03  0.22331185935E+03  0.17228346851E+03 0.  0.
         24    2    3    3    0    0  0.10677785909E+03 -0.29031805174E+02  0.10033636539E+03  0.16992581011E+03  0.81012578141E+02 0.  0.
         -6    2    1    2    0  502 -0.70427646451E+02  0.67746215281E+02  0.19877940893E+03  0.28070030860E+03  0.17242333590E+03 0.  0.
        -24    2    5    5    0    0 -0.10503779697E+03  0.40337689621E+02  0.95130332875E+02  0.16794255602E+03  0.80590656365E+02 0.  0.
          5    1    3    3  501    0 -0.36350212640E+02 -0.38714410107E+02  0.27994185700E+01  0.53386049238E+02  0.47000000000E+01 0. -1.
        -13    1    4    4    0    0  0.29148216609E+02  0.88291964798E+01 -0.78886183288E+01  0.31461143353E+02  0.00000000000E+00 0.  1.
         14    1    4    4    0    0  0.77629642482E+02 -0.37861001654E+02  0.10822498372E+03  0.13846466675E+03  0.00000000000E+00 0. -1.
         -5    1    5    5    0  502  0.34610150523E+02  0.27408525661E+02  0.10364907606E+03  0.11275775257E+03  0.47000000000E+01 0.  1.
         11    1    6    6    0    0 -0.24820685311E+02 -0.11042715222E+01  0.69914561413E+02  0.74197922697E+02  0.00000000000E+00 0. -1.
        -12    1    6    6    0    0 -0.80217111663E+02  0.41441961143E+02  0.25215771461E+02  0.93744633325E+02  0.00000000000E+00 0.  1.
</event>
<event>
12    1  0.9873238E-001  0.2508039E+03  0.7818608E-02  0.1112816E+00
         21   -1    0    0  503  502  0.00000000000E+00  0.00000000000E+00  0.25918321358E+03  0.25918321358E+03  0.00000000000E+00 0. -1.
         21   -1    0    0  501  503 -0.00000000000E+00 -0.00000000000E+00 -0.28496539542E+03  0.28496539542E+03  0.00000000000E+00 0. -1.
          6    2    1    2  501    0 -0.18136645161E+03 -0.63511291558E-01  0.92029508359E+02  0.26715542504E+03  0.17323047341E+03 0.  0.
         24    2    3    3    0    0 -0.13093606183E+03 -0.64397793917E+02  0.43678619965E+02  0.17206587492E+03  0.80046956968E+02 0.  0.
         -6    2    1    2    0  502  0.18136645161E+03  0.63511291558E-01 -0.11781169020E+03  0.27699318396E+03  0.17306598686E+03 0.  0.
        -24    2    5    5    0    0  0.17974891662E+03  0.20570699306E+02 -0.46920287773E+02  0.20302804273E+03  0.79284588873E+02 0.  0.
          5    1    3    3  501    0 -0.50430389779E+02  0.64334282625E+02  0.48350888394E+02  0.95089550123E+02  0.47000000000E+01 0. -1.
        -13    1    4    4    0    0 -0.10064430328E+03 -0.55399809638E+02  0.66815536641E+02  0.13290120627E+03  0.00000000000E+00 0.  1.
         14    1    4    4    0    0 -0.30291758554E+02 -0.89979842783E+01 -0.23136916676E+02  0.39164668653E+02  0.00000000000E+00 0. -1.
         -5    1    5    5    0  502  0.16175349924E+01 -0.20507188014E+02 -0.70891402427E+02  0.73965141234E+02  0.47000000000E+01 0.  1.
         13    1    6    6    0    0  0.77700407746E+02  0.36699475064E+02  0.74970804953E+01  0.86257817326E+02  0.00000000000E+00 0. -1.
        -14    1    6    6    0    0  0.10204850887E+03 -0.16128775759E+02 -0.54417368269E+02  0.11677022540E+03  0.00000000000E+00 0.  1.
</event>
<event>
12    1  0.1088982E+000  0.2166297E+03  0.7818608E-02  0.1136465E+00
         21   -1    0    0  503  502  0.00000000000E+00  0.00000000000E+00  0.62523872689E+03  0.62523872689E+03  0.00000000000E+00 0.  1.
         21   -1    0    0  501  503 -0.00000000000E+00 -0.00000000000E+00 -0.14990122005E+03  0.14990122005E+03  0.00000000000E+00 0.  1.
          6    2    1    2  501    0  0.93711050862E+02  0.93168354634E+02  0.51173781987E+03  0.55570137224E+03  0.17165755288E+03 0.  0.
         24    2    3    3    0    0  0.57630356170E+02  0.10811088088E+02  0.12113923894E+03  0.15485991068E+03  0.76607696387E+02 0.  0.
         -6    2    1    2    0  502 -0.93711050862E+02 -0.93168354634E+02 -0.36400313025E+02  0.21943857470E+03  0.17136569645E+03 0.  0.
        -24    2    5    5    0    0 -0.96197507254E+02 -0.12367987343E+03 -0.66404788336E+01  0.17648659016E+03  0.80949052202E+02 0.  0.
          5    1    3    3  501    0  0.36080694692E+02  0.82357266546E+02  0.39059858093E+03  0.40084146156E+03  0.47000000000E+01 0. -1.
        -11    1    4    4    0    0 -0.45344427081E+01  0.33703188162E+01 -0.88953883773E+01  0.10537938792E+02  0.00000000000E+00 0.  1.
         12    1    4    4    0    0  0.62164798878E+02  0.74407692716E+01  0.13003462732E+03  0.14432197189E+03  0.00000000000E+00 0. -1.
         -5    1    5    5    0  502  0.24864563920E+01  0.30511518800E+02 -0.29759834191E+02  0.42951984540E+02  0.47000000000E+01 0.  1.
         13    1    6    6    0    0 -0.40241350458E+02 -0.65143579511E+02 -0.42889971510E+02  0.87764468290E+02  0.00000000000E+00 0. -1.
        -14    1    6    6    0    0 -0.55956156797E+02 -0.58536293923E+02  0.36249492676E+02  0.88722121869E+02  0.00000000000E+00 0.  1.
</event>
<event>
12    1  0.9873238E-001  0.3854984E+03  0.7818608E-02  0.1049009E+00
         21   -1    0    0  503  502  0.00000000000E+00  0.00000000000E+00  0.24200886959E+04  0.24200886959E+04  0.00000000000E+00 0. -1.
         21   -1    0    0  501  503 -0.00000000000E+00 -0.00000000000E+00 -0.10297564666E+03  0.10297564666E+03  0.00000000000E+00 0.  1.
          6    2    1    2  501    0 -0.34200052532E+03  0.39146737568E+02  0.35464619013E+03  0.52309303597E+03  0.17133469503E+03 0.  0.
         24    2    3    3    0    0 -0.12526679356E+03 -0.16241420329E+02  0.80234578701E+02  0.16902357809E+03  0.78586443018E+02 0.  0.
         -6    2    1    2    0  502  0.34200052532E+03 -0.39146737568E+02  0.19624668591E+04  0.19999713066E+04  0.17352875179E+03 0.  0.
        -24    2    5    5    0    0  0.23640131658E+03  0.36606607005E+02  0.11700298675E+04  0.11969344221E+04  0.80352311275E+02 0.  0.
          5    1    3    3  501    0 -0.21673373176E+03  0.55388157897E+02  0.27441161143E+03  0.35406945788E+03  0.47000000000E+01 0. -1.
        -11    1    4    4    0    0  0.95301135078E+01 -0.40208991529E+01 -0.21606584009E+01  0.10566888766E+02  0.00000000000E+00 0.  1.
         12    1    4    4    0    0 -0.13479690707E+03 -0.12220521176E+02  0.82395237102E+02  0.15845668932E+03  0.00000000000E+00 0. -1.
         -5    1    5    5    0  502  0.10559920875E+03 -0.75753344573E+02  0.79243699160E+03  0.80303688443E+03  0.47000000000E+01 0.  1.
         13    1    6    6    0    0  0.15509569934E+03  0.14470020514E+02  0.56555598087E+03  0.58661539780E+03  0.00000000000E+00 0. -1.
        -14    1    6    6    0    0  0.81305617242E+02  0.22136586490E+02  0.60447388663E+03  0.61031902434E+03  0.00000000000E+00 0.  1.
</event>
<event>
12    1  0.9873238E-001  0.1765984E+03  0.7818608E-02  0.1172475E+00
         21   -1    0    0  503  502  0.00000000000E+00  0.00000000000E+00  0.10777218866E+04  0.10777218866E+04  0.00000000000E+00 0. -1.
         21   -1    0    0  501  503 -0.00000000000E+00 -0.00000000000E+00 -0.28146729533E+02  0.28146729533E+02  0.00000000000E+00 0. -1.
          6    2    1    2  501    0  0.16029033875E+02 -0.29259245915E+02  0.56073616399E+03  0.58788777717E+03  0.17341845213E+03 0.  0.
         24    2    3    3    0    0  0.60940450270E+02 -0.21580860759E+02  0.19801640575E+03  0.22228730405E+03  0.77599462424E+02 0.  0.
         -6    2    1    2    0  502 -0.16029033875E+02  0.29259245915E+02  0.48883899305E+03  0.51798083894E+03  0.16801057997E+03 0.  0.
        -24    2    5    5    0    0  0.46582614243E+01  0.53614853512E+02  0.46957870543E+03  0.48037487548E+03  0.85788160502E+02 0.  0.
          5    1    3    3  501    0 -0.44911416395E+02 -0.76783851555E+01  0.36271975825E+03  0.36560047312E+03  0.47000000000E+01 0. -1.
        -11    1    4    4    0    0 -0.43579858804E+01 -0.32605228969E+02  0.46782333131E+02  0.57189856533E+02  0.00000000000E+00 0.  1.
         12    1    4    4    0    0  0.65298436150E+02  0.11024368210E+02  0.15123407262E+03  0.16509744752E+03  0.00000000000E+00 0. -1.
         -5    1    5    5    0  502 -0.20687295299E+02 -0.24355607597E+02  0.19260287614E+02  0.37605963452E+02  0.47000000000E+01 0.  1.
         13    1    6    6    0    0 -0.26147037660E+02  0.18287835232E+02  0.58529759701E+02  0.66662172681E+02  0.00000000000E+00 0. -1.
        -14    1    6    6    0    0  0.30805299085E+02  0.35327018280E+02  0.41104894573E+03  0.41371270280E+03  0.00000000000E+00 0.  1.
</event>
<event>
12    1  0.9873238E-001  0.9695487E+03  0.7818608E-02  0.9343535E-01
         21   -1    0    0  501  502  0.00000000000E+00  0.00000000000E+00  0.10657507137E+04  0.10657507137E+04  0.00000000000E+00 0.  1.
         21   -1    0    0  502  503 -0.00000000000E+00 -0.00000000000E+00 -0.93938179413E+03  0.93938179413E+03  0.00000000000E+00 0.  1.
         -6    2    1    2    0  503  0.82912924426E+03 -0.46513880345E+03 -0.19086065612E+03  0.98815614014E+03  0.19030332914E+03 0.  0.
        -24    2    3    3    0    0  0.47790619725E+03 -0.32541512507E+03 -0.55938472440E+02  0.58677549698E+03  0.82988156805E+02 0.  0.
          6    2    1    2  501    0 -0.82912924426E+03  0.46513880345E+03  0.31722957565E+03  0.10169763677E+04  0.17261783955E+03 0.  0.
         24    2    5    5    0    0 -0.45347353515E+03  0.18000740982E+03  0.14966152513E+03  0.51645837099E+03  0.79308021003E+02 0.  0.
          5    1    5    5  501    0 -0.37565570912E+03  0.28513139363E+03  0.16756805052E+03  0.50051799666E+03  0.47000000000E+01 0. -1.
        -11    1    6    6    0    0 -0.17342947329E+03  0.28887497541E+02  0.45226204427E+02  0.18154249995E+03  0.00000000000E+00 0.  1.
         12    1    6    6    0    0 -0.28004406186E+03  0.15111991228E+03  0.10443532070E+03  0.33491587104E+03  0.00000000000E+00 0. -1.
         -5    1    3    3    0  503  0.35122304702E+03 -0.13972367838E+03 -0.13492218368E+03  0.40138064316E+03  0.47000000000E+01 0.  1.
         11    1    4    4    0    0  0.34626953511E+03 -0.18921407035E+03 -0.42654815194E+02  0.39689291834E+03  0.00000000000E+00 0. -1.
        -12    1    4    4    0    0  0.13163666214E+03 -0.13620105471E+03 -0.13283657247E+02  0.18988257865E+03  0.00000000000E+00 0.  1.
</event>
<event>
12    1  0.9873238E-001  0.2394222E+03  0.7818608E-02  0.1120452E+00
         21   -1    0    0  503  502  0.00000000000E+00  0.00000000000E+00  0.43314794931E+02  0.43314794931E+02  0.00000000000E+00 0.  1.
         21   -1    0    0  501  503 -0.00000000000E+00 -0.00000000000E+00 -0.18603769307E+04  0.18603769307E+04  0.00000000000E+00 0. -1.
          6    2    1    2  501    0 -0.12209646377E+03  0.11154425769E+03 -0.14263707549E+04  0.14463251707E+04  0.17312799046E+03 0.  0.
         24    2    3    3    0    0 -0.80509966874E+02  0.14934841214E+03 -0.10420163437E+04  0.10578551021E+04  0.66877151955E+02 0.  0.
         -6    2    1    2    0  502  0.12209646377E+03 -0.11154425769E+03 -0.39069138090E+03  0.45736655496E+03  0.17086469090E+03 0.  0.
        -24    2    5    5    0    0  0.80239962994E+02 -0.14100378220E+03 -0.33995353390E+03  0.38514294829E+03  0.80288026201E+02 0.  0.
          5    1    3    3  501    0 -0.41586496900E+02 -0.37804154447E+02 -0.38435441117E+03  0.38847006861E+03  0.47000000000E+01 0. -1.
        -11    1    4    4    0    0 -0.38193209469E+02  0.11811308327E+03 -0.59899312042E+03  0.61172067155E+03  0.00000000000E+00 0.  1.
         12    1    4    4    0    0 -0.42316757406E+02  0.31235328861E+02 -0.44302322327E+03  0.44613443051E+03  0.00000000000E+00 0. -1.
         -5    1    5    5    0  502  0.41856500781E+02  0.29459524509E+02 -0.50737846994E+02  0.72223606664E+02  0.47000000000E+01 0.  1.
         11    1    6    6    0    0 -0.30489898869E+01 -0.56171120408E+02 -0.15873940341E+03  0.16841225995E+03  0.00000000000E+00 0. -1.
        -12    1    6    6    0    0  0.83288952880E+02 -0.84832661790E+02 -0.18121413049E+03  0.21673068834E+03  0.00000000000E+00 0.  1.
</event>
<event>
12    1  0.9873238E-001  0.2449059E+03  0.7818608E-02  0.1116676E+00
         21   -1    0    0  503  502  0.00000000000E+00  0.00000000000E+00  0.20346803794E+04  0.20346803794E+04  0.00000000000E+00 0. -1.
         21   -1    0    0  501  503 -0.00000000000E+00 -0.00000000000E+00 -0.40106547739E+02  0.40106547739E+02  0.00000000000E+00 0. -1.
          6    2    1    2  501    0  0.12266065934E+03 -0.12282155952E+03  0.15343448145E+04  0.15537673273E+04  0.17276609837E+03 0.  0.
         24    2    3    3    0    0  0.13741727239E+03 -0.14467891104E+03  0.12658617501E+04  0.12839511912E+04  0.79430453118E+02 0.  0.
         -6    2    1    2    0  502 -0.12266065934E+03  0.12282155952E+03  0.46022901713E+03  0.52101959982E+03  0.17181356858E+03 0.  0.
        -24    2    5    5    0    0 -0.65323079787E+02  0.14860582821E+03  0.34572480713E+03  0.39030720313E+03  0.80394487464E+02 0.  0.
          5    1    3    3  501    0 -0.14756613052E+02  0.21857351516E+02  0.26848306443E+03  0.26981613615E+03  0.47000000000E+01 0. -1.
        -11    1    4    4    0    0  0.98864146292E+02 -0.10832886380E+03  0.11024725287E+04  0.11121847592E+04  0.00000000000E+00 0.  1.
         12    1    4    4    0    0  0.38553126103E+02 -0.36350047238E+02  0.16338922141E+03  0.17176643193E+03  0.00000000000E+00 0. -1.
         -5    1    5    5    0  502 -0.57337579555E+02 -0.25784268687E+02  0.11450421000E+03  0.13071239669E+03  0.47000000000E+01 0.  1.
         11    1    6    6    0    0 -0.22760258955E+01  0.36939789125E+02  0.24373921587E+02  0.44314967765E+02  0.00000000000E+00 0. -1.
        -12    1    6    6    0    0 -0.63047053892E+02  0.11166603909E+03  0.32135088555E+03  0.34599223536E+03  0.00000000000E+00 0.  1.
</event>
<event>
12    1  0.9873238E-001  0.2675092E+03  0.7818608E-02  0.1102762E+00
         21   -1    0    0  503  502  0.00000000000E+00  0.00000000000E+00  0.46356824897E+03  0.46356824897E+03  0.00000000000E+00 0.  1.
         21   -1    0    0  501  503 -0.00000000000E+00 -0.00000000000E+00 -0.18035802494E+03  0.18035802494E+03  0.00000000000E+00 0.  1.
          6    2    1    2  501    0 -0.15711163467E+03  0.12963135383E+03  0.26434931333E+03  0.37608738361E+03  0.17341512912E+03 0.  0.
         24    2    3    3    0    0 -0.16383837806E+03  0.14194853336E+03  0.27467612241E+03  0.35804036242E+03  0.75852018095E+02 0.  0.
         -6    2    1    2    0  502  0.15711163467E+03 -0.12963135383E+03  0.18860910705E+02  0.26783889029E+03  0.17289761003E+03 0.  0.
        -24    2    5    5    0    0  0.15294692748E+03 -0.64606180016E+02 -0.28750250417E+02  0.18700244629E+03  0.81096343305E+02 0.  0.
          5    1    3    3  501    0  0.67267433905E+01 -0.12317179529E+02 -0.10326809079E+02  0.18047021193E+02  0.47000000000E+01 0. -1.
        -11    1    4    4    0    0 -0.49621817417E+02  0.30629653597E+01  0.64549799503E+02  0.81476273457E+02  0.00000000000E+00 0.  1.
         12    1    4    4    0    0 -0.11421656065E+03  0.13888556800E+03  0.21012632290E+03  0.27656408896E+03  0.00000000000E+00 0. -1.
         -5    1    5    5    0  502  0.41647071981E+01 -0.65025173817E+02  0.47611161122E+02  0.80836444005E+02  0.47000000000E+01 0.  1.
         11    1    6    6    0    0  0.73247959901E+02 -0.54533389558E+02  0.19382629597E+02  0.93353310260E+02  0.00000000000E+00 0. -1.
        -12    1    6    6    0    0  0.79698967575E+02 -0.10072790459E+02 -0.48132880014E+02  0.93649136027E+02  0.00000000000E+00 0.  1.
</event>
<event>
12    1  0.9873238E-001  0.1899320E+03  0.7818608E-02  0.1158542E+00
         21   -1    0    0  503  502  0.00000000000E+00  0.00000000000E+00  0.95213645896E+02  0.95213645896E+02  0.00000000000E+00 0. -1.
         21   -1    0    0  501  503 -0.00000000000E+00 -0.00000000000E+00 -0.75378827201E+03  0.75378827201E+03  0.00000000000E+00 0. -1.
          6    2    1    2  501    0 -0.80239734514E+02  0.15830582089E+02 -0.29802397883E+02  0.19216961622E+03  0.17132412602E+03 0.  0.
         24    2    3    3    0    0 -0.11394425538E+03  0.33340582630E+02  0.56236454953E+00  0.14331571522E+03  0.80275713569E+02 0.  0.
         -6    2    1    2    0  502  0.80239734514E+02 -0.15830582089E+02 -0.62877222823E+03  0.65683230168E+03  0.17142092993E+03 0.  0.
        -24    2    5    5    0    0  0.10840649312E+03 -0.23194584246E+02 -0.60037705756E+03  0.61589368256E+03  0.81132364026E+02 0.  0.
          5    1    3    3  501    0  0.33704520868E+02 -0.17510000542E+02 -0.30364762432E+02  0.48853901006E+02  0.47000000000E+01 0. -1.
        -11    1    4    4    0    0 -0.67897606042E+02  0.48062864572E+02  0.27945856286E+02  0.87755881516E+02  0.00000000000E+00 0.  1.
         12    1    4    4    0    0 -0.46046649340E+02 -0.14722281942E+02 -0.27383491736E+02  0.55559833699E+02  0.00000000000E+00 0. -1.
         -5    1    5    5    0  502 -0.28166758602E+02  0.73640021576E+01 -0.28395170670E+02  0.40938619118E+02  0.47000000000E+01 0.  1.
         13    1    6    6    0    0  0.68807280325E+02  0.34753862774E+01 -0.17867215131E+03  0.19149479833E+03  0.00000000000E+00 0. -1.
        -14    1    6    6    0    0  0.39599212791E+02 -0.26669970524E+02 -0.42170490625E+03  0.42439888423E+03  0.00000000000E+00 0.  1.
</event>
<event>
12    1  0.9873238E-001  0.1865633E+03  0.7818608E-02  0.1161864E+00
         21   -1    0    0  501  502  0.00000000000E+00  0.00000000000E+00  0.75579798892E+02  0.75579798892E+02  0.00000000000E+00 0.  1.
         21   -1    0    0  502  503 -0.00000000000E+00 -0.00000000000E+00 -0.47441102910E+03  0.47441102910E+03  0.00000000000E+00 0.  1.
         -6    2    1    2    0  503 -0.65911033531E+02 -0.27748581447E+02 -0.25163171025E+03  0.31324809288E+03  0.17231251253E+03 0.  0.
        -24    2    3    3    0    0  0.13403371290E-02  0.12785265101E+02 -0.21060484607E+03  0.22553989868E+03  0.79689282229E+02 0.  0.
          6    2    1    2  501    0  0.65911033531E+02  0.27748581447E+02 -0.14719951996E+03  0.23674273512E+03  0.17107067499E+03 0.  0.
         24    2    5    5    0    0  0.11003153467E+03  0.16664513602E+02 -0.12107404997E+03  0.18407295856E+03  0.82699962882E+02 0.  0.
          5    1    5    5  501    0 -0.44120501139E+02  0.11084067845E+02 -0.26125469995E+02  0.52669776563E+02  0.47000000000E+01 0. -1.
        -11    1    6    6    0    0  0.70620893337E+01  0.69627754710E+00 -0.65682715309E+02  0.66064945308E+02  0.00000000000E+00 0.  1.
         12    1    6    6    0    0  0.10296944534E+03  0.15968236055E+02 -0.55391334658E+02  0.11800801325E+03  0.00000000000E+00 0. -1.
         -5    1    3    3    0  503 -0.65912373868E+02 -0.40533846548E+02 -0.41026864175E+02  0.87708194195E+02  0.47000000000E+01 0.  1.
         11    1    4    4    0    0 -0.24867443288E+02 -0.10212028250E+02 -0.17239306566E+03  0.17447648651E+03  0.00000000000E+00 0. -1.
        -12    1    4    4    0    0  0.24868783625E+02  0.22997293351E+02 -0.38211780417E+02  0.51063412176E+02  0.00000000000E+00 0.  1.
</event>
<event>
12    1  0.9873238E-001  0.2104891E+03  0.7818608E-02  0.1141205E+00
         21   -1    0    0  503  502  0.00000000000E+00  0.00000000000E+00  0.74201895907E+02  0.74201895907E+02  0.00000000000E+00 0. -1.
         21   -1    0    0  501  503 -0.00000000000E+00 -0.00000000000E+00 -0.66590558376E+03  0.66590558376E+03  0.00000000000E+00 0. -1.
          6    2    1    2  501    0 -0.23804369055E+02  0.11916473704E+03 -0.17665895169E+03  0.27479821265E+03  0.17186852510E+03 0.  0.
         24    2    3    3    0    0 -0.56484677603E+02  0.13742114699E+03 -0.12631574662E+03  0.21188694682E+03  0.82857226281E+02 0.  0.
         -6    2    1    2    0  502  0.23804369055E+02 -0.11916473704E+03 -0.41504473615E+03  0.46530926701E+03  0.17170817808E+03 0.  0.
        -24    2    5    5    0    0  0.34928693881E+02  0.30924204377E+00 -0.13097839256E+03  0.15690440349E+03  0.79016094753E+02 0.  0.
          5    1    3    3  501    0  0.32680308548E+02 -0.18256409943E+02 -0.50343205074E+02  0.62911265827E+02  0.47000000000E+01 0. -1.
        -11    1    4    4    0    0 -0.13076696355E+02  0.10264505142E+03 -0.43771019685E+02  0.11235171887E+03  0.00000000000E+00 0.  1.
         12    1    4    4    0    0 -0.43407981248E+02  0.34776095564E+02 -0.82544726935E+02  0.99535227952E+02  0.00000000000E+00 0. -1.
         -5    1    5    5    0  502 -0.11124324826E+02 -0.11947397909E+03 -0.28406634359E+03  0.30840486352E+03  0.47000000000E+01 0.  1.
         11    1    6    6    0    0 -0.19265911791E+02 -0.15083503645E+02 -0.68687508313E+02  0.72915438952E+02  0.00000000000E+00 0. -1.
        -12    1    6    6    0    0  0.54194605672E+02  0.15392745689E+02 -0.62290884247E+02  0.83988964538E+02  0.00000000000E+00 0.  1.
</event>
<event>
12    1  0.9873238E-001  0.2012882E+03  0.7818608E-02  0.1150056E+00
         21   -1    0    0  503  502  0.00000000000E+00  0.00000000000E+00  0.66498374146E+02  0.66498374146E+02  0.00000000000E+00 0.  1.
         21   -1    0    0  501  503 -0.00000000000E+00 -0.00000000000E+00 -0.82881395485E+03  0.82881395485E+03  0.00000000000E+00 0.  1.
          6    2    1    2  501    0 -0.71368419902E+02 -0.64498012116E+02 -0.14516497002E+03  0.24817294915E+03  0.17681487280E+03 0.  0.
         24    2    3    3    0    0 -0.38608282764E+02 -0.71208483036E+02 -0.17108065364E+03  0.20560571218E+03  0.80273727185E+02 0.  0.
         -6    2    1    2    0  502  0.71368419902E+02  0.64498012116E+02 -0.61715061069E+03  0.64713937985E+03  0.16929576412E+03 0.  0.
        -24    2    5    5    0    0 -0.12239974374E+02  0.70931715721E+02 -0.29940590495E+03  0.31848219651E+03  0.81276615987E+02 0.  0.
          5    1    3    3  501    0 -0.32760137138E+02  0.67104709200E+01  0.25915683627E+02  0.42567236969E+02  0.47000000000E+01 0. -1.
        -13    1    4    4    0    0 -0.53658667582E+02 -0.40340973642E+02 -0.62492580787E+02  0.91716789163E+02  0.00000000000E+00 0.  1.
         14    1    4    4    0    0  0.15050384818E+02 -0.30867509394E+02 -0.10858807286E+03  0.11388892302E+03  0.00000000000E+00 0. -1.
         -5    1    5    5    0  502  0.83608394276E+02 -0.64337036045E+01 -0.31774470574E+03  0.32865718334E+03  0.47000000000E+01 0.  1.
         13    1    6    6    0    0  0.30568072706E+02  0.43539945903E+02 -0.10725060054E+03  0.11971977812E+03  0.00000000000E+00 0. -1.
        -14    1    6    6    0    0 -0.42808047080E+02  0.27391769818E+02 -0.19215530441E+03  0.19876241838E+03  0.00000000000E+00 0.  1.
</event>
<event>
12    1  0.9873238E-001  0.5607339E+03  0.7818608E-02  0.9990491E-01
         21   -1    0    0  503  502  0.00000000000E+00  0.00000000000E+00  0.19058560281E+03  0.19058560281E+03  0.00000000000E+00 0. -1.
         21   -1    0    0  501  503 -0.00000000000E+00 -0.00000000000E+00 -0.17328507563E+04  0.17328507563E+04  0.00000000000E+00 0.  1.
          6    2    1    2  501    0  0.40481670812E+03  0.34755608953E+03 -0.98223346499E+03  0.11309352675E+04  0.17193079107E+03 0.  0.
         24    2    3    3    0    0  0.15115146553E+03  0.19057600926E+03 -0.37924763882E+03  0.45817766071E+03  0.83258731561E+02 0.  0.
         -6    2    1    2    0  502 -0.40481670812E+03 -0.34755608953E+03 -0.56003168854E+03  0.79250109168E+03  0.17248387055E+03 0.  0.
        -24    2    5    5    0    0 -0.33951479403E+03 -0.31034200864E+03 -0.54128914359E+03  0.71489567440E+03  0.80619046224E+02 0.  0.
          5    1    3    3  501    0  0.25366524259E+03  0.15698008027E+03 -0.60298582616E+03  0.67275760676E+03  0.47000000000E+01 0. -1.
        -13    1    4    4    0    0  0.11780584721E+03  0.16980529941E+03 -0.35836266315E+03  0.41368569674E+03  0.00000000000E+00 0.  1.
         14    1    4    4    0    0  0.33345618324E+02  0.20770709850E+02 -0.20884975670E+02  0.44491963969E+02  0.00000000000E+00 0. -1.
         -5    1    5    5    0  502 -0.65301914090E+02 -0.37214080889E+02 -0.18742544956E+02  0.77605417283E+02  0.47000000000E+01 0.  1.
         13    1    6    6    0    0 -0.11876403943E+03 -0.11124723536E+03 -0.13482606030E+03  0.21132655056E+03  0.00000000000E+00 0. -1.
        -14    1    6    6    0    0 -0.22075075460E+03 -0.19909477329E+03 -0.40646308329E+03  0.50356912384E+03  0.00000000000E+00 0.  1.
</event>
<event>
12    1  0.9873238E-001  0.2139385E+03  0.7818608E-02  0.1138679E+00
         21   -1    0    0  501  502  0.00000000000E+00  0.00000000000E+00  0.36356802103E+03  0.36356802103E+03  0.00000000000E+00 0.  1.
         21   -1    0    0  502  503 -0.00000000000E+00 -0.00000000000E+00 -0.12532689817E+03  0.12532689817E+03  0.00000000000E+00 0.  1.
         -6    2    1    2    0  503 -0.12554944599E+03 -0.18226973162E+02  0.12229573617E+03  0.24555769548E+03  0.17101885507E+03 0.  0.
        -24    2    3    3    0    0 -0.63349550652E+02 -0.48446024690E+01 -0.91397977788E+01  0.99457372388E+02  0.75971029202E+02 0.  0.
          6    2    1    2  501    0  0.12554944599E+03  0.18226973162E+02  0.11594538670E+03  0.24333722372E+03  0.17226371009E+03 0.  0.
         24    2    5    5    0    0  0.15664628832E+03  0.99471031203E+01  0.77984155549E+02  0.19335007617E+03  0.81643854231E+02 0.  0.
          5    1    5    5  501    0 -0.31096842327E+02  0.82798700413E+01  0.37961231148E+02  0.49987147557E+02  0.47000000000E+01 0. -1.
        -11    1    6    6    0    0  0.42414341806E+02 -0.33065530937E+02  0.14178429449E+02  0.55617745267E+02  0.00000000000E+00 0.  1.
         12    1    6    6    0    0  0.11423194651E+03  0.43012634058E+02  0.63805726100E+02  0.13773233090E+03  0.00000000000E+00 0. -1.
         -5    1    3    3    0  503 -0.62199895337E+02 -0.13382370693E+02  0.13143553394E+03  0.14610032309E+03  0.47000000000E+01 0.  1.
         11    1    4    4    0    0 -0.71728329430E+02 -0.38620378722E+01 -0.29319347965E+02  0.77585390019E+02  0.00000000000E+00 0. -1.
        -12    1    4    4    0    0  0.83787787786E+01 -0.98256459686E+00  0.20179550186E+02  0.21871982369E+02  0.00000000000E+00 0.  1.
</event>
<event>
12    1  0.9873238E-001  0.3284811E+03  0.7818608E-02  0.1071928E+00
         21   -1    0    0  501  502  0.00000000000E+00  0.00000000000E+00  0.44817379881E+03  0.44817379881E+03  0.00000000000E+00 0.  1.
         21   -1    0    0  502  503 -0.00000000000E+00 -0.00000000000E+00 -0.31369490363E+03  0.31369490363E+03  0.00000000000E+00 0.  1.
         -6    2    1    2    0  503 -0.95339388678E+02 -0.26188826639E+03 -0.11733212709E+03  0.34880748176E+03  0.17385271979E+03 0.  0.
        -24    2    3    3    0    0 -0.76140761831E+02 -0.74322612296E+02 -0.83607155620E+02  0.15721174702E+03  0.80025687253E+02 0.  0.
          6    2    1    2  501    0  0.95339388678E+02  0.26188826639E+03  0.25181102227E+03  0.41306122068E+03  0.17185958799E+03 0.  0.
         24    2    5    5    0    0  0.61547845843E+02  0.54910638270E+02  0.70716773746E+02  0.13593521367E+03  0.81695805913E+02 0.  0.
          5    1    5    5  501    0  0.33791542835E+02  0.20697762812E+03  0.18109424853E+03  0.27712600701E+03  0.47000000000E+01 0. -1.
        -13    1    6    6    0    0  0.70111584625E+02  0.43234737445E+02  0.83008784231E+02  0.11694158833E+03  0.00000000000E+00 0.  1.
         14    1    6    6    0    0 -0.85637387824E+01  0.11675900825E+02 -0.12292010485E+02  0.18993625346E+02  0.00000000000E+00 0. -1.
         -5    1    3    3    0  503 -0.19198626846E+02 -0.18756565410E+03 -0.33724971465E+02  0.19159573474E+03  0.47000000000E+01 0.  1.
         11    1    4    4    0    0 -0.70133527513E+02 -0.28701034102E+02 -0.19408239125E+02  0.78224937110E+02  0.00000000000E+00 0. -1.
        -12    1    4    4    0    0 -0.60072343185E+01 -0.45621578193E+02 -0.64198916495E+02  0.78986809913E+02  0.00000000000E+00 0.  1.
</event>
<event>
12    1  0.9873238E-001  0.2271743E+03  0.7818608E-02  0.1129332E+00
         21   -1    0    0  503  502  0.00000000000E+00  0.00000000000E+00  0.38918736049E+03  0.38918736049E+03  0.00000000000E+00 0.  1.
         21   -1    0    0  501  503 -0.00000000000E+00 -0.00000000000E+00 -0.18576745366E+03  0.18576745366E+03  0.00000000000E+00 0.  1.
          6    2    1    2  501    0  0.14331565982E+03  0.30585881900E+02 -0.55847858865E+02  0.23024052884E+03  0.16857296123E+03 0.  0.
         24    2    3    3    0    0  0.15366387679E+03  0.30010851146E+02 -0.87797304824E+02  0.19632484881E+03  0.79510007585E+02 0.  0.
         -6    2    1    2    0  502 -0.14331565982E+03 -0.30585881900E+02  0.25926776569E+03  0.34471428531E+03  0.17358942839E+03 0.  0.
        -24    2    5    5    0    0 -0.15023862920E+03 -0.28592864356E+02  0.27607381231E+03  0.32583485664E+03  0.81008680791E+02 0.  0.
          5    1    3    3  501    0 -0.10348216974E+02  0.57503075451E+00  0.31949445959E+02  0.33915680032E+02  0.47000000000E+01 0. -1.
        -13    1    4    4    0    0  0.80242516623E+02  0.26794972696E+02 -0.37542257612E+01  0.84681321712E+02  0.00000000000E+00 0.  1.
         14    1    4    4    0    0  0.73421360172E+02  0.32158784492E+01 -0.84043079063E+02  0.11164352709E+03  0.00000000000E+00 0. -1.
         -5    1    5    5    0  502  0.69229693840E+01 -0.19930175445E+01 -0.16806046616E+02  0.18879428669E+02  0.47000000000E+01 0.  1.
         13    1    6    6    0    0 -0.97669449904E+02  0.14554641247E+02  0.11876819975E+03  0.15445725719E+03  0.00000000000E+00 0. -1.
        -14    1    6    6    0    0 -0.52569179300E+02 -0.43147505603E+02  0.15730561256E+03  0.17137759946E+03  0.00000000000E+00 0.  1.
</event>
<event>
12    1  0.9873238E-001  0.3201472E+03  0.7818608E-02  0.1075623E+00
         21   -1    0    0  501  502  0.00000000000E+00  0.00000000000E+00  0.32104488520E+03  0.32104488520E+03  0.00000000000E+00 0.  1.
         21   -1    0    0  502  503 -0.00000000000E+00 -0.00000000000E+00 -0.32396627126E+03  0.32396627126E+03  0.00000000000E+00 0.  1.
         -6    2    1    2    0  503  0.76443693160E+02  0.25882898065E+03  0.38883164490E+02  0.32249983814E+03  0.17221546293E+03 0.  0.
        -24    2    3    3    0    0  0.33550164139E+02  0.46914915352E+02 -0.60617272221E+01  0.10161625072E+03  0.83441566839E+02 0.  0.
          6    2    1    2  501    0 -0.76443693160E+02 -0.25882898065E+03 -0.41804550548E+02  0.32251131832E+03  0.17155130589E+03 0.  0.
         24    2    5    5    0    0 -0.17781863204E+02 -0.12773492265E+03 -0.82512111387E+02  0.17315919130E+03  0.80891605762E+02 0.  0.
          5    1    5    5  501    0 -0.58661829955E+02 -0.13109405799E+03  0.40707560839E+02  0.14935212702E+03  0.47000000000E+01 0. -1.
        -11    1    6    6    0    0  0.13444973673E+02  0.84703927007E+00 -0.25988410995E+02  0.29272551967E+02  0.00000000000E+00 0.  1.
         12    1    6    6    0    0 -0.31226836877E+02 -0.12858196192E+03 -0.56523700392E+02  0.14388663934E+03  0.00000000000E+00 0. -1.
         -5    1    3    3    0  503  0.42893529020E+02  0.21191406529E+03  0.44944891712E+02  0.22088358742E+03  0.47000000000E+01 0.  1.
         13    1    4    4    0    0 -0.26469331678E+02  0.15037130512E+02  0.95138740301E+01  0.31894429177E+02  0.00000000000E+00 0. -1.
        -14    1    4    4    0    0  0.60019495817E+02  0.31877784840E+02 -0.15575601252E+02  0.69721821539E+02  0.00000000000E+00 0.  1.
</event>
<event>
12    1  0.9873238E-001  0.2701298E+03  0.7818608E-02  0.1101319E+00
         21   -1    0    0  501  502  0.00000000000E+00  0.00000000000E+00  0.29812035964E+03  0.29812035964E+03  0.00000000000E+00 0.  1.
         21   -1    0    0  502  503 -0.00000000000E+00 -0.00000000000E+00 -0.33395150128E+03  0.33395150128E+03  0.00000000000E+00 0.  1.
         -6    2    1    2    0  503 -0.19549450572E+03 -0.69410592424E+02  0.14608121951E+03  0.30639988380E+03  0.17177087644E+03 0.  0.
        -24    2    3    3    0    0 -0.12337027665E+03  0.14793330324E+01  0.14322221822E+03  0.20512032101E+03  0.79619901492E+02 0.  0.
          6    2    1    2  501    0  0.19549450572E+03  0.69410592424E+02 -0.18191236115E+03  0.32567197713E+03  0.17301502086E+03 0.  0.
         24    2    5    5    0    0  0.36640021637E+02  0.42284609125E+02 -0.21314898204E+02  0.98110554243E+02  0.77723076457E+02 0.  0.
          5    1    5    5  501    0  0.15885448408E+03  0.27125983299E+02 -0.16059746294E+03  0.22756142289E+03  0.47000000000E+01 0. -1.
        -13    1    6    6    0    0  0.17966403392E+02 -0.20627081301E+02  0.42491339167E+01  0.27682544552E+02  0.00000000000E+00 0.  1.
         14    1    6    6    0    0  0.18673618246E+02  0.62911690426E+02 -0.25564032121E+02  0.70428009690E+02  0.00000000000E+00 0. -1.
         -5    1    3    3    0  503 -0.72124229069E+02 -0.70889925456E+02  0.28590012874E+01  0.10127956279E+03  0.47000000000E+01 0.  1.
         11    1    4    4    0    0 -0.11944460242E+03  0.18401476449E+02  0.94561976739E+02  0.15345225585E+03  0.00000000000E+00 0. -1.
        -12    1    4    4    0    0 -0.39256742298E+01 -0.16922143417E+02  0.48660241481E+02  0.51668065156E+02  0.00000000000E+00 0.  1.
</event>
<event>
12    1  0.9873238E-001  0.2176791E+03  0.7818608E-02  0.1135826E+00
         21   -1    0    0  503  502  0.00000000000E+00  0.00000000000E+00  0.21574118523E+03  0.21574118523E+03  0.00000000000E+00 0. -1.
         21   -1    0    0  501  503 -0.00000000000E+00 -0.00000000000E+00 -0.26579851255E+03  0.26579851255E+03  0.00000000000E+00 0.  1.
          6    2    1    2  501    0  0.13002974370E+03 -0.29699170901E+02 -0.12647258266E+03  0.25083758441E+03  0.17068803293E+03 0.  0.
         24    2    3    3    0    0  0.12800244919E+03  0.17102879373E+02 -0.13519100298E+03  0.20295603592E+03  0.78977273632E+02 0.  0.
         -6    2    1    2    0  502 -0.13002974370E+03  0.29699170901E+02  0.76415255342E+02  0.23070211336E+03  0.17203022659E+03 0.  0.
        -24    2    5    5    0    0 -0.63132040574E+02 -0.34692024012E+02 -0.42289444975E+01  0.10762853523E+03  0.79855034576E+02 0.  0.
          5    1    3    3  501    0  0.20272945168E+01 -0.46802050274E+02  0.87184203124E+01  0.47881548489E+02  0.47000000000E+01 0. -1.
        -13    1    4    4    0    0  0.76618538943E+02 -0.67752616041E+01 -0.28267405212E+02  0.81947244474E+02  0.00000000000E+00 0.  1.
         14    1    4    4    0    0  0.51383910245E+02  0.23878140978E+02 -0.10692359776E+03  0.12100879145E+03  0.00000000000E+00 0. -1.
         -5    1    5    5    0  502 -0.66897703130E+02  0.64391194913E+02  0.80644199840E+02  0.12307357813E+03  0.47000000000E+01 0.  1.
         11    1    6    6    0    0  0.84749360209E+01 -0.21978119393E+02  0.20073644695E+02  0.30948561904E+02  0.00000000000E+00 0. -1.
        -12    1    6    6    0    0 -0.71606976595E+02 -0.12713904618E+02 -0.24302589192E+02  0.76679973326E+02  0.00000000000E+00 0.  1.
</event>
<event>
12    1  0.9873238E-001  0.2683444E+03  0.7818608E-02  0.1102287E+00
         21   -1    0    0  503  502  0.00000000000E+00  0.00000000000E+00  0.26476780765E+03  0.26476780765E+03  0.00000000000E+00 0.  1.
         21   -1    0    0  501  503 -0.00000000000E+00 -0.00000000000E+00 -0.45240625324E+03  0.45240625324E+03  0.00000000000E+00 0.  1.
          6    2    1    2  501    0  0.13401013514E+03  0.15588245376E+03  0.13293015000E+03  0.29911550696E+03  0.17187671748E+03 0.  0.
         24    2    3    3    0    0  0.13830713631E+03  0.11940596048E+03  0.45794094260E+02  0.20443826053E+03  0.79443413503E+02 0.  0.
         -6    2    1    2    0  502 -0.13401013514E+03 -0.15588245376E+03 -0.32056859559E+03  0.41805855393E+03  0.17248383787E+03 0.  0.
        -24    2    5    5    0    0 -0.59547101857E+02 -0.16094994500E+03 -0.18520838535E+03  0.26341412529E+03  0.75060730505E+02 0.  0.
          5    1    3    3  501    0 -0.42970011661E+01  0.36476493288E+02  0.87136055735E+02  0.94677246425E+02  0.47000000000E+01 0. -1.
        -13    1    4    4    0    0  0.79749751746E+02  0.18529215809E+02  0.10317212140E+02  0.82521509974E+02  0.00000000000E+00 0.  1.
         14    1    4    4    0    0  0.58557384563E+02  0.10087674467E+03  0.35476882120E+02  0.12191675056E+03  0.00000000000E+00 0. -1.
         -5    1    5    5    0  502 -0.74463033285E+02  0.50674912393E+01 -0.13536021024E+03  0.15464442864E+03  0.47000000000E+01 0.  1.
         11    1    6    6    0    0 -0.64508325144E+02 -0.68281603191E+02 -0.82860817209E+02  0.12525819884E+03  0.00000000000E+00 0. -1.
        -12    1    6    6    0    0  0.49612232870E+01 -0.92668341813E+02 -0.10234756814E+03  0.13815592646E+03  0.00000000000E+00 0.  1.
</event>
<event>
12    1  0.9873238E-001  0.2312968E+03  0.7818608E-02  0.1126011E+00
         21   -1    0    0  501  502  0.00000000000E+00  0.00000000000E+00  0.21156207107E+03  0.21156207107E+03  0.00000000000E+00 0.  1.
         21   -1    0    0  502  503 -0.00000000000E+00 -0.00000000000E+00 -0.30478972122E+03  0.30478972122E+03  0.00000000000E+00 0. -1.
         -6    2    1    2    0  503  0.15022840255E+03  0.13466767363E+02  0.61850134485E+02  0.23787857774E+03  0.17323640454E+03 0.  0.
        -24    2    3    3    0    0  0.13234070209E+03  0.25516368960E+02  0.10529400393E+03  0.18914847905E+03  0.80778545094E+02 0.  0.
          6    2    1    2  501    0 -0.15022840255E+03 -0.13466767363E+02 -0.15507778463E+03  0.27847321455E+03  0.17535188957E+03 0.  0.
         24    2    5    5    0    0 -0.14792978243E+03 -0.39933587172E+02 -0.65610347977E+02  0.18502650017E+03  0.80325438624E+02 0.  0.
          5    1    5    5  501    0 -0.22986201168E+01  0.26466819810E+02 -0.89467436654E+02  0.93446714371E+02  0.47000000000E+01 0. -1.
        -11    1    6    6    0    0 -0.52008506107E+02 -0.53966073770E+02 -0.39052355197E+02  0.84512178247E+02  0.00000000000E+00 0.  1.
         12    1    6    6    0    0 -0.95921276325E+02  0.14032486598E+02 -0.26557992779E+02  0.10051432193E+03  0.00000000000E+00 0. -1.
         -5    1    3    3    0  503  0.17887700460E+02 -0.12049601597E+02 -0.43443869446E+02  0.48730098695E+02  0.47000000000E+01 0.  1.
         13    1    4    4    0    0  0.13914279011E+03  0.36413256300E+02  0.10038824704E+03  0.17539795157E+03  0.00000000000E+00 0. -1.
        -14    1    4    4    0    0 -0.68020880164E+01 -0.10896887340E+02  0.49057568914E+01  0.13750527472E+02  0.00000000000E+00 0.  1.
</event>
<event>
12    1  0.1133239E+000  0.6322324E+03  0.7818608E-02  0.9840750E-01
         21   -1    0    0  503  502  0.00000000000E+00  0.00000000000E+00  0.62959197049E+03  0.62959197049E+03  0.00000000000E+00 0. -1.
         21   -1    0    0  501  503 -0.00000000000E+00 -0.00000000000E+00 -0.10321143695E+04  0.10321143695E+04  0.00000000000E+00 0. -1.
          6    2    1    2  501    0 -0.15131838463E+03  0.58890687002E+03  0.31425759298E+03  0.70593894361E+03  0.17286816447E+03 0.  0.
         24    2    3    3    0    0 -0.90177096029E+01  0.28694469083E+03  0.14844631604E+03  0.33318418599E+03  0.80974183332E+02 0.  0.
         -6    2    1    2    0  502  0.15131838463E+03 -0.58890687002E+03 -0.71677999193E+03  0.95576739633E+03  0.17323164831E+03 0.  0.
        -24    2    5    5    0    0  0.63735040334E+02 -0.18979036487E+03 -0.32274518963E+03  0.38809641565E+03  0.79823758676E+02 0.  0.
          5    1    3    3  501    0 -0.14230067503E+03  0.30196217919E+03  0.16581127694E+03  0.37275475762E+03  0.47000000000E+01 0. -1.
        -11    1    4    4    0    0 -0.38531732623E+02  0.23281818620E+03  0.12644099193E+03  0.26772434832E+03  0.00000000000E+00 0.  1.
         12    1    4    4    0    0  0.29514023020E+02  0.54126504630E+02  0.22005324106E+02  0.65459837666E+02  0.00000000000E+00 0. -1.
         -5    1    5    5    0  502  0.87583344295E+02 -0.39911650515E+03 -0.39403480230E+03  0.56767098068E+03  0.47000000000E+01 0.  1.
         11    1    6    6    0    0  0.80707736430E+02 -0.12692959816E+03 -0.22398774451E+03  0.26980617358E+03  0.00000000000E+00 0. -1.
        -12    1    6    6    0    0 -0.16972696096E+02 -0.62860766705E+02 -0.98757445120E+02  0.11829024207E+03  0.00000000000E+00 0.  1.
</event>
<event>
12    1  0.9873238E-001  0.1752169E+03  0.7818608E-02  0.1173594E+00
         21   -1    0    0  501  502  0.00000000000E+00  0.00000000000E+00  0.10948312523E+03  0.10948312523E+03  0.00000000000E+00 0.  1.
         21   -1    0    0  502  503 -0.00000000000E+00 -0.00000000000E+00 -0.30061081945E+03  0.30061081945E+03  0.00000000000E+00 0.  1.
         -6    2    1    2    0  503  0.24740307323E+02 -0.23099617412E+02 -0.33095730156E+02  0.17413832729E+03  0.16758029283E+03 0.  0.
        -24    2    3    3    0    0  0.46011898048E+02 -0.72527962879E+02 -0.19079229164E+02  0.11833336149E+03  0.79128801935E+02 0.  0.
          6    2    1    2  501    0 -0.24740307323E+02  0.23099617412E+02 -0.15803196407E+03  0.23595561739E+03  0.17191648140E+03 0.  0.
         24    2    5    5    0    0 -0.79398528265E+02  0.14514717433E+02 -0.73878690990E+02  0.13513357121E+03  0.79298283550E+02 0.  0.
          5    1    5    5  501    0  0.54658220943E+02  0.85848999791E+01 -0.84153273083E+02  0.10082204617E+03  0.47000000000E+01 0. -1.
        -11    1    6    6    0    0 -0.68201083534E+02  0.36693399217E+02 -0.26890096125E+02  0.81980916139E+02  0.00000000000E+00 0.  1.
         12    1    6    6    0    0 -0.11197444731E+02 -0.22178681784E+02 -0.46988594866E+02  0.53152655076E+02  0.00000000000E+00 0. -1.
         -5    1    3    3    0  503 -0.21271590725E+02  0.49428345467E+02 -0.14016500992E+02  0.55804965797E+02  0.47000000000E+01 0.  1.
         13    1    4    4    0    0  0.50710108094E+02 -0.54250575379E+02 -0.44576186590E+02  0.86612218553E+02  0.00000000000E+00 0. -1.
        -14    1    4    4    0    0 -0.46982100459E+01 -0.18277387500E+02  0.25496957426E+02  0.31721142940E+02  0.00000000000E+00 0.  1.
</event>
<event>
12    1  0.9873238E-001  0.1814917E+03  0.7818608E-02  0.1168114E+00
         21   -1    0    0  503  502  0.00000000000E+00  0.00000000000E+00  0.61956003954E+02  0.61956003954E+02  0.00000000000E+00 0. -1.
         21   -1    0    0  501  503 -0.00000000000E+00 -0.00000000000E+00 -0.58763335963E+03  0.58763335963E+03  0.00000000000E+00 0. -1.
          6    2    1    2  501    0  0.24523038941E+02 -0.21749417941E+02 -0.14093660237E+03  0.22418990848E+03  0.17124127002E+03 0.  0.
         24    2    3    3    0    0  0.74840929068E+02 -0.27070902286E+02 -0.12947980665E+03  0.17209810077E+03  0.80738699170E+02 0.  0.
         -6    2    1    2    0  502 -0.24523038941E+02  0.21749417941E+02 -0.38474075331E+03  0.42539945511E+03  0.17850723382E+03 0.  0.
        -24    2    5    5    0    0 -0.76079163801E+02 -0.14880496593E+02 -0.29070253803E+03  0.31197520469E+03  0.82529354661E+02 0.  0.
          5    1    3    3  501    0 -0.50317890127E+02  0.53214843455E+01 -0.11456795716E+02  0.52091807711E+02  0.47000000000E+01 0. -1.
        -11    1    4    4    0    0  0.14699913539E+02 -0.45992902382E+01  0.10128802933E+02  0.18434575601E+02  0.00000000000E+00 0.  1.
         12    1    4    4    0    0  0.60141015529E+02 -0.22471612048E+02 -0.13960860959E+03  0.15366352517E+03  0.00000000000E+00 0. -1.
         -5    1    5    5    0  502  0.51556124860E+02  0.36629914533E+02 -0.94038215284E+02  0.11342425042E+03  0.47000000000E+01 0.  1.
         11    1    6    6    0    0 -0.18889208680E+02 -0.43512824333E+02 -0.15215631197E+03  0.15937914343E+03  0.00000000000E+00 0. -1.
        -12    1    6    6    0    0 -0.57189955121E+02  0.28632327740E+02 -0.13854622605E+03  0.15259606126E+03  0.00000000000E+00 0.  1.
</event>
<event>
12    1  0.9873238E-001  0.2605109E+03  0.7818608E-02  0.1107130E+00
         21   -1    0    0  503  502  0.00000000000E+00  0.00000000000E+00  0.26347845142E+03  0.26347845142E+03  0.00000000000E+00 0. -1.
         21   -1    0    0  501  503 -0.00000000000E+00 -0.00000000000E+00 -0.46191226651E+03  0.46191226651E+03  0.00000000000E+00 0. -1.
          6    2    1    2  501    0  0.14544239593E+03 -0.12946830740E+03  0.14294213074E+03  0.29715045078E+03  0.17306185169E+03 0.  0.
         24    2    3    3    0    0  0.98394098549E+02 -0.14946863790E+03  0.71068083362E+02  0.20882421350E+03  0.80836918103E+02 0.  0.
         -6    2    1    2    0  502 -0.14544239593E+03  0.12946830740E+03 -0.34137594582E+03  0.42824026715E+03  0.17010778016E+03 0.  0.
        -24    2    5    5    0    0 -0.11104850042E+03  0.11225296679E+03 -0.34689605115E+03  0.38910116185E+03  0.78296525166E+02 0.  0.
          5    1    3    3  501    0  0.47048297377E+02  0.20000330501E+02  0.71874047375E+02  0.88326237281E+02  0.47000000000E+01 0. -1.
        -13    1    4    4    0    0  0.94540640305E+02 -0.88318105869E+02  0.24051574354E+02  0.13159216817E+03  0.00000000000E+00 0.  1.
         14    1    4    4    0    0  0.38534582435E+01 -0.61150532028E+02  0.47016509007E+02  0.77232045337E+02  0.00000000000E+00 0. -1.
         -5    1    5    5    0  502 -0.34393895510E+02  0.17215340608E+02  0.55201053298E+01  0.39139105297E+02  0.47000000000E+01 0.  1.
         13    1    6    6    0    0  0.70183438879E+01  0.29380039244E+01 -0.57339964882E+02  0.57842550001E+02  0.00000000000E+00 0. -1.
        -14    1    6    6    0    0 -0.11806684430E+03  0.10931496286E+03 -0.28955608627E+03  0.33125861185E+03  0.00000000000E+00 0.  1.
</event>
<event>
12    1  0.9873238E-001  0.2340923E+03  0.7818608E-02  0.1124214E+00
         21   -1    0    0  503  502  0.00000000000E+00  0.00000000000E+00  0.65798625729E+02  0.65798625729E+02  0.00000000000E+00 0.  1.
         21   -1    0    0  501  503 -0.00000000000E+00 -0.00000000000E+00 -0.82515475375E+03  0.82515475375E+03  0.00000000000E+00 0.  1.
          6    2    1    2  501    0  0.13284669648E+03 -0.81532621423E+02 -0.36640396219E+03  0.43480004366E+03  0.17465222970E+03 0.  0.
         24    2    3    3    0    0  0.17165629022E+02 -0.65833135236E+02 -0.24341108807E+03  0.26515948153E+03  0.80199328792E+02 0.  0.
         -6    2    1    2    0  502 -0.13284669648E+03  0.81532621423E+02 -0.39295216583E+03  0.45615333582E+03  0.17137283339E+03 0.  0.
        -24    2    5    5    0    0 -0.11276801059E+03  0.10696630478E+03 -0.38454948466E+03  0.42234918035E+03  0.79637361928E+02 0.  0.
          5    1    3    3  501    0  0.11568106746E+03 -0.15699486187E+02 -0.12299287412E+03  0.16964056213E+03  0.47000000000E+01 0. -1.
        -13    1    4    4    0    0 -0.35274192102E+01  0.16920563684E+02 -0.67201816387E+02  0.69388992552E+02  0.00000000000E+00 0.  1.
         14    1    4    4    0    0  0.20693048232E+02 -0.82753698921E+02 -0.17620927168E+03  0.19577048898E+03  0.00000000000E+00 0. -1.
         -5    1    5    5    0  502 -0.20078685883E+02 -0.25433683361E+02 -0.84026811715E+01  0.33804155469E+02  0.47000000000E+01 0.  1.
         11    1    6    6    0    0 -0.97777041407E+02  0.39412899961E+02 -0.22861579760E+03  0.25175168206E+03  0.00000000000E+00 0. -1.
        -12    1    6    6    0    0 -0.14990969187E+02  0.67553404823E+02 -0.15593368707E+03  0.17059749829E+03  0.00000000000E+00 0.  1.
</event>
<event>
12    1  0.9873238E-001  0.1763606E+03  0.7818608E-02  0.1172170E+00
         21   -1    0    0  503  502  0.00000000000E+00  0.00000000000E+00  0.36455077585E+03  0.36455077585E+03  0.00000000000E+00 0.  1.
         21   -1    0    0  501  503 -0.00000000000E+00 -0.00000000000E+00 -0.84089449467E+02  0.84089449467E+02  0.00000000000E+00 0.  1.
          6    2    1    2  501    0  0.28163332807E+02 -0.15288383599E+02  0.12806739765E+03  0.21795483508E+03  0.17342474969E+03 0.  0.
         24    2    3    3    0    0  0.34273183885E+01  0.43725118355E+02  0.13628515916E+02  0.86757230392E+02  0.73603315772E+02 0.  0.
         -6    2    1    2    0  502 -0.28163332807E+02  0.15288383599E+02  0.15239392873E+03  0.23068539024E+03  0.17019086864E+03 0.  0.
        -24    2    5    5    0    0  0.28956070370E+02  0.52418231249E+02  0.60811565077E+02  0.11644585620E+03  0.79217838900E+02 0.  0.
          5    1    3    3  501    0  0.24736014419E+02 -0.59013501955E+02  0.11443888174E+03  0.13119760469E+03  0.47000000000E+01 0. -1.
        -13    1    4    4    0    0  0.33428627095E+02  0.20780942527E+02  0.25813905149E+02  0.47070992987E+02  0.00000000000E+00 0.  1.
         14    1    4    4    0    0 -0.30001308707E+02  0.22944175828E+02 -0.12185389232E+02  0.39686237404E+02  0.00000000000E+00 0. -1.
         -5    1    5    5    0  502 -0.57119403177E+02 -0.37129847650E+02  0.91582363656E+02  0.11423953404E+03  0.47000000000E+01 0.  1.
         11    1    6    6    0    0 -0.10246227364E+02  0.54228671739E+02  0.17266558091E+02  0.57826188203E+02  0.00000000000E+00 0. -1.
        -12    1    6    6    0    0  0.39202297734E+02 -0.18104404901E+01  0.43545006987E+02  0.58619667995E+02  0.00000000000E+00 0.  1.
</event>
<event>
12    1  0.9873238E-001  0.2391109E+03  0.7818608E-02  0.1120664E+00
         21   -1    0    0  503  502  0.00000000000E+00  0.00000000000E+00  0.36720365142E+03  0.36720365142E+03  0.00000000000E+00 0.  1.
         21   -1    0    0  501  503 -0.00000000000E+00 -0.00000000000E+00 -0.16702640797E+03  0.16702640797E+03  0.00000000000E+00 0. -1.
          6    2    1    2  501    0 -0.14482433265E+03  0.81239928767E+02  0.17318354462E+03  0.29523981672E+03  0.17204649341E+03 0.  0.
         24    2    3    3    0    0 -0.12943458040E+03 -0.33704877694E+01  0.12292762385E+03  0.19552264350E+03  0.79707167983E+02 0.  0.
         -6    2    1    2    0  502  0.14482433265E+03 -0.81239928767E+02  0.26993698827E+02  0.23899024268E+03  0.16974587761E+03 0.  0.
        -24    2    5    5    0    0  0.52210629452E+02  0.18388276752E+02  0.43561406671E+01  0.10101333739E+03  0.84383883644E+02 0.  0.
          5    1    3    3  501    0 -0.15389752247E+02  0.84610416536E+02  0.50255920773E+02  0.99717173212E+02  0.47000000000E+01 0. -1.
        -11    1    4    4    0    0 -0.64317802816E+02  0.19175205774E+02  0.10449240674E+03  0.12418990032E+03  0.00000000000E+00 0.  1.
         12    1    4    4    0    0 -0.65116777583E+02 -0.22545693543E+02  0.18435217104E+02  0.71332743181E+02  0.00000000000E+00 0. -1.
         -5    1    5    5    0  502  0.92613703193E+02 -0.99628205518E+02  0.22637558160E+02  0.13797690529E+03  0.47000000000E+01 0.  1.
         11    1    6    6    0    0 -0.15622633289E+02 -0.18082165436E+02  0.51768074423E+00  0.23901869615E+02  0.00000000000E+00 0. -1.
        -12    1    6    6    0    0  0.67833262741E+02  0.36470442187E+02  0.38384599229E+01  0.77111467772E+02  0.00000000000E+00 0.  1.
</event>
<event>
12    1  0.9873238E-001  0.2183169E+03  0.7818608E-02  0.1135775E+00
         21   -1    0    0  501  502  0.00000000000E+00  0.00000000000E+00  0.23005959423E+03  0.23005959423E+03  0.00000000000E+00 0. -1.
         21   -1    0    0  502  503 -0.00000000000E+00 -0.00000000000E+00 -0.21782564855E+03  0.21782564855E+03  0.00000000000E+00 0. -1.
         -6    2    1    2    0  503  0.14817118867E+02  0.13071087332E+03  0.62515425004E+02  0.22709128498E+03  0.17423373362E+03 0.  0.
        -24    2    3    3    0    0 -0.53995804045E+02  0.47115052440E+02  0.16012694929E+02  0.10915878931E+03  0.80770414539E+02 0.  0.
          6    2    1    2  501    0 -0.14817118867E+02 -0.13071087332E+03 -0.50281479322E+02  0.22079395781E+03  0.17004959637E+03 0.  0.
         24    2    5    5    0    0 -0.29646261330E+01 -0.38911078101E+02 -0.83545868765E+02  0.12232419803E+03  0.80376838877E+02 0.  0.
          5    1    5    5  501    0 -0.11852492734E+02 -0.91799795219E+02  0.33264389444E+02  0.98469759781E+02  0.47000000000E+01 0. -1.
        -11    1    6    6    0    0 -0.33877396149E+02 -0.10225188403E+02 -0.69298085146E+02  0.77810391675E+02  0.00000000000E+00 0.  1.
         12    1    6    6    0    0  0.30912770016E+02 -0.28685889698E+02 -0.14247783620E+02  0.44513806351E+02  0.00000000000E+00 0. -1.
         -5    1    3    3    0  503  0.68812922912E+02  0.83595820880E+02  0.46502730075E+02  0.11793249566E+03  0.47000000000E+01 0.  1.
         13    1    4    4    0    0 -0.59915751513E+02  0.21009331581E+02 -0.17887614339E+02  0.65964051116E+02  0.00000000000E+00 0. -1.
        -14    1    4    4    0    0  0.59199474677E+01  0.26105720859E+02  0.33900309269E+02  0.43194738199E+02  0.00000000000E+00 0.  1.
</event>
<event>
12    1  0.9873238E-001  0.2373347E+03  0.7818608E-02  0.1122033E+00
         21   -1    0    0  501  502  0.00000000000E+00  0.00000000000E+00  0.80448359096E+02  0.80448359096E+02  0.00000000000E+00 0.  1.
         21   -1    0    0  502  503 -0.00000000000E+00 -0.00000000000E+00 -0.82444690364E+03  0.82444690364E+03  0.00000000000E+00 0.  1.
         -6    2    1    2    0  503 -0.54139593165E+02 -0.15326648393E+03 -0.55133752419E+03  0.59920584939E+03  0.16927159749E+03 0.  0.
        -24    2    3    3    0    0 -0.32730479009E+01 -0.59341143101E+02 -0.40700167070E+03  0.41958317910E+03  0.82870984848E+02 0.  0.
          6    2    1    2  501    0  0.54139593165E+02  0.15326648393E+03 -0.19266102036E+03  0.30568941335E+03  0.17293362318E+03 0.  0.
         24    2    5    5    0    0 -0.22999319242E+02  0.47122359396E+02 -0.13508276462E+03  0.16232159090E+03  0.73153674793E+02 0.  0.
          5    1    5    5  501    0  0.77138912408E+02  0.10614412453E+03 -0.57578255740E+02  0.14336782245E+03  0.47000000000E+01 0. -1.
        -11    1    6    6    0    0 -0.48102067690E+02  0.36338388515E+02 -0.74298059462E+02  0.95679094037E+02  0.00000000000E+00 0.  1.
         12    1    6    6    0    0  0.25102748448E+02  0.10783970881E+02 -0.60784705154E+02  0.66642496864E+02  0.00000000000E+00 0. -1.
         -5    1    3    3    0  503 -0.50866545264E+02 -0.93925340827E+02 -0.14433585349E+03  0.17962267029E+03  0.47000000000E+01 0.  1.
         13    1    4    4    0    0 -0.55254746743E+01  0.99847761591E+01 -0.65277023672E+01  0.13146768558E+02  0.00000000000E+00 0. -1.
        -14    1    4    4    0    0  0.22524267734E+01 -0.69325919260E+02 -0.40047396833E+03  0.40643641055E+03  0.00000000000E+00 0.  1.
</event>
<event>
12    1  0.9873238E-001  0.2868786E+03  0.7818608E-02  0.1092122E+00
         21   -1    0    0  501  502  0.00000000000E+00  0.00000000000E+00  0.53608836549E+02  0.53608836549E+02  0.00000000000E+00 0.  1.
         21   -1    0    0  502  503 -0.00000000000E+00 -0.00000000000E+00 -0.15832282558E+04  0.15832282558E+04  0.00000000000E+00 0.  1.
         -6    2    1    2    0  503  0.16798565128E+03 -0.15706873150E+03 -0.91378946692E+03  0.95746542988E+03  0.16982077057E+03 0.  0.
        -24    2    3    3    0    0  0.12636927564E+03 -0.14487020467E+03 -0.86742101725E+03  0.89380343256E+03  0.97512998451E+02 0.  0.
          6    2    1    2  501    0 -0.16798565128E+03  0.15706873150E+03 -0.61582995231E+03  0.67937166245E+03  0.17149215759E+03 0.  0.
         24    2    5    5    0    0 -0.61804015521E+02  0.14669170371E+03 -0.39807695714E+03  0.43684191296E+03  0.83829594053E+02 0.  0.
          5    1    5    5  501    0 -0.10618163576E+03  0.10377027786E+02 -0.21775299517E+03  0.24252974948E+03  0.47000000000E+01 0. -1.
        -13    1    6    6    0    0 -0.12683801977E+02 -0.96260079231E+01 -0.30805465381E+02  0.34677306102E+02  0.00000000000E+00 0.  1.
         14    1    6    6    0    0 -0.49120213544E+02  0.15631771164E+03 -0.36727149176E+03  0.40216460686E+03  0.00000000000E+00 0. -1.
         -5    1    3    3    0  503  0.41616375639E+02 -0.12198526835E+02 -0.46368449672E+02  0.63661997324E+02  0.47000000000E+01 0.  1.
         13    1    4    4    0    0  0.78591422575E+02 -0.10427733271E+03 -0.36834056430E+03  0.39080064628E+03  0.00000000000E+00 0. -1.
        -14    1    4    4    0    0  0.47777853070E+02 -0.40592871956E+02 -0.49908045294E+03  0.50300278628E+03  0.00000000000E+00 0.  1.
</event>
<event>
12    1  0.9873238E-001  0.1932745E+03  0.7818608E-02  0.1157788E+00
         21   -1    0    0  503  502  0.00000000000E+00  0.00000000000E+00  0.84796488159E+03  0.84796488159E+03  0.00000000000E+00 0. -1.
         21   -1    0    0  501  503 -0.00000000000E+00 -0.00000000000E+00 -0.46504258622E+02  0.46504258622E+02  0.00000000000E+00 0. -1.
          6    2    1    2  501    0  0.78156521901E+02 -0.25956488454E+02  0.55205569392E+03  0.58491069158E+03  0.17485092716E+03 0.  0.
         24    2    3    3    0    0  0.69605391013E+02 -0.46102068322E+02  0.55051472697E+03  0.56247342778E+03  0.79621486959E+02 0.  0.
         -6    2    1    2    0  502 -0.78156521901E+02  0.25956488454E+02  0.24940492905E+03  0.30955844863E+03  0.16383355357E+03 0.  0.
        -24    2    5    5    0    0 -0.45856883167E+02  0.10941817223E+02  0.43859174274E+02  0.10089639094E+03  0.77678037040E+02 0.  0.
          5    1    3    3  501    0  0.85511308880E+01  0.20145579867E+02  0.15409669452E+01  0.22437263799E+02  0.47000000000E+01 0. -1.
        -11    1    4    4    0    0  0.78546816295E+02 -0.31481604480E+02  0.30979038029E+03  0.32113980365E+03  0.00000000000E+00 0.  1.
         12    1    4    4    0    0 -0.89414252814E+01 -0.14620463842E+02  0.24072434668E+03  0.24133362413E+03  0.00000000000E+00 0. -1.
         -5    1    5    5    0  502 -0.32299638734E+02  0.15014671231E+02  0.20554575478E+03  0.20866205770E+03  0.47000000000E+01 0.  1.
         11    1    6    6    0    0  0.83766464744E+01  0.27348455400E+02  0.32162086372E+02  0.43040748352E+02  0.00000000000E+00 0. -1.
        -12    1    6    6    0    0 -0.54233529641E+02 -0.16406638176E+02  0.11697087902E+02  0.57855642586E+02  0.00000000000E+00 0.  1.
</event>
<event>
12    1  0.9873238E-001  0.2629692E+03  0.7818608E-02  0.1105699E+00
         21   -1    0    0  503  502  0.00000000000E+00  0.00000000000E+00  0.48687792753E+03  0.48687792753E+03  0.00000000000E+00 0. -1.
         21   -1    0    0  501  503 -0.00000000000E+00 -0.00000000000E+00 -0.25089405580E+03  0.25089405580E+03  0.00000000000E+00 0. -1.
          6    2    1    2  501    0 -0.16782251504E+03  0.10484542422E+03  0.36201641252E+03  0.44616092440E+03  0.16984324535E+03 0.  0.
         24    2    3    3    0    0 -0.53327309655E+02 -0.12330349395E+02  0.12772724168E+03  0.16023642466E+03  0.79784861023E+02 0.  0.
         -6    2    1    2    0  502  0.16782251504E+03 -0.10484542422E+03 -0.12603254079E+03  0.29161105893E+03  0.17319309691E+03 0.  0.
        -24    2    5    5    0    0  0.44724945674E+02 -0.21989277754E+02  0.52122878689E+00  0.96531333728E+02  0.82669084972E+02 0.  0.
          5    1    3    3  501    0 -0.11449520538E+03  0.11717577362E+03  0.23428917084E+03  0.28592449974E+03  0.47000000000E+01 0. -1.
        -13    1    4    4    0    0 -0.16853025212E+02  0.32953730471E+02  0.64281830017E+02  0.74176320218E+02  0.00000000000E+00 0.  1.
         14    1    4    4    0    0 -0.36474284442E+02 -0.45284079866E+02  0.63445411667E+02  0.86060104442E+02  0.00000000000E+00 0. -1.
         -5    1    5    5    0  502  0.12309756936E+03 -0.82856146468E+02 -0.12655376958E+03  0.19507972520E+03  0.47000000000E+01 0.  1.
         11    1    6    6    0    0  0.24894970759E+02 -0.66242836128E+01 -0.40764167889E+02  0.48221966843E+02  0.00000000000E+00 0. -1.
        -12    1    6    6    0    0  0.19829974915E+02 -0.15364994141E+02  0.41285396676E+02  0.48309366885E+02  0.00000000000E+00 0.  1.
</event>
<event>
12    1  0.9873238E-001  0.1839210E+03  0.7818608E-02  0.1164156E+00
         21   -1    0    0  503  502  0.00000000000E+00  0.00000000000E+00  0.12650754664E+03  0.12650754664E+03  0.00000000000E+00 0.  1.
         21   -1    0    0  501  503 -0.00000000000E+00 -0.00000000000E+00 -0.38432884185E+03  0.38432884185E+03  0.00000000000E+00 0.  1.
          6    2    1    2  501    0 -0.62744913408E+02  0.17587189554E+02 -0.27005316046E+03  0.32650913627E+03  0.17156128118E+03 0.  0.
         24    2    3    3    0    0  0.38797075251E+02  0.26764622076E+02 -0.17165545285E+03  0.18473749034E+03  0.49404329767E+02 0.  0.
         -6    2    1    2    0  502  0.62744913408E+02 -0.17587189554E+02  0.12231865246E+02  0.18432725222E+03  0.17199036016E+03 0.  0.
        -24    2    5    5    0    0  0.66533963659E+02  0.49495435804E+02 -0.24959894580E+01  0.11538209118E+03  0.80188718127E+02 0.  0.
          5    1    3    3  501    0 -0.10154198866E+03 -0.91774325219E+01 -0.98397707610E+02  0.14177164594E+03  0.47000000000E+01 0. -1.
        -11    1    4    4    0    0  0.21955736252E+02  0.37894474057E+02 -0.83366622607E+02  0.94170267512E+02  0.00000000000E+00 0.  1.
         12    1    4    4    0    0  0.16841338998E+02 -0.11129851981E+02 -0.88288830245E+02  0.90567222826E+02  0.00000000000E+00 0. -1.
         -5    1    5    5    0  502 -0.37890502509E+01 -0.67082625358E+02  0.14727854704E+02  0.68945161040E+02  0.47000000000E+01 0.  1.
         13    1    6    6    0    0  0.19792454393E+02 -0.16393981514E+02 -0.20189819062E+02  0.32682299101E+02  0.00000000000E+00 0. -1.
        -14    1    6    6    0    0  0.46741509267E+02  0.65889417318E+02  0.17693829604E+02  0.82699792074E+02  0.00000000000E+00 0.  1.
</event>
<event>
12    1  0.9873238E-001  0.2954780E+03  0.7818608E-02  0.1087735E+00
         21   -1    0    0  503  502  0.00000000000E+00  0.00000000000E+00  0.46865223539E+03  0.46865223539E+03  0.00000000000E+00 0.  1.
         21   -1    0    0  501  503 -0.00000000000E+00 -0.00000000000E+00 -0.20757632041E+03  0.20757632041E+03  0.00000000000E+00 0.  1.
          6    2    1    2  501    0  0.23975969771E+03 -0.10951236444E+02  0.24109030900E+03  0.38007538313E+03  0.16949370944E+03 0.  0.
         24    2    3    3    0    0  0.64092531681E+02 -0.41327613348E+02  0.57399757364E+02  0.12405587947E+03  0.79242064855E+02 0.  0.
         -6    2    1    2    0  502 -0.23975969771E+03  0.10951236444E+02  0.19985605979E+02  0.29615317267E+03  0.17234452416E+03 0.  0.
        -24    2    5    5    0    0 -0.18745061370E+03  0.42731332769E+02  0.65649979600E+02  0.21964474300E+03  0.83487687289E+02 0.  0.
          5    1    3    3  501    0  0.17566716603E+03  0.30376376904E+02  0.18369055163E+03  0.25601950366E+03  0.47000000000E+01 0. -1.
        -11    1    4    4    0    0  0.78355258617E+02 -0.42577962403E+02  0.31711224695E+02  0.94646876372E+02  0.00000000000E+00 0.  1.
         12    1    4    4    0    0 -0.14262726935E+02  0.12503490552E+01  0.25688532669E+02  0.29409003096E+02  0.00000000000E+00 0. -1.
         -5    1    5    5    0  502 -0.52309084015E+02 -0.31780096325E+02 -0.45664373621E+02  0.76508429673E+02  0.47000000000E+01 0.  1.
         13    1    6    6    0    0 -0.17895123195E+03  0.17887611996E+02  0.70082778469E+02  0.19301581779E+03  0.00000000000E+00 0. -1.
        -14    1    6    6    0    0 -0.84993817509E+01  0.24843720772E+02 -0.44327988699E+01  0.26628925209E+02  0.00000000000E+00 0.  1.
</event>
<event>
12    1  0.9873238E-001  0.4198939E+03  0.7818608E-02  0.1037136E+00
         21   -1    0    0  501  502  0.00000000000E+00  0.00000000000E+00  0.19993406738E+04  0.19993406738E+04  0.00000000000E+00 0. -1.
         21   -1    0    0  502  503 -0.00000000000E+00 -0.00000000000E+00 -0.99000355349E+02  0.99000355349E+02  0.00000000000E+00 0. -1.
         -6    2    1    2    0  503  0.22769125943E+03  0.30776476475E+03  0.12988149787E+04  0.13650022837E+04  0.17247731862E+03 0.  0.
        -24    2    3    3    0    0  0.29347382937E+02  0.11186681100E+03  0.40897145101E+03  0.43250032902E+03  0.80146332237E+02 0.  0.
          6    2    1    2  501    0 -0.22769125943E+03 -0.30776476475E+03  0.60152533974E+03  0.73333874549E+03  0.17143663915E+03 0.  0.
         24    2    5    5    0    0 -0.14946638434E+03 -0.22935324308E+03  0.52868431635E+03  0.60069108248E+03  0.79872148200E+02 0.  0.
          5    1    5    5  501    0 -0.78224875090E+02 -0.78411521669E+02  0.72841023395E+02  0.13264766301E+03  0.47000000000E+01 0. -1.
        -11    1    6    6    0    0 -0.14111231521E+03 -0.22932467423E+03  0.47206826126E+03  0.54346199040E+03  0.00000000000E+00 0.  1.
         12    1    6    6    0    0 -0.83540691259E+01 -0.28568853363E-01  0.56616055084E+02  0.57229092081E+02  0.00000000000E+00 0. -1.
         -5    1    3    3    0  503  0.19834387649E+03  0.19589795375E+03  0.88984352770E+03  0.93250195464E+03  0.47000000000E+01 0.  1.
         11    1    4    4    0    0  0.21225224328E+02  0.62939956924E+02  0.10316862873E+03  0.12270172892E+03  0.00000000000E+00 0. -1.
        -12    1    4    4    0    0  0.81221586092E+01  0.48926854078E+02  0.30580282228E+03  0.30979860010E+03  0.00000000000E+00 0.  1.
</event>
<event>
12    1  0.9873238E-001  0.2183209E+03  0.7818608E-02  0.1135282E+00
         21   -1    0    0  503  502  0.00000000000E+00  0.00000000000E+00  0.23320377342E+03  0.23320377342E+03  0.00000000000E+00 0. -1.
         21   -1    0    0  501  503 -0.00000000000E+00 -0.00000000000E+00 -0.21109005185E+03  0.21109005185E+03  0.00000000000E+00 0. -1.
          6    2    1    2  501    0  0.13023062270E+03 -0.29528193715E+02  0.52673682424E+02  0.22458528705E+03  0.17271972969E+03 0.  0.
         24    2    3    3    0    0  0.72143297682E+02 -0.57115478181E+02  0.88919557157E+02  0.15061874713E+03  0.79451155401E+02 0.  0.
         -6    2    1    2    0  502 -0.13023062270E+03  0.29528193715E+02 -0.30559960857E+02  0.21970853822E+03  0.17177310979E+03 0.  0.
        -24    2    5    5    0    0 -0.47183452373E+02  0.17635105173E+02  0.46780752870E+02  0.10550716322E+03  0.80037788190E+02 0.  0.
          5    1    3    3  501    0  0.58087325017E+02  0.27587284465E+02 -0.36245874732E+02  0.73966539915E+02  0.47000000000E+01 0. -1.
        -11    1    4    4    0    0  0.80768738074E+02 -0.19919924965E+02  0.56893323862E+02  0.10078314721E+03  0.00000000000E+00 0.  1.
         12    1    4    4    0    0 -0.86254403924E+01 -0.37195553215E+02  0.32026233295E+02  0.49835599926E+02  0.00000000000E+00 0. -1.
         -5    1    5    5    0  502 -0.83047170326E+02  0.11893088543E+02 -0.77340713727E+02  0.11420137501E+03  0.47000000000E+01 0.  1.
         13    1    6    6    0    0 -0.28166102703E+02  0.11705640285E+01  0.67351131570E+02  0.73012837812E+02  0.00000000000E+00 0. -1.
        -14    1    6    6    0    0 -0.19017349670E+02  0.16464541144E+02 -0.20570378700E+02  0.32494325403E+02  0.00000000000E+00 0.  1.
</event>
<event>
12    1  0.9873238E-001  0.2435222E+03  0.7818608E-02  0.1117726E+00
         21   -1    0    0  501  502  0.00000000000E+00  0.00000000000E+00  0.35134344980E+03  0.35134344980E+03  0.00000000000E+00 0.  1.
         21   -1    0    0  502  503 -0.00000000000E+00 -0.00000000000E+00 -0.18342677680E+03  0.18342677680E+03  0.00000000000E+00 0. -1.
         -6    2    1    2    0  503 -0.15609593950E+03  0.82404117789E+02  0.59173455053E+01  0.24359411627E+03  0.16776977542E+03 0.  0.
        -24    2    3    3    0    0 -0.28670240555E+02 -0.50191210455E+01 -0.11094748090E+02  0.88057520034E+02  0.82364185966E+02 0.  0.
          6    2    1    2  501    0  0.15609593950E+03 -0.82404117789E+02  0.16199932750E+03  0.29117611034E+03  0.16547919557E+03 0.  0.
         24    2    5    5    0    0  0.32669753533E+02  0.69616728275E+01  0.64938332467E+02  0.11044649276E+03  0.82859296733E+02 0.  0.
          5    1    5    5  501    0  0.12342618596E+03 -0.89365790617E+02  0.97060995029E+02  0.18072961758E+03  0.47000000000E+01 0. -1.
        -13    1    6    6    0    0 -0.17020118958E+02  0.76387973611E+01  0.57184578215E+02  0.60150741143E+02  0.00000000000E+00 0.  1.
         14    1    6    6    0    0  0.49689872490E+02 -0.67712453355E+00  0.77537542519E+01  0.50295751617E+02  0.00000000000E+00 0. -1.
         -5    1    3    3    0  503 -0.12742569894E+03  0.87423238835E+02  0.17012093595E+02  0.15553659623E+03  0.47000000000E+01 0.  1.
         11    1    4    4    0    0 -0.49991132417E+02 -0.21433866957E+02  0.81178077106E+01  0.54994752250E+02  0.00000000000E+00 0. -1.
        -12    1    4    4    0    0  0.21320891862E+02  0.16414745911E+02 -0.19212555800E+02  0.33062767784E+02  0.00000000000E+00 0.  1.
</event>
<event>
12    1  0.9873238E-001  0.2064694E+03  0.7818608E-02  0.1144964E+00
         21   -1    0    0  503  502  0.00000000000E+00  0.00000000000E+00  0.46203893456E+03  0.46203893456E+03  0.00000000000E+00 0.  1.
         21   -1    0    0  501  503 -0.00000000000E+00 -0.00000000000E+00 -0.10009435900E+03  0.10009435900E+03  0.00000000000E+00 0.  1.
          6    2    1    2  501    0 -0.39331729579E+01 -0.11107888811E+03  0.97454617717E+02  0.22831340270E+03  0.17399890260E+03 0.  0.
         24    2    3    3    0    0  0.10910881417E+02 -0.11047342892E+03  0.12750198207E+03  0.19446600050E+03  0.96108501637E+02 0.  0.
         -6    2    1    2    0  502  0.39331729579E+01  0.11107888811E+03  0.26448995785E+03  0.33381989085E+03  0.17066573321E+03 0.  0.
        -24    2    5    5    0    0 -0.63055849199E+02  0.63362938613E+02  0.17737372550E+03  0.21392131344E+03  0.79435431260E+02 0.  0.
          5    1    3    3  501    0 -0.14844054375E+02 -0.60545918898E+00 -0.30047364356E+02  0.33847402202E+02  0.47000000000E+01 0. -1.
        -13    1    4    4    0    0 -0.32682693834E+01  0.17405757144E+02  0.20774482054E+02  0.27298737537E+02  0.00000000000E+00 0.  1.
         14    1    4    4    0    0  0.14179150801E+02 -0.12787918607E+03  0.10672750002E+03  0.16716726296E+03  0.00000000000E+00 0. -1.
         -5    1    5    5    0  502  0.66989022157E+02  0.47715949500E+02  0.87116232350E+02  0.11989857741E+03  0.47000000000E+01 0.  1.
         13    1    6    6    0    0 -0.86834705091E+01  0.53989327555E+02  0.13060973655E+03  0.14159503322E+03  0.00000000000E+00 0. -1.
        -14    1    6    6    0    0 -0.54372378690E+02  0.93736110576E+01  0.46763988945E+02  0.72326280222E+02  0.00000000000E+00 0.  1.
</event>
<event>
12    1  0.9873238E-001  0.2454156E+03  0.7818608E-02  0.1116674E+00
         21   -1    0    0  501  502  0.00000000000E+00  0.00000000000E+00  0.10604551459E+03  0.10604551459E+03  0.00000000000E+00 0.  1.
         21   -1    0    0  502  503 -0.00000000000E+00 -0.00000000000E+00 -0.58545977447E+03  0.58545977447E+03  0.00000000000E+00 0.  1.
         -6    2    1    2    0  503  0.40863529911E+02 -0.16667851884E+03 -0.30801115086E+03  0.39215957240E+03  0.17165868592E+03 0.  0.
        -24    2    3    3    0    0  0.37755116477E+02 -0.42227280186E+02 -0.22299190235E+03  0.24133472149E+03  0.72859229125E+02 0.  0.
          6    2    1    2  501    0 -0.40863529911E+02  0.16667851884E+03 -0.17140310901E+03  0.29934571667E+03  0.17543453362E+03 0.  0.
         24    2    5    5    0    0 -0.43128742743E+02  0.98756188182E+02 -0.18644662798E+03  0.22958203232E+03  0.79578208848E+02 0.  0.
          5    1    5    5  501    0  0.22652128320E+01  0.67922330655E+02  0.15043518966E+02  0.69763684347E+02  0.47000000000E+01 0. -1.
        -13    1    6    6    0    0 -0.42323658706E+02  0.56735947280E+02 -0.49611879782E+02  0.86438408220E+02  0.00000000000E+00 0.  1.
         14    1    6    6    0    0 -0.80508403763E+00  0.42020240901E+02 -0.13683474820E+03  0.14314362410E+03  0.00000000000E+00 0. -1.
         -5    1    3    3    0  503  0.31084134339E+01 -0.12445123865E+03 -0.85019248508E+02  0.15082485091E+03  0.47000000000E+01 0.  1.
         11    1    4    4    0    0 -0.12369790463E+02  0.10659692220E+02 -0.69961057139E+02  0.71841424473E+02  0.00000000000E+00 0. -1.
        -12    1    4    4    0    0  0.50124906941E+02 -0.52886972406E+02 -0.15303084521E+03  0.16949329701E+03  0.00000000000E+00 0.  1.
</event>
<event>
12    1  0.9873238E-001  0.3009202E+03  0.7818608E-02  0.1084965E+00
         21   -1    0    0  503  502  0.00000000000E+00  0.00000000000E+00  0.47122246046E+03  0.47122246046E+03  0.00000000000E+00 0.  1.
         21   -1    0    0  501  503 -0.00000000000E+00 -0.00000000000E+00 -0.54231853070E+03  0.54231853070E+03  0.00000000000E+00 0.  1.
          6    2    1    2  501    0 -0.18282835883E+03  0.16302937404E+03 -0.44326681470E+03  0.53493467140E+03  0.17223486309E+03 0.  0.
         24    2    3    3    0    0 -0.78520700331E+02  0.75107471707E+02 -0.10564543945E+03  0.17076351445E+03  0.78692987646E+02 0.  0.
         -6    2    1    2    0  502  0.18282835883E+03 -0.16302937404E+03  0.37217074446E+03  0.47860631975E+03  0.17478032121E+03 0.  0.
        -24    2    5    5    0    0  0.12056190802E+03 -0.29848882247E+02  0.13808164473E+03  0.20213941232E+03  0.79797693988E+02 0.  0.
          5    1    3    3  501    0 -0.10430765850E+03  0.87921902333E+02 -0.33762137525E+03  0.36417115695E+03  0.47000000000E+01 0. -1.
        -11    1    4    4    0    0  0.11553937385E+02 -0.58236260620E+01 -0.12509140383E+02  0.17996852023E+02  0.00000000000E+00 0.  1.
         12    1    4    4    0    0 -0.90074637716E+02  0.80931097769E+02 -0.93136299068E+02  0.15276666243E+03  0.00000000000E+00 0. -1.
         -5    1    5    5    0  502  0.62266450806E+02 -0.13318049179E+03  0.23408909974E+03  0.27646690743E+03  0.47000000000E+01 0.  1.
         13    1    6    6    0    0  0.11353632042E+03 -0.51613265984E+02  0.11835407551E+03  0.17193636168E+03  0.00000000000E+00 0. -1.
        -14    1    6    6    0    0  0.70255876080E+01  0.21764383737E+02  0.19727569215E+02  0.30203050638E+02  0.00000000000E+00 0.  1.
</event>
<event>
12    1  0.9873238E-001  0.4729333E+03  0.7818608E-02  0.1021139E+00
         21   -1    0    0  501  502  0.00000000000E+00  0.00000000000E+00  0.13615132376E+04  0.13615132376E+04  0.00000000000E+00 0.  1.
         21   -1    0    0  502  503 -0.00000000000E+00 -0.00000000000E+00 -0.22949237184E+03  0.22949237184E+03  0.00000000000E+00 0.  1.
         -6    2    1    2    0  503 -0.42222451441E+03  0.12464771961E+03  0.99050446874E+03  0.10973531040E+04  0.17109686642E+03 0.  0.
        -24    2    3    3    0    0 -0.12537626505E+03  0.47803020715E+02  0.46654142500E+03  0.49024244514E+03  0.68355081380E+02 0.  0.
          6    2    1    2  501    0  0.42222451441E+03 -0.12464771961E+03  0.14151639703E+03  0.49365250545E+03  0.17278689458E+03 0.  0.
         24    2    5    5    0    0  0.10686879725E+03 -0.35933422276E+02  0.24366957276E+01  0.13772455177E+03  0.79056713897E+02 0.  0.
          5    1    5    5  501    0  0.31535571717E+03 -0.88714297334E+02  0.13907970130E+03  0.35592795369E+03  0.47000000000E+01 0. -1.
        -11    1    6    6    0    0  0.28853780929E+02  0.23605913757E+02 -0.10515635297E+02  0.38734460419E+02  0.00000000000E+00 0.  1.
         12    1    6    6    0    0  0.78015016320E+02 -0.59539336033E+02  0.12952331025E+02  0.98990091351E+02  0.00000000000E+00 0. -1.
         -5    1    3    3    0  503 -0.29684824936E+03  0.76844698895E+02  0.52396304374E+03  0.60711065887E+03  0.47000000000E+01 0.  1.
         13    1    4    4    0    0 -0.56539616309E+02  0.35555512743E+02  0.12610419803E+03  0.14269965473E+03  0.00000000000E+00 0. -1.
        -14    1    4    4    0    0 -0.68836648741E+02  0.12247507972E+02  0.34043722697E+03  0.34754279042E+03  0.00000000000E+00 0.  1.
</event>
<event>
12    1  0.9873238E-001  0.1875479E+03  0.7818608E-02  0.1160823E+00
         21   -1    0    0  501  502  0.00000000000E+00  0.00000000000E+00  0.21015867413E+02  0.21015867413E+02  0.00000000000E+00 0. -1.
         21   -1    0    0  502  503 -0.00000000000E+00 -0.00000000000E+00 -0.26071564664E+04  0.26071564664E+04  0.00000000000E+00 0. -1.
         -6    2    1    2    0  503 -0.72749646951E+02 -0.15732088493E+02 -0.50588921916E+03  0.53953509079E+03  0.17214587532E+03 0.  0.
        -24    2    3    3    0    0 -0.72088345373E+01  0.23273493607E+02 -0.11995736849E+03  0.14611099787E+03  0.79781142153E+02 0.  0.
          6    2    1    2  501    0  0.72749646951E+02  0.15732088493E+02 -0.20802513798E+04  0.20886372430E+04  0.17152177686E+03 0.  0.
         24    2    5    5    0    0  0.47802604375E+02  0.34613931820E+02 -0.61476742731E+03  0.62281181548E+03  0.80450945077E+02 0.  0.
          5    1    5    5  501    0  0.24947042576E+02 -0.18881843327E+02 -0.14654839525E+04  0.14658254275E+04  0.47000000000E+01 0. -1.
        -11    1    6    6    0    0  0.34193499076E+02  0.11282024263E+02 -0.56534001761E+03  0.56648549404E+03  0.00000000000E+00 0.  1.
         12    1    6    6    0    0  0.13609105299E+02  0.23331907557E+02 -0.49427409697E+02  0.56326321438E+02  0.00000000000E+00 0. -1.
         -5    1    3    3    0  503 -0.65540812413E+02 -0.39005582100E+02 -0.38593185067E+03  0.39342409292E+03  0.47000000000E+01 0.  1.
         13    1    4    4    0    0 -0.13695240923E+02  0.94744786207E+00 -0.12200212029E+03  0.12277204338E+03  0.00000000000E+00 0. -1.
        -14    1    4    4    0    0  0.64864063855E+01  0.22326045745E+02  0.20447518032E+01  0.23338954483E+02  0.00000000000E+00 0.  1.
</event>
<event>
12    1  0.9873238E-001  0.3182296E+03  0.7818608E-02  0.1076473E+00
         21   -1    0    0  503  502  0.00000000000E+00  0.00000000000E+00  0.80509176892E+03  0.80509176892E+03  0.00000000000E+00 0.  1.
         21   -1    0    0  501  503 -0.00000000000E+00 -0.00000000000E+00 -0.12992640856E+03  0.12992640856E+03  0.00000000000E+00 0.  1.
          6    2    1    2  501    0 -0.98271863273E+02 -0.24889504888E+03  0.42120969889E+03  0.52787744059E+03  0.17213621752E+03 0.  0.
         24    2    3    3    0    0 -0.97360029638E+02 -0.13916162709E+03  0.35511359957E+03  0.39968602261E+03  0.69269865376E+02 0.  0.
         -6    2    1    2    0  502  0.98271863273E+02  0.24889504888E+03  0.25395566146E+03  0.40714073689E+03  0.17223239293E+03 0.  0.
        -24    2    5    5    0    0  0.12646895488E+03  0.17412895707E+03  0.22653274333E+03  0.32252897117E+03  0.79953506500E+02 0.  0.
          5    1    3    3  501    0 -0.91183363486E+00 -0.10973342179E+03  0.66096099323E+02  0.12819141798E+03  0.47000000000E+01 0. -1.
        -13    1    4    4    0    0 -0.14345448011E+02  0.39662577352E+01  0.13424370812E+02  0.20043373238E+02  0.00000000000E+00 0.  1.
         14    1    4    4    0    0 -0.83014581627E+02 -0.14312788482E+03  0.34168922875E+03  0.37964264937E+03  0.00000000000E+00 0. -1.
         -5    1    5    5    0  502 -0.28197091610E+02  0.74766091805E+02  0.27422918136E+02  0.84611765719E+02  0.47000000000E+01 0.  1.
         13    1    6    6    0    0  0.58449313352E+02  0.14295614981E+03  0.16042589375E+03  0.22268643961E+03  0.00000000000E+00 0. -1.
        -14    1    6    6    0    0  0.68019641531E+02  0.31172807258E+02  0.66106849580E+02  0.99842531557E+02  0.00000000000E+00 0.  1.
</event>
<event>
12    1  0.9873238E-001  0.2786358E+03  0.7818608E-02  0.1097008E+00
         21   -1    0    0  503  502  0.00000000000E+00  0.00000000000E+00  0.26343069044E+03  0.26343069044E+03  0.00000000000E+00 0.  1.
         21   -1    0    0  501  503 -0.00000000000E+00 -0.00000000000E+00 -0.54356414489E+03  0.54356414489E+03  0.00000000000E+00 0. -1.
          6    2    1    2  501    0  0.10196962475E+03 -0.18946273377E+03  0.13587434414E+03  0.30629493513E+03  0.17047233801E+03 0.  0.
         24    2    3    3    0    0  0.44963601758E+02 -0.15975227844E+03  0.36382573333E+02  0.18774916223E+03  0.79897060803E+02 0.  0.
         -6    2    1    2    0  502 -0.10196962475E+03  0.18946273377E+03 -0.41600779859E+03  0.50069990021E+03  0.17704228229E+03 0.  0.
        -24    2    5    5    0    0 -0.13873719462E+03  0.14964949283E+03 -0.36742172402E+03  0.42776400376E+03  0.79626250417E+02 0.  0.
          5    1    3    3  501    0  0.57006022994E+02 -0.29710455335E+02  0.99491770810E+02  0.11854577290E+03  0.47000000000E+01 0. -1.
        -13    1    4    4    0    0  0.64274301033E+02 -0.10202950702E+03  0.39251403555E+02  0.12681434760E+03  0.00000000000E+00 0.  1.
         14    1    4    4    0    0 -0.19310699276E+02 -0.57722771418E+02 -0.28688302218E+01  0.60934814627E+02  0.00000000000E+00 0. -1.
         -5    1    5    5    0  502  0.36767569869E+02  0.39813240941E+02 -0.48586074573E+02  0.72935896448E+02  0.47000000000E+01 0.  1.
         11    1    6    6    0    0 -0.91095057831E+02  0.40443570492E+02 -0.15751217855E+03  0.18639763504E+03  0.00000000000E+00 0. -1.
        -12    1    6    6    0    0 -0.47642136790E+02  0.10920592234E+03 -0.20990954547E+03  0.24136636872E+03  0.00000000000E+00 0.  1.
</event>
<event>
12    1  0.9873238E-001  0.3772175E+03  0.7818608E-02  0.1051987E+00
         21   -1    0    0  501  502  0.00000000000E+00  0.00000000000E+00  0.10272544540E+03  0.10272544540E+03  0.00000000000E+00 0. -1.
         21   -1    0    0  502  503 -0.00000000000E+00 -0.00000000000E+00 -0.14259836005E+04  0.14259836005E+04  0.00000000000E+00 0. -1.
         -6    2    1    2    0  503 -0.22400243092E+03  0.24978950202E+03 -0.79197064577E+03  0.87712675092E+03  0.17193588641E+03 0.  0.
        -24    2    3    3    0    0 -0.13218585212E+03  0.11135966636E+03 -0.56288664081E+03  0.59411672482E+03  0.79115343110E+02 0.  0.
          6    2    1    2  501    0  0.22400243092E+03 -0.24978950202E+03 -0.53128750938E+03  0.65158229502E+03  0.17239833291E+03 0.  0.
         24    2    5    5    0    0  0.21198643521E+03 -0.26600478593E+03 -0.46229507870E+03  0.57954504719E+03  0.80367450342E+02 0.  0.
          5    1    5    5  501    0  0.12015995716E+02  0.16215283916E+02 -0.68992430672E+02  0.72037247835E+02  0.47000000000E+01 0. -1.
        -13    1    6    6    0    0  0.10829831935E+03 -0.18734324102E+03 -0.32420245184E+03  0.38978615381E+03  0.00000000000E+00 0.  1.
         14    1    6    6    0    0  0.10368811586E+03 -0.78661544914E+02 -0.13809262687E+03  0.18975889337E+03  0.00000000000E+00 0. -1.
         -5    1    3    3    0  503 -0.91816578808E+02  0.13842983566E+03 -0.22908400496E+03  0.28301002610E+03  0.47000000000E+01 0.  1.
         13    1    4    4    0    0 -0.26240008782E+02  0.40624435629E+02 -0.27619233730E+03  0.28039452565E+03  0.00000000000E+00 0. -1.
        -14    1    4    4    0    0 -0.10594584333E+03  0.70735230730E+02 -0.28669430351E+03  0.31372219917E+03  0.00000000000E+00 0.  1.
</event>
<event>
12    1  0.9873238E-001  0.4915866E+03  0.7818608E-02  0.1016462E+00
         21   -1    0    0  503  502  0.00000000000E+00  0.00000000000E+00  0.28995125691E+03  0.28995125691E+03  0.00000000000E+00 0. -1.
         21   -1    0    0  501  503 -0.00000000000E+00 -0.00000000000E+00 -0.85023653869E+03  0.85023653869E+03  0.00000000000E+00 0. -1.
          6    2    1    2  501    0  0.14580334094E+03  0.43682195599E+03 -0.38635515283E+03  0.62524209115E+03  0.17200387484E+03 0.  0.
         24    2    3    3    0    0  0.70870638302E+02  0.14612100612E+03 -0.11072248500E+03  0.21766705541E+03  0.93517284627E+02 0.  0.
         -6    2    1    2    0  502 -0.14580334094E+03 -0.43682195599E+03 -0.17393012895E+03  0.51494570445E+03  0.15114679391E+03 0.  0.
        -24    2    5    5    0    0 -0.10269583794E+03 -0.36963121953E+03 -0.18664583039E+03  0.43397267843E+03  0.79510666164E+02 0.  0.
          5    1    3    3  501    0  0.74932702636E+02  0.29070094987E+03 -0.27563266783E+03  0.40757503574E+03  0.47000000000E+01 0. -1.
        -11    1    4    4    0    0  0.87966296553E+02  0.14580097066E+03 -0.99666476924E+02  0.19730534457E+03  0.00000000000E+00 0.  1.
         12    1    4    4    0    0 -0.17095658251E+02  0.32003546149E+00 -0.11056008079E+02  0.20361710841E+02  0.00000000000E+00 0. -1.
         -5    1    5    5    0  502 -0.43107502996E+02 -0.67190736460E+02  0.12715701439E+02  0.80973026025E+02  0.47000000000E+01 0.  1.
         13    1    6    6    0    0  0.43934841966E+01 -0.38192001542E+02 -0.41671486309E+02  0.56696070908E+02  0.00000000000E+00 0. -1.
        -14    1    6    6    0    0 -0.10708932214E+03 -0.33143921799E+03 -0.14497434408E+03  0.37727660752E+03  0.00000000000E+00 0.  1.
</event>
<event>
12    1  0.9873238E-001  0.3949165E+03  0.7818608E-02  0.1045560E+00
         21   -1    0    0  503  502  0.00000000000E+00  0.00000000000E+00  0.10776488814E+03  0.10776488814E+03  0.00000000000E+00 0. -1.
         21   -1    0    0  501  503 -0.00000000000E+00 -0.00000000000E+00 -0.15789352660E+04  0.15789352660E+04  0.00000000000E+00 0. -1.
          6    2    1    2  501    0  0.27020194254E+03  0.23057087782E+03 -0.97944345650E+03  0.10560627410E+04  0.17258913349E+03 0.  0.
         24    2    3    3    0    0  0.20958698932E+03  0.18588515488E+03 -0.57025519713E+03  0.63997608177E+03  0.76801031770E+02 0.  0.
         -6    2    1    2    0  502 -0.27020194254E+03 -0.23057087782E+03 -0.49172692133E+03  0.63063741311E+03  0.17244176467E+03 0.  0.
        -24    2    5    5    0    0 -0.74463427659E+02 -0.13421070701E+03 -0.17698131679E+03  0.24764167645E+03  0.80291328823E+02 0.  0.
          5    1    3    3  501    0  0.60614953226E+02  0.44685722941E+02 -0.40918825936E+03  0.41608665923E+03  0.47000000000E+01 0. -1.
        -13    1    4    4    0    0  0.64956236413E+02  0.20062162938E+02 -0.10172746502E+03  0.12235309628E+03  0.00000000000E+00 0.  1.
         14    1    4    4    0    0  0.14463075290E+03  0.16582299194E+03 -0.46852773212E+03  0.51762298549E+03  0.00000000000E+00 0. -1.
         -5    1    5    5    0  502 -0.19573851488E+03 -0.96360170806E+02 -0.31474560454E+03  0.38299573667E+03  0.47000000000E+01 0.  1.
         13    1    6    6    0    0 -0.77102660541E+02 -0.14108215538E+03 -0.15074718893E+03  0.22039444140E+03  0.00000000000E+00 0. -1.
        -14    1    6    6    0    0  0.26392328817E+01  0.68714483705E+01 -0.26234127866E+02  0.27247235048E+02  0.00000000000E+00 0.  1.
</event>
<event>
12    1  0.9873238E-001  0.4537735E+03  0.7818608E-02  0.1026607E+00
         21   -1    0    0  503  502  0.00000000000E+00  0.00000000000E+00  0.15497067742E+04  0.15497067742E+04  0.00000000000E+00 0.  1.
         21   -1    0    0  501  503 -0.00000000000E+00 -0.00000000000E+00 -0.13514149490E+03  0.13514149490E+03  0.00000000000E+00 0.  1.
          6    2    1    2  501    0 -0.38950280485E+03  0.15626467261E+03  0.81697148778E+03  0.93453347442E+03  0.17256685685E+03 0.  0.
         24    2    3    3    0    0 -0.11177214105E+03  0.86249218368E+02  0.23552772355E+03  0.28635492926E+03  0.81202818721E+02 0.  0.
         -6    2    1    2    0  502  0.38950280485E+03 -0.15626467261E+03  0.59759379155E+03  0.75031479471E+03  0.17240321506E+03 0.  0.
        -24    2    5    5    0    0  0.27675697983E+03 -0.88788142431E+02  0.30148216246E+03  0.42632576701E+03  0.79902473143E+02 0.  0.
          5    1    3    3  501    0 -0.27773066380E+03  0.70015454245E+02  0.58144376423E+03  0.64817854516E+03  0.47000000000E+01 0. -1.
        -13    1    4    4    0    0 -0.24018139937E+02  0.36359170682E+02  0.14274326938E+03  0.14924644483E+03  0.00000000000E+00 0.  1.
         14    1    4    4    0    0 -0.87754001112E+02  0.49890047687E+02  0.92784454161E+02  0.13710848443E+03  0.00000000000E+00 0. -1.
         -5    1    5    5    0  502  0.11274582502E+03 -0.67476530182E+02  0.29611162909E+03  0.32398902770E+03  0.47000000000E+01 0.  1.
         13    1    6    6    0    0  0.24456364478E+03 -0.47655933741E+02  0.24667657156E+03  0.35061630784E+03  0.00000000000E+00 0. -1.
        -14    1    6    6    0    0  0.32193335047E+02 -0.41132208691E+02  0.54805590903E+02  0.75709459167E+02  0.00000000000E+00 0.  1.
</event>
<event>
12    1  0.9873238E-001  0.2139112E+03  0.7818608E-02  0.1140204E+00
         21   -1    0    0  501  502  0.00000000000E+00  0.00000000000E+00  0.20395310833E+03  0.20395310833E+03  0.00000000000E+00 0. -1.
         21   -1    0    0  502  503 -0.00000000000E+00 -0.00000000000E+00 -0.22826509219E+03  0.22826509219E+03  0.00000000000E+00 0.  1.
         -6    2    1    2    0  503  0.36095754623E+02 -0.10645177571E+03  0.38844249502E+02  0.21740946600E+03  0.18199757178E+03 0.  0.
        -24    2    3    3    0    0 -0.20020536537E+02 -0.12866337893E+03  0.24290879831E+02  0.15514965537E+03  0.80785405596E+02 0.  0.
          6    2    1    2  501    0 -0.36095754623E+02  0.10645177571E+03 -0.63156233361E+02  0.21480873451E+03  0.17181152044E+03 0.  0.
         24    2    5    5    0    0  0.13601965509E+02  0.12590336034E+03 -0.32618190633E+02  0.15314116131E+03  0.79696921616E+02 0.  0.
          5    1    5    5  501    0 -0.49697720132E+02 -0.19451584637E+02 -0.30538042729E+02  0.61667573204E+02  0.47000000000E+01 0. -1.
        -13    1    6    6    0    0  0.19125081501E+02  0.26493272473E+01 -0.22054669394E+02  0.29312047341E+02  0.00000000000E+00 0.  1.
         14    1    6    6    0    0 -0.55231159920E+01  0.12325403310E+03 -0.10563521239E+02  0.12382911397E+03  0.00000000000E+00 0. -1.
         -5    1    3    3    0  503  0.56116291160E+02  0.22211603221E+02  0.14553369672E+02  0.62259810633E+02  0.47000000000E+01 0.  1.
         11    1    4    4    0    0 -0.24007320513E+02 -0.64954372669E+02  0.50949963002E+02  0.85972790445E+02  0.00000000000E+00 0. -1.
        -12    1    4    4    0    0  0.39867839768E+01 -0.63709006259E+02 -0.26659083171E+02  0.69176864922E+02  0.00000000000E+00 0.  1.
</event>
<event>
12    1  0.9873238E-001  0.3226065E+03  0.7818608E-02  0.1075229E+00
         21   -1    0    0  503  502  0.00000000000E+00  0.00000000000E+00  0.23936003947E+03  0.23936003947E+03  0.00000000000E+00 0.  1.
         21   -1    0    0  501  503 -0.00000000000E+00 -0.00000000000E+00 -0.11773663966E+04  0.11773663966E+04  0.00000000000E+00 0.  1.
          6    2    1    2  501    0 -0.14879469149E+03 -0.22185932638E+03 -0.10367334423E+04  0.10857675530E+04  0.18086881387E+03 0.  0.
         24    2    3    3    0    0 -0.63016327365E+02 -0.21284845646E+03 -0.74909703755E+03  0.78544120572E+03  0.80597723561E+02 0.  0.
         -6    2    1    2    0  502  0.14879469149E+03  0.22185932638E+03  0.98727085089E+02  0.33095888315E+03  0.16859811412E+03 0.  0.
        -24    2    5    5    0    0  0.17492326323E+03  0.21236081783E+03  0.93057114989E+02  0.30219845049E+03  0.83480607688E+02 0.  0.
          5    1    3    3  501    0 -0.85778364127E+02 -0.90108699178E+01 -0.28763640472E+03  0.30032634724E+03  0.47000000000E+01 0. -1.
        -13    1    4    4    0    0 -0.46817531138E+02 -0.10152334874E+03 -0.49640542022E+03  0.50883908339E+03  0.00000000000E+00 0.  1.
         14    1    4    4    0    0 -0.16198796227E+02 -0.11132510772E+03 -0.25269161733E+03  0.27660212233E+03  0.00000000000E+00 0. -1.
         -5    1    5    5    0  502 -0.26128571739E+02  0.94985085563E+01  0.56699701003E+01  0.28760432661E+02  0.47000000000E+01 0.  1.
         13    1    6    6    0    0  0.13548777801E+03  0.17346500465E+03  0.36640141461E+02  0.22313571160E+03  0.00000000000E+00 0. -1.
        -14    1    6    6    0    0  0.39435485224E+02  0.38895813177E+02  0.56416973528E+02  0.79062738883E+02  0.00000000000E+00 0.  1.
</event>
<event>
12    1  0.9873238E-001  0.1903710E+03  0.7818608E-02  0.1158622E+00
         21   -1    0    0  503  502  0.00000000000E+00  0.00000000000E+00  0.13979857593E+03  0.13979857593E+03  0.00000000000E+00 0.  1.
         21   -1    0    0  501  503 -0.00000000000E+00 -0.00000000000E+00 -0.32741699762E+03  0.32741699762E+03  0.00000000000E+00 0.  1.
          6    2    1    2  501    0 -0.55168715430E+02  0.54636019363E+02 -0.20228238953E+03  0.27628067093E+03  0.17141809193E+03 0.  0.
         24    2    3    3    0    0  0.42560166890E+01 -0.58499488206E+01 -0.16776478660E+03  0.18461057740E+03  0.76705319820E+02 0.  0.
         -6    2    1    2    0  502  0.55168715430E+02 -0.54636019363E+02  0.14663967843E+02  0.19093490262E+03  0.17381721236E+03 0.  0.
        -24    2    5    5    0    0 -0.90224961098E+01 -0.32130453533E+02  0.63114823039E+02  0.10728929603E+03  0.80085833174E+02 0.  0.
          5    1    3    3  501    0 -0.59424732119E+02  0.60485968183E+02 -0.34517602931E+02  0.91670093523E+02  0.47000000000E+01 0. -1.
        -13    1    4    4    0    0 -0.18819924686E+02 -0.34868653132E+02 -0.95389169226E+02  0.10329136528E+03  0.00000000000E+00 0.  1.
         14    1    4    4    0    0  0.23075941375E+02  0.29018704312E+02 -0.72375617371E+02  0.81319212122E+02  0.00000000000E+00 0. -1.
         -5    1    5    5    0  502  0.64191211540E+02 -0.22505565829E+02 -0.48450855196E+02  0.83645606588E+02  0.47000000000E+01 0.  1.
         13    1    6    6    0    0 -0.52361781922E+01 -0.27500367060E+02 -0.13052293826E+02  0.30887701835E+02  0.00000000000E+00 0. -1.
        -14    1    6    6    0    0 -0.37863179176E+01 -0.46300864732E+01  0.76167116865E+02  0.76401594196E+02  0.00000000000E+00 0.  1.
</event>
<event>
12    1  0.9873238E-001  0.5716834E+03  0.7818608E-02  0.9966024E-01
         21   -1    0    0  501  502  0.00000000000E+00  0.00000000000E+00  0.61170766203E+03  0.61170766203E+03  0.00000000000E+00 0. -1.
         21   -1    0    0  502  503 -0.00000000000E+00 -0.00000000000E+00 -0.59172648038E+03  0.59172648038E+03  0.00000000000E+00 0. -1.
         -6    2    1    2    0  503  0.25246722220E+03  0.48325106411E+03  0.19765420158E+03  0.60488771528E+03  0.17190309902E+03 0.  0.
        -24    2    3    3    0    0  0.55058860610E+02  0.23150510557E+03  0.74613328253E+02  0.26209443155E+03  0.80624129502E+02 0.  0.
          6    2    1    2  501    0 -0.25246722220E+03 -0.48325106411E+03 -0.17767301994E+03  0.59854642713E+03  0.17151919476E+03 0.  0.
         24    2    5    5    0    0 -0.20878153460E+03 -0.42575712448E+03 -0.20303581267E+03  0.52186948373E+03  0.79154018106E+02 0.  0.
          5    1    5    5  501    0 -0.43685687607E+02 -0.57493939622E+02  0.25362792730E+02  0.76676943405E+02  0.47000000000E+01 0. -1.
        -11    1    6    6    0    0 -0.50031032144E+02 -0.19026905093E+03 -0.80981463069E+02  0.21275199947E+03  0.00000000000E+00 0.  1.
         12    1    6    6    0    0 -0.15875050245E+03 -0.23548807355E+03 -0.12205434960E+03  0.30911748425E+03  0.00000000000E+00 0. -1.
         -5    1    3    3    0  503  0.19740836159E+03  0.25174595854E+03  0.12304087333E+03  0.34279328374E+03  0.47000000000E+01 0.  1.
         11    1    4    4    0    0  0.31265945661E+02  0.19910073066E+02  0.19853130191E+01  0.37120234850E+02  0.00000000000E+00 0. -1.
        -12    1    4    4    0    0  0.23792914950E+02  0.21159503250E+03  0.72628015234E+02  0.22497419670E+03  0.00000000000E+00 0.  1.
</event>
<event>
12    1  0.9873238E-001  0.2841903E+03  0.7818608E-02  0.1093452E+00
         21   -1    0    0  501  502  0.00000000000E+00  0.00000000000E+00  0.44977818691E+02  0.44977818691E+02  0.00000000000E+00 0. -1.
         21   -1    0    0  502  503 -0.00000000000E+00 -0.00000000000E+00 -0.17942372778E+04  0.17942372778E+04  0.00000000000E+00 0. -1.
         -6    2    1    2    0  503  0.74083023191E+02  0.21432933961E+03 -0.87285994613E+03  0.91788983381E+03  0.17091489498E+03 0.  0.
        -24    2    3    3    0    0 -0.25990577090E+02  0.10911064280E+03 -0.40503862532E+03  0.42802803919E+03  0.81062148147E+02 0.  0.
          6    2    1    2  501    0 -0.74083023191E+02 -0.21432933961E+03 -0.87639951294E+03  0.92132526264E+03  0.17128564779E+03 0.  0.
         24    2    5    5    0    0 -0.25664170753E+02 -0.21822266445E+03 -0.75554632246E+03  0.79099058997E+03  0.80846070377E+02 0.  0.
          5    1    5    5  501    0 -0.48418852438E+02  0.38933248327E+01 -0.12085319049E+03  0.13033467267E+03  0.47000000000E+01 0. -1.
        -13    1    6    6    0    0 -0.98149351904E+01 -0.16740494486E+03 -0.43782030981E+03  0.46883618909E+03  0.00000000000E+00 0.  1.
         14    1    6    6    0    0 -0.15849235562E+02 -0.50817719589E+02 -0.31772601265E+03  0.32215440088E+03  0.00000000000E+00 0. -1.
         -5    1    3    3    0  503  0.10007360028E+03  0.10521869682E+03 -0.46782132080E+03  0.48986179462E+03  0.47000000000E+01 0.  1.
         11    1    4    4    0    0 -0.23253244576E+02  0.20611713856E+02 -0.22774377002E+03  0.22985382510E+03  0.00000000000E+00 0. -1.
        -12    1    4    4    0    0 -0.27373325142E+01  0.88498928943E+02 -0.17729485530E+03  0.19817421409E+03  0.00000000000E+00 0.  1.
</event>
<event>
12    1  0.9873238E-001  0.1995168E+03  0.7818608E-02  0.1150258E+00
         21   -1    0    0  501  502  0.00000000000E+00  0.00000000000E+00  0.91940683316E+03  0.91940683316E+03  0.00000000000E+00 0.  1.
         21   -1    0    0  502  503 -0.00000000000E+00 -0.00000000000E+00 -0.43264541463E+02  0.43264541463E+02  0.00000000000E+00 0.  1.
         -6    2    1    2    0  503  0.50667900539E+02  0.87170050635E+02  0.41655400749E+03  0.46164408357E+03  0.17155805100E+03 0.  0.
        -24    2    3    3    0    0  0.21798506988E+02  0.18299777791E+02  0.35538523526E+03  0.36499903682E+03  0.78202139751E+02 0.  0.
          6    2    1    2  501    0 -0.50667900539E+02 -0.87170050635E+02  0.45958828420E+03  0.50102729105E+03  0.17216591280E+03 0.  0.
         24    2    5    5    0    0  0.29109643709E+02 -0.30624554114E+02  0.14909499737E+03  0.17546620476E+03  0.82303317664E+02 0.  0.
          5    1    5    5  501    0 -0.79777544248E+02 -0.56545496521E+02  0.31049328683E+03  0.32556108629E+03  0.47000000000E+01 0. -1.
        -11    1    6    6    0    0  0.20881467968E+02 -0.14474555977E+02  0.15448191046E+03  0.15655736692E+03  0.00000000000E+00 0.  1.
         12    1    6    6    0    0  0.82281757414E+01 -0.16149998136E+02 -0.53869130906E+01  0.18908837841E+02  0.00000000000E+00 0. -1.
         -5    1    3    3    0  503  0.28869393551E+02  0.68870272843E+02  0.61168772232E+02  0.96645046753E+02  0.47000000000E+01 0.  1.
         11    1    4    4    0    0  0.32636736756E+02  0.44014911890E+02  0.25402013568E+03  0.25986284534E+03  0.00000000000E+00 0. -1.
        -12    1    4    4    0    0 -0.10838229768E+02 -0.25715134099E+02  0.10136509958E+03  0.10513619148E+03  0.00000000000E+00 0.  1.
</event>
<event>
12    1  0.9873238E-001  0.1727561E+03  0.7818608E-02  0.1175211E+00
         21   -1    0    0  503  502  0.00000000000E+00  0.00000000000E+00  0.14966467689E+03  0.14966467689E+03  0.00000000000E+00 0. -1.
         21   -1    0    0  501  503 -0.00000000000E+00 -0.00000000000E+00 -0.20225817326E+03  0.20225817326E+03  0.00000000000E+00 0. -1.
          6    2    1    2  501    0 -0.72484197021E+01 -0.37056058465E+00 -0.21750776903E+01  0.17195985506E+03  0.17179285167E+03 0.  0.
         24    2    3    3    0    0  0.12133660572E+02  0.16892708916E+02  0.61695305922E+02  0.10285702290E+03  0.79628305601E+02 0.  0.
         -6    2    1    2    0  502  0.72484197021E+01  0.37056058465E+00 -0.50418418670E+02  0.17996299509E+03  0.17260355083E+03 0.  0.
        -24    2    5    5    0    0 -0.76734413257E+01  0.53857969088E+02  0.80678288197E+01  0.99177501654E+02  0.82531960091E+02 0.  0.
          5    1    3    3  501    0 -0.19382080274E+02 -0.17263269500E+02 -0.63870383612E+02  0.69102832159E+02  0.47000000000E+01 0. -1.
        -11    1    4    4    0    0  0.30407995294E+02  0.18449220376E+02  0.73076378491E+02  0.81272240055E+02  0.00000000000E+00 0.  1.
         12    1    4    4    0    0 -0.18274334722E+02 -0.15565114606E+01 -0.11381072569E+02  0.21584782841E+02  0.00000000000E+00 0. -1.
         -5    1    5    5    0  502  0.14921861028E+02 -0.53487408503E+02 -0.58486247490E+02  0.80785493440E+02  0.47000000000E+01 0.  1.
         13    1    6    6    0    0 -0.13601538539E+02  0.16990666496E+02  0.42904828002E+02  0.48109342798E+02  0.00000000000E+00 0. -1.
        -14    1    6    6    0    0  0.59280972129E+01  0.36867302592E+02 -0.34836999182E+02  0.51068158856E+02  0.00000000000E+00 0.  1.
</event>
<event>
12    1  0.9873238E-001  0.2974992E+03  0.7818608E-02  0.1086780E+00
         21   -1    0    0  501  502  0.00000000000E+00  0.00000000000E+00  0.14900868752E+03  0.14900868752E+03  0.00000000000E+00 0.  1.
         21   -1    0    0  502  503 -0.00000000000E+00 -0.00000000000E+00 -0.60122546781E+03  0.60122546781E+03  0.00000000000E+00 0.  1.
         -6    2    1    2    0  503 -0.16734826774E+02  0.23965059502E+03 -0.27760950004E+03  0.40527983099E+03  0.17167482277E+03 0.  0.
        -24    2    3    3    0    0  0.59302700099E+01  0.86566291734E+02 -0.40455339296E+02  0.12206137029E+03  0.75719565975E+02 0.  0.
          6    2    1    2  501    0  0.16734826774E+02 -0.23965059502E+03 -0.17460728025E+03  0.34495432435E+03  0.17548025943E+03 0.  0.
         24    2    5    5    0    0 -0.37980276416E+02 -0.52309207689E+02 -0.63746887005E+02  0.12044896870E+03  0.79155125241E+02 0.  0.
          5    1    5    5  501    0  0.54715103189E+02 -0.18734138733E+03 -0.11086039325E+03  0.22450535565E+03  0.47000000000E+01 0. -1.
        -13    1    6    6    0    0 -0.36273294365E+02 -0.27373812305E+02  0.64838791227E+01  0.45903356878E+02  0.00000000000E+00 0.  1.
         14    1    6    6    0    0 -0.17069820505E+01 -0.24935395383E+02 -0.70230766128E+02  0.74545611820E+02  0.00000000000E+00 0. -1.
         -5    1    3    3    0  503 -0.22665096783E+02  0.15308430328E+03 -0.23715416074E+03  0.28321846070E+03  0.47000000000E+01 0.  1.
         13    1    4    4    0    0  0.16171847205E+02  0.94671557052E+02 -0.47581263599E+02  0.10718306304E+03  0.00000000000E+00 0. -1.
        -14    1    4    4    0    0 -0.10241577195E+02 -0.81052653185E+01  0.71259243035E+01  0.14878307246E+02  0.00000000000E+00 0.  1.
</event>
<event>
12    1  0.9873238E-001  0.2179145E+03  0.7818608E-02  0.1135955E+00
         21   -1    0    0  503  502  0.00000000000E+00  0.00000000000E+00  0.11151266965E+03  0.11151266965E+03  0.00000000000E+00 0. -1.
         21   -1    0    0  501  503 -0.00000000000E+00 -0.00000000000E+00 -0.42118752158E+03  0.42118752158E+03  0.00000000000E+00 0. -1.
          6    2    1    2  501    0 -0.37456092398E+02 -0.12794410547E+03 -0.16351344429E+03  0.27030759316E+03  0.16898785599E+03 0.  0.
         24    2    3    3    0    0 -0.38253179430E+02 -0.15293853170E+03 -0.16882659216E+03  0.24431382024E+03  0.79582185961E+02 0.  0.
         -6    2    1    2    0  502  0.37456092398E+02  0.12794410547E+03 -0.14616140764E+03  0.26239259807E+03  0.17237768260E+03 0.  0.
        -24    2    5    5    0    0  0.56794940062E+02  0.91016488090E+02 -0.16768018346E+03  0.21524614892E+03  0.81881587555E+02 0.  0.
          5    1    3    3  501    0  0.79708703233E+00  0.24994426231E+02  0.53131478735E+01  0.25993772921E+02  0.47000000000E+01 0. -1.
        -11    1    4    4    0    0 -0.34922177258E+02 -0.32177190091E+02 -0.84692132903E+02  0.97096279034E+02  0.00000000000E+00 0.  1.
         12    1    4    4    0    0 -0.33310021725E+01 -0.12076134161E+03 -0.84134459257E+02  0.14721754120E+03  0.00000000000E+00 0. -1.
         -5    1    5    5    0  502 -0.19338847664E+02  0.36927617380E+02  0.21518775823E+02  0.47146449148E+02  0.47000000000E+01 0.  1.
         13    1    6    6    0    0  0.19861596245E+02  0.85357891581E+02 -0.15041968103E+03  0.17408771669E+03  0.00000000000E+00 0. -1.
        -14    1    6    6    0    0  0.36933343816E+02  0.56585965088E+01 -0.17260502429E+02  0.41158432235E+02  0.00000000000E+00 0.  1.
</event>
<event>
12    1  0.9873238E-001  0.2776558E+03  0.7818608E-02  0.1097005E+00
         21   -1    0    0  501  502  0.00000000000E+00  0.00000000000E+00  0.15772146034E+03  0.15772146034E+03  0.00000000000E+00 0. -1.
         21   -1    0    0  502  503 -0.00000000000E+00 -0.00000000000E+00 -0.49843037564E+03  0.49843037564E+03  0.00000000000E+00 0. -1.
         -6    2    1    2    0  503  0.18241288089E+03  0.11996927108E+03 -0.12381048953E+03  0.30382006213E+03  0.17120311830E+03 0.  0.
        -24    2    3    3    0    0  0.24409460051E+02  0.47013651347E+02 -0.77513772613E+02  0.12367267957E+03  0.80501189887E+02 0.  0.
          6    2    1    2  501    0 -0.18241288089E+03 -0.11996927108E+03 -0.21689842578E+03  0.35233177385E+03  0.17153911110E+03 0.  0.
         24    2    5    5    0    0 -0.71965640793E+02 -0.42456769303E+02 -0.26975564170E+02  0.11930910512E+03  0.80779643401E+02 0.  0.
          5    1    5    5  501    0 -0.11044724010E+03 -0.77512501782E+02 -0.18992286161E+03  0.23302266873E+03  0.47000000000E+01 0. -1.
        -11    1    6    6    0    0 -0.25491343206E+02  0.59875907618E+01 -0.42949893429E+02  0.50302615907E+02  0.00000000000E+00 0.  1.
         12    1    6    6    0    0 -0.46474297586E+02 -0.48444360064E+02  0.15974329259E+02  0.69006489213E+02  0.00000000000E+00 0. -1.
         -5    1    3    3    0  503  0.15800342084E+03  0.72955619738E+02 -0.46296716914E+02  0.18014738257E+03  0.47000000000E+01 0.  1.
         13    1    4    4    0    0  0.12240149259E+00  0.95695356118E+01  0.16798381548E+02  0.19333303302E+02  0.00000000000E+00 0. -1.
        -14    1    4    4    0    0  0.24287058558E+02  0.37444115735E+02 -0.94312154161E+02  0.10433937626E+03  0.00000000000E+00 0.  1.
</event>
<event>
12    1  0.9873238E-001  0.1985519E+03  0.7818608E-02  0.1152060E+00
         21   -1    0    0  503  502  0.00000000000E+00  0.00000000000E+00  0.11197328616E+03  0.11197328616E+03  0.00000000000E+00 0. -1.
         21   -1    0    0  501  503 -0.00000000000E+00 -0.00000000000E+00 -0.42106519661E+03  0.42106519661E+03  0.00000000000E+00 0. -1.
          6    2    1    2  501    0  0.67141113359E+02  0.67999195791E+02 -0.26755796524E+03  0.33018894019E+03  0.16824283559E+03 0.  0.
         24    2    3    3    0    0  0.92447245730E+02  0.33595859518E+02 -0.25532528539E+03  0.28551547672E+03  0.81565379088E+02 0.  0.
         -6    2    1    2    0  502 -0.67141113359E+02 -0.67999195791E+02 -0.41533945205E+02  0.20284954258E+03  0.17404323770E+03 0.  0.
        -24    2    5    5    0    0 -0.88017913269E+02 -0.72420108196E+02 -0.77636271866E+02  0.16064938581E+03  0.82395444803E+02 0.  0.
          5    1    3    3  501    0 -0.25306132371E+02  0.34403336273E+02 -0.12232679849E+02  0.44673463472E+02  0.47000000000E+01 0. -1.
        -13    1    4    4    0    0  0.34800094899E+01 -0.13888880184E+02 -0.95264800988E+02  0.96334800390E+02  0.00000000000E+00 0.  1.
         14    1    4    4    0    0  0.88967236240E+02  0.47484739702E+02 -0.16006048440E+03  0.18918067633E+03  0.00000000000E+00 0. -1.
         -5    1    5    5    0  502  0.20876799910E+02  0.44209124050E+01  0.36102326662E+02  0.42200156769E+02  0.47000000000E+01 0.  1.
         13    1    6    6    0    0 -0.66877116655E+02 -0.90674856251E+02 -0.60612438835E+02  0.12793883707E+03  0.00000000000E+00 0. -1.
        -14    1    6    6    0    0 -0.21140796614E+02  0.18254748055E+02 -0.17023833032E+02  0.32710548743E+02  0.00000000000E+00 0.  1.
</event>
<event>
12    1  0.9873238E-001  0.1831060E+03  0.7818608E-02  0.1165144E+00
         21   -1    0    0  503  502  0.00000000000E+00  0.00000000000E+00  0.69199886168E+03  0.69199886168E+03  0.00000000000E+00 0. -1.
         21   -1    0    0  501  503 -0.00000000000E+00 -0.00000000000E+00 -0.48559233521E+02  0.48559233521E+02  0.00000000000E+00 0. -1.
          6    2    1    2  501    0 -0.22606148005E+02 -0.57052050056E+02  0.35651541159E+03  0.40018575423E+03  0.17111231644E+03 0.  0.
         24    2    3    3    0    0 -0.69722433329E+02  0.18773973841E+01  0.21810614825E+03  0.24247767486E+03  0.79752044304E+02 0.  0.
         -6    2    1    2    0  502  0.22606148005E+02  0.57052050056E+02  0.28692421656E+03  0.34037234097E+03  0.17251623143E+03 0.  0.
        -24    2    5    5    0    0 -0.13109435035E+02 -0.25841062169E+02  0.19166810530E+03  0.20906092616E+03  0.78295532936E+02 0.  0.
          5    1    3    3  501    0  0.47116285324E+02 -0.58929447440E+02  0.13840926335E+03  0.15770807937E+03  0.47000000000E+01 0. -1.
        -11    1    4    4    0    0  0.51668030630E+01 -0.12930921680E+02  0.10561709442E+03  0.10653109979E+03  0.00000000000E+00 0.  1.
         12    1    4    4    0    0 -0.74889236392E+02  0.14808319064E+02  0.11248905383E+03  0.13594657507E+03  0.00000000000E+00 0. -1.
         -5    1    5    5    0  502  0.35715583040E+02  0.82893112225E+02  0.95256111257E+02  0.13131141480E+03  0.47000000000E+01 0.  1.
         13    1    6    6    0    0 -0.70242979137E+01  0.16455076975E+02  0.14374148926E+03  0.14485070264E+03  0.00000000000E+00 0. -1.
        -14    1    6    6    0    0 -0.60851371212E+01 -0.42296139144E+02  0.47926616041E+02  0.64210223527E+02  0.00000000000E+00 0.  1.
</event>
<event>
12    1  0.9873238E-001  0.1765805E+03  0.7818608E-02  0.1171760E+00
         21   -1    0    0  501  502  0.00000000000E+00  0.00000000000E+00  0.33137694735E+03  0.33137694735E+03  0.00000000000E+00 0. -1.
         21   -1    0    0  502  503 -0.00000000000E+00 -0.00000000000E+00 -0.11864095304E+03  0.11864095304E+03  0.00000000000E+00 0. -1.
         -6    2    1    2    0  503  0.32272021232E+02  0.82394658918E+01  0.21194035114E+03  0.27586115917E+03  0.17341076825E+03 0.  0.
        -24    2    3    3    0    0 -0.15554216406E+02  0.62400485034E+02  0.10820734711E+03  0.14935664887E+03  0.80391693678E+02 0.  0.
          6    2    1    2  501    0 -0.32272021232E+02 -0.82394658918E+01  0.79564316355E+00  0.17415674121E+03  0.17094023900E+03 0.  0.
         24    2    5    5    0    0 -0.44842436144E+02  0.46574061091E+02 -0.37474830043E+02  0.10597127949E+03  0.75136954578E+02 0.  0.
          5    1    5    5  501    0  0.12570414912E+02 -0.54813526983E+02  0.38270473206E+02  0.68185461726E+02  0.47000000000E+01 0. -1.
        -13    1    6    6    0    0 -0.37433335725E+02  0.67319850115E+02 -0.30752023291E+02  0.82939157094E+02  0.00000000000E+00 0.  1.
         14    1    6    6    0    0 -0.74091004185E+01 -0.20745789024E+02 -0.67228067515E+01  0.23032122391E+02  0.00000000000E+00 0. -1.
         -5    1    3    3    0  503  0.47826237638E+02 -0.54161019142E+02  0.10373300404E+03  0.12650451031E+03  0.47000000000E+01 0.  1.
         13    1    4    4    0    0  0.28191761631E+02  0.39470413592E+02  0.30551300266E+02  0.57324261189E+02  0.00000000000E+00 0. -1.
        -14    1    4    4    0    0 -0.43745978037E+02  0.22930071442E+02  0.77656046840E+02  0.92032387678E+02  0.00000000000E+00 0.  1.
</event>
<event>
12    1  0.9873238E-001  0.2044756E+03  0.7818608E-02  0.1146043E+00
         21   -1    0    0  501  502  0.00000000000E+00  0.00000000000E+00  0.12562599907E+03  0.12562599907E+03  0.00000000000E+00 0.  1.
         21   -1    0    0  502  503 -0.00000000000E+00 -0.00000000000E+00 -0.33859299273E+03  0.33859299273E+03  0.00000000000E+00 0.  1.
         -6    2    1    2    0  503 -0.11099972551E+03 -0.76101563673E+01 -0.13737135130E+03  0.24633544638E+03  0.17155585225E+03 0.  0.
        -24    2    3    3    0    0 -0.10861276734E+03  0.18789063219E+02 -0.15888781469E+03  0.21187293688E+03  0.86573908288E+02 0.  0.
          6    2    1    2  501    0  0.11099972551E+03  0.76101563673E+01 -0.75595642364E+02  0.21788354542E+03  0.17140503107E+03 0.  0.
         24    2    5    5    0    0 -0.66247833456E+01 -0.21164677053E+02 -0.22186538866E+02  0.85451908491E+02  0.79485563776E+02 0.  0.
          5    1    5    5  501    0  0.11762450886E+03  0.28774833420E+02 -0.53409103499E+02  0.13243163693E+03  0.47000000000E+01 0. -1.
        -13    1    6    6    0    0  0.30192374413E+02 -0.59319917647E+01  0.11926033950E+02  0.32999974012E+02  0.00000000000E+00 0.  1.
         14    1    6    6    0    0 -0.36817157759E+02 -0.15232685288E+02 -0.34112572815E+02  0.52451934479E+02  0.00000000000E+00 0. -1.
         -5    1    3    3    0  503 -0.23869581723E+01 -0.26399219586E+02  0.21516463398E+02  0.34462509503E+02  0.47000000000E+01 0.  1.
         11    1    4    4    0    0 -0.55543269896E+02  0.97707582663E+01 -0.15164269368E+02  0.58399294630E+02  0.00000000000E+00 0. -1.
        -12    1    4    4    0    0 -0.53069497445E+02  0.90183049527E+01 -0.14372354533E+03  0.15347364225E+03  0.00000000000E+00 0.  1.
</event>
<event>
12    1  0.9873238E-001  0.1835093E+03  0.7818608E-02  0.1164606E+00
         21   -1    0    0  503  502  0.00000000000E+00  0.00000000000E+00  0.40893249714E+02  0.40893249714E+02  0.00000000000E+00 0.  1.
         21   -1    0    0  501  503 -0.00000000000E+00 -0.00000000000E+00 -0.82732904110E+03  0.82732904110E+03  0.00000000000E+00 0.  1.
          6    2    1    2  501    0 -0.14642352418E+02  0.60615902041E+02 -0.43329773078E+03  0.47055560392E+03  0.17258901129E+03 0.  0.
         24    2    3    3    0    0  0.11527974996E+02  0.99001996783E+02 -0.33860994729E+03  0.36497982712E+03  0.92840121831E+02 0.  0.
         -6    2    1    2    0  502  0.14642352418E+02 -0.60615902041E+02 -0.35313806061E+03  0.39766668690E+03  0.17188257023E+03 0.  0.
        -24    2    5    5    0    0  0.59641198361E+02 -0.41005208177E+02 -0.32063064490E+03  0.33860487583E+03  0.81306530167E+02 0.  0.
          5    1    3    3  501    0 -0.26170327414E+02 -0.38386094742E+02 -0.94687783484E+02  0.10557577680E+03  0.47000000000E+01 0. -1.
        -11    1    4    4    0    0  0.26787782747E+02  0.18053288931E+02 -0.25327573632E+02  0.41048660536E+02  0.00000000000E+00 0.  1.
         12    1    4    4    0    0 -0.15259807751E+02  0.80948707852E+02 -0.31328237366E+03  0.32393116658E+03  0.00000000000E+00 0. -1.
         -5    1    5    5    0  502 -0.44998845943E+02 -0.19610693864E+02 -0.32507415711E+02  0.59061811065E+02  0.47000000000E+01 0.  1.
         11    1    6    6    0    0  0.30395331223E+02 -0.64123283616E+02 -0.19259197466E+03  0.20524945887E+03  0.00000000000E+00 0. -1.
        -12    1    6    6    0    0  0.29245867138E+02  0.23118075439E+02 -0.12803867024E+03  0.13335541696E+03  0.00000000000E+00 0.  1.
</event>
<event>
12    1  0.9873238E-001  0.2121443E+03  0.7818608E-02  0.1139885E+00
         21   -1    0    0  501  502  0.00000000000E+00  0.00000000000E+00  0.44453117037E+03  0.44453117037E+03  0.00000000000E+00 0. -1.
         21   -1    0    0  502  503 -0.00000000000E+00 -0.00000000000E+00 -0.11043952797E+03  0.11043952797E+03  0.00000000000E+00 0. -1.
         -6    2    1    2    0  503 -0.95596201732E+02 -0.80312702316E+02  0.86899155698E+02  0.22922640200E+03  0.17147745092E+03 0.  0.
        -24    2    3    3    0    0 -0.16185906050E+02  0.23081543221E+02  0.35825259208E+02  0.89130013850E+02  0.76589614044E+02 0.  0.
          6    2    1    2  501    0  0.95596201732E+02  0.80312702316E+02  0.24719248670E+03  0.32574429634E+03  0.17151226537E+03 0.  0.
         24    2    5    5    0    0  0.61730120162E+02  0.11480004261E+03  0.22545238921E+03  0.27253706036E+03  0.80361756772E+02 0.  0.
          5    1    5    5  501    0  0.33866081570E+02 -0.34487340290E+02  0.21740097497E+02  0.53207235978E+02  0.47000000000E+01 0. -1.
        -11    1    6    6    0    0 -0.71698655672E+01  0.52358022505E+02  0.12469007315E+03  0.13542667328E+03  0.00000000000E+00 0.  1.
         12    1    6    6    0    0  0.68899985729E+02  0.62442020102E+02  0.10076231605E+03  0.13711038708E+03  0.00000000000E+00 0. -1.
         -5    1    3    3    0  503 -0.79410295683E+02 -0.10339424554E+03  0.51073896490E+02  0.14009638815E+03  0.47000000000E+01 0.  1.
         11    1    4    4    0    0  0.26190176302E+02 -0.91814636691E+01  0.17479981641E+02  0.32798999497E+02  0.00000000000E+00 0. -1.
        -12    1    4    4    0    0 -0.42376082352E+02  0.32263006890E+02  0.18345277567E+02  0.56331014353E+02  0.00000000000E+00 0.  1.
</event>
<event>
12    1  0.9873238E-001  0.1845536E+03  0.7818608E-02  0.1163622E+00
         21   -1    0    0  503  502  0.00000000000E+00  0.00000000000E+00  0.15644684289E+03  0.15644684289E+03  0.00000000000E+00 0.  1.
         21   -1    0    0  501  503 -0.00000000000E+00 -0.00000000000E+00 -0.22043049746E+03  0.22043049746E+03  0.00000000000E+00 0.  1.
          6    2    1    2  501    0  0.44818108747E+02  0.48269882234E+02 -0.81953649100E+01  0.18407600451E+03  0.17169207037E+03 0.  0.
         24    2    3    3    0    0 -0.12402875747E+01  0.65341092625E+02 -0.53747207223E+02  0.11692049517E+03  0.80688556860E+02 0.  0.
         -6    2    1    2    0  502 -0.44818108747E+02 -0.48269882234E+02 -0.55788289662E+02  0.19280133585E+03  0.17239889048E+03 0.  0.
        -24    2    5    5    0    0 -0.72051508296E+02  0.18532465172E+02 -0.38159880471E+02  0.11838989532E+03  0.83815981317E+02 0.  0.
          5    1    3    3  501    0  0.46058396322E+02 -0.17071210391E+02  0.45551842313E+02  0.67155509335E+02  0.47000000000E+01 0. -1.
        -13    1    4    4    0    0 -0.22879934156E+02  0.23204478087E+02  0.12990377085E+02  0.35081178530E+02  0.00000000000E+00 0.  1.
         14    1    4    4    0    0  0.21639646581E+02  0.42136614538E+02 -0.66737584308E+02  0.81839316641E+02  0.00000000000E+00 0. -1.
         -5    1    5    5    0  502  0.27233399549E+02 -0.66802347406E+02 -0.17628409191E+02  0.74411440522E+02  0.47000000000E+01 0.  1.
         13    1    6    6    0    0 -0.10362168353E+02 -0.14419995262E+02  0.20490400410E+02  0.27113968822E+02  0.00000000000E+00 0. -1.
        -14    1    6    6    0    0 -0.61689339944E+02  0.32952460434E+02 -0.58650280880E+02  0.91275926502E+02  0.00000000000E+00 0.  1.
</event>
<event>
12    1  0.9873238E-001  0.2442348E+03  0.7818608E-02  0.1117258E+00
         21   -1    0    0  501  502  0.00000000000E+00  0.00000000000E+00  0.35377583778E+03  0.35377583778E+03  0.00000000000E+00 0. -1.
         21   -1    0    0  502  503 -0.00000000000E+00 -0.00000000000E+00 -0.24246912222E+03  0.24246912222E+03  0.00000000000E+00 0. -1.
         -6    2    1    2    0  503  0.16390035267E+03 -0.50450988479E+02 -0.11020063243E+03  0.26652361706E+03  0.17170332327E+03 0.  0.
        -24    2    3    3    0    0  0.76918851270E+02 -0.85716653362E+02 -0.98172186724E+02  0.17178069009E+03  0.81283287936E+02 0.  0.
          6    2    1    2  501    0 -0.16390035267E+03  0.50450988479E+02  0.22150734799E+03  0.32972134293E+03  0.17390236033E+03 0.  0.
         24    2    5    5    0    0 -0.19110190469E+03  0.40628747819E+02  0.17374615246E+03  0.27368900725E+03  0.80915474840E+02 0.  0.
          5    1    5    5  501    0  0.27201552020E+02  0.98222406598E+01  0.47761195533E+02  0.56032335687E+02  0.47000000000E+01 0. -1.
        -13    1    6    6    0    0 -0.13598976495E+03  0.40414274239E+02  0.74677444571E+02  0.16032233301E+03  0.00000000000E+00 0.  1.
         14    1    6    6    0    0 -0.55112139739E+02  0.21447358018E+00  0.99068707888E+02  0.11336667424E+03  0.00000000000E+00 0. -1.
         -5    1    3    3    0  503  0.86981501398E+02  0.35265664883E+02 -0.12028445701E+02  0.94742926972E+02  0.47000000000E+01 0.  1.
         13    1    4    4    0    0 -0.60898191746E+01 -0.46544304563E+02 -0.48161949508E+02  0.67253487384E+02  0.00000000000E+00 0. -1.
        -14    1    4    4    0    0  0.83008670445E+02 -0.39172348799E+02 -0.50010237216E+02  0.10452720271E+03  0.00000000000E+00 0.  1.
</event>
<event>
12    1  0.9873238E-001  0.2054760E+03  0.7818608E-02  0.1145265E+00
         21   -1    0    0  503  502  0.00000000000E+00  0.00000000000E+00  0.73957138462E+03  0.73957138462E+03  0.00000000000E+00 0. -1.
         21   -1    0    0  501  503 -0.00000000000E+00 -0.00000000000E+00 -0.57240163387E+02  0.57240163387E+02  0.00000000000E+00 0. -1.
          6    2    1    2  501    0 -0.80955178886E+02 -0.77260235630E+02  0.31499630954E+03  0.37591330995E+03  0.17194550468E+03 0.  0.
         24    2    3    3    0    0 -0.10791495314E+02 -0.44298062193E+02  0.27309147017E+03  0.28766619707E+03  0.78064813910E+02 0.  0.
         -6    2    1    2    0  502  0.80955178886E+02  0.77260235630E+02  0.36733491170E+03  0.42089823806E+03  0.17232963891E+03 0.  0.
        -24    2    5    5    0    0  0.47003967924E+02  0.65261251764E+02  0.10102207674E+03  0.15212086474E+03  0.80416997701E+02 0.  0.
          5    1    3    3  501    0 -0.70163683573E+02 -0.32962173436E+02  0.41904839367E+02  0.88247112885E+02  0.47000000000E+01 0. -1.
        -13    1    4    4    0    0 -0.17036258312E+02 -0.43354602767E+02  0.67699293849E+02  0.82176943640E+02  0.00000000000E+00 0.  1.
         14    1    4    4    0    0  0.62447629984E+01 -0.94345942645E+00  0.20539217632E+03  0.20548925343E+03  0.00000000000E+00 0. -1.
         -5    1    5    5    0  502  0.33951210962E+02  0.11998983865E+02  0.26631283496E+03  0.26877737332E+03  0.47000000000E+01 0.  1.
         13    1    6    6    0    0 -0.18203001422E+02  0.17246836205E+02  0.51288908997E+02  0.57090759374E+02  0.00000000000E+00 0. -1.
        -14    1    6    6    0    0  0.65206969346E+02  0.48014415560E+02  0.49733167739E+02  0.95030105368E+02  0.00000000000E+00 0.  1.
</event>
<event>
12    1  0.9873238E-001  0.2020007E+03  0.7818608E-02  0.1148174E+00
         21   -1    0    0  501  502  0.00000000000E+00  0.00000000000E+00  0.29892474202E+02  0.29892474202E+02  0.00000000000E+00 0. -1.
         21   -1    0    0  502  503 -0.00000000000E+00 -0.00000000000E+00 -0.13859363342E+04  0.13859363342E+04  0.00000000000E+00 0. -1.
         -6    2    1    2    0  503  0.22643660009E+02  0.10225988436E+03 -0.58298762890E+03  0.61681679179E+03  0.17210043551E+03 0.  0.
        -24    2    3    3    0    0 -0.46127089951E+02  0.94001952560E+02 -0.37781477624E+03  0.40021670187E+03  0.80407262089E+02 0.  0.
          6    2    1    2  501    0 -0.22643660009E+02 -0.10225988436E+03 -0.77305623108E+03  0.79901201659E+03  0.17272650912E+03 0.  0.
         24    2    5    5    0    0  0.42456155242E+01 -0.65793716164E+01 -0.17019602529E+03  0.18799621370E+03  0.79464306189E+02 0.  0.
          5    1    5    5  501    0 -0.26889275533E+02 -0.95680512742E+02 -0.60286020579E+03  0.61101580289E+03  0.47000000000E+01 0. -1.
        -13    1    6    6    0    0 -0.11160616945E+02 -0.27121376937E+02 -0.19711079695E+02  0.35336314469E+02  0.00000000000E+00 0.  1.
         14    1    6    6    0    0  0.15406232469E+02  0.20542005321E+02 -0.15048494560E+03  0.15265989923E+03  0.00000000000E+00 0. -1.
         -5    1    3    3    0  503  0.68770749960E+02  0.82579317977E+01 -0.20517285266E+03  0.21660008992E+03  0.47000000000E+01 0.  1.
         13    1    4    4    0    0 -0.37495543988E-01 -0.13825613698E+02 -0.56672519906E+02  0.58334582475E+02  0.00000000000E+00 0. -1.
        -14    1    4    4    0    0 -0.46089594407E+02  0.10782756626E+03 -0.32114225634E+03  0.34188211940E+03  0.00000000000E+00 0.  1.
</event>
<event>
12    1  0.9873238E-001  0.1938726E+03  0.7818608E-02  0.1155484E+00
         21   -1    0    0  503  502  0.00000000000E+00  0.00000000000E+00  0.84349159348E+02  0.84349159348E+02  0.00000000000E+00 0.  1.
         21   -1    0    0  501  503 -0.00000000000E+00 -0.00000000000E+00 -0.51993279142E+03  0.51993279142E+03  0.00000000000E+00 0.  1.
          6    2    1    2  501    0 -0.18734481255E+02 -0.82773563542E+02 -0.10088705814E+03  0.21855155376E+03  0.17431046883E+03 0.  0.
         24    2    3    3    0    0 -0.61077254215E+02 -0.10553593733E+03 -0.70140476566E+02  0.16129355554E+03  0.78915521631E+02 0.  0.
         -6    2    1    2    0  502  0.18734481255E+02  0.82773563542E+02 -0.33469657394E+03  0.38573039700E+03  0.17194097522E+03 0.  0.
        -24    2    5    5    0    0  0.22374056916E+02  0.71440568446E+02 -0.34943105057E+03  0.36621429876E+03  0.80040616355E+02 0.  0.
          5    1    3    3  501    0  0.42342772960E+02  0.22762373791E+02 -0.30746581570E+02  0.57257998225E+02  0.47000000000E+01 0. -1.
        -13    1    4    4    0    0  0.77206309135E+01 -0.15134670758E+02 -0.40452847607E+02  0.43875953325E+02  0.00000000000E+00 0.  1.
         14    1    4    4    0    0 -0.68797885128E+02 -0.90401266575E+02 -0.29687628959E+02  0.11741760221E+03  0.00000000000E+00 0. -1.
         -5    1    5    5    0  502 -0.36395756617E+01  0.11332995096E+02  0.14734476639E+02  0.19516098244E+02  0.47000000000E+01 0.  1.
         11    1    6    6    0    0  0.21932381529E+02 -0.56067714167E+01 -0.16185628289E+03  0.16343170304E+03  0.00000000000E+00 0. -1.
        -12    1    6    6    0    0  0.44167538749E+00  0.77047339863E+02 -0.18757476768E+03  0.20278259572E+03  0.00000000000E+00 0.  1.
</event>
<event>
12    1  0.9873238E-001  0.2083888E+03  0.7818608E-02  0.1143519E+00
         21   -1    0    0  503  502  0.00000000000E+00  0.00000000000E+00  0.59809260252E+03  0.59809260252E+03  0.00000000000E+00 0. -1.
         21   -1    0    0  501  503 -0.00000000000E+00 -0.00000000000E+00 -0.14507835742E+03  0.14507835742E+03  0.00000000000E+00 0. -1.
          6    2    1    2  501    0  0.57907930167E+02 -0.94629157349E+02  0.49031602987E+03  0.53146996438E+03  0.17246016379E+03 0.  0.
         24    2    3    3    0    0  0.50305852249E+02 -0.10394128709E+02  0.38305681385E+03  0.39479531033E+03  0.80573554841E+02 0.  0.
         -6    2    1    2    0  502 -0.57907930167E+02  0.94629157349E+02 -0.37301784769E+02  0.21170099555E+03  0.17640261499E+03 0.  0.
        -24    2    5    5    0    0  0.25479825990E+01 -0.71210179419E+01  0.16212948295E+02  0.81724335282E+02  0.79742122953E+02 0.  0.
          5    1    3    3  501    0  0.76020779178E+01 -0.84235028640E+02  0.10725921602E+03  0.13667465405E+03  0.47000000000E+01 0. -1.
        -13    1    4    4    0    0  0.56610631674E+02 -0.37211206773E+02  0.28512157541E+03  0.29305929484E+03  0.00000000000E+00 0.  1.
         14    1    4    4    0    0 -0.63047794246E+01  0.26817078064E+02  0.97935238444E+02  0.10173601549E+03  0.00000000000E+00 0. -1.
         -5    1    5    5    0  502 -0.60455912766E+02  0.10175017529E+03 -0.53514733064E+02  0.12997666027E+03  0.47000000000E+01 0.  1.
         13    1    6    6    0    0 -0.43787991848E+01 -0.11645563167E+02  0.47634133503E+02  0.49232140908E+02  0.00000000000E+00 0. -1.
        -14    1    6    6    0    0  0.69267817838E+01  0.45245452247E+01 -0.31421185208E+02  0.32492194374E+02  0.00000000000E+00 0.  1.
</event>
<event>
12    1  0.9873238E-001  0.1765613E+03  0.7818608E-02  0.1172485E+00
         21   -1    0    0  501  502  0.00000000000E+00  0.00000000000E+00  0.24108232225E+03  0.24108232225E+03  0.00000000000E+00 0. -1.
         21   -1    0    0  502  503 -0.00000000000E+00 -0.00000000000E+00 -0.12553928799E+03  0.12553928799E+03  0.00000000000E+00 0. -1.
         -6    2    1    2    0  503  0.48145195679E+02  0.40071132939E+01  0.58784368640E+02  0.18116157165E+03  0.16440771339E+03 0.  0.
        -24    2    3    3    0    0  0.61231375402E+02  0.36367020503E+02 -0.76176235375E+01  0.10599691067E+03  0.78137541358E+02 0.  0.
          6    2    1    2  501    0 -0.48145195679E+02 -0.40071132939E+01  0.56758665628E+02  0.18546003859E+03  0.16982303427E+03 0.  0.
         24    2    5    5    0    0 -0.77365205940E+02 -0.41996759606E+02  0.12899384612E+02  0.12032365277E+03  0.81007927916E+02 0.  0.
          5    1    5    5  501    0  0.29220010262E+02  0.37989646312E+02  0.43859281016E+02  0.65136385821E+02  0.47000000000E+01 0. -1.
        -13    1    6    6    0    0 -0.19880586043E+02  0.23356243320E+02  0.12931635476E+02  0.33286318504E+02  0.00000000000E+00 0.  1.
         14    1    6    6    0    0 -0.57484619897E+02 -0.65353002926E+02 -0.32250864847E-01  0.87037334267E+02  0.00000000000E+00 0. -1.
         -5    1    3    3    0  503 -0.13086179724E+02 -0.32359907210E+02  0.66401992178E+02  0.75164660976E+02  0.47000000000E+01 0.  1.
         13    1    4    4    0    0  0.54461898110E+02  0.57924891991E+02  0.57986028149E+01  0.79718349534E+02  0.00000000000E+00 0. -1.
        -14    1    4    4    0    0  0.67694772925E+01 -0.21557871487E+02 -0.13416226352E+02  0.26278561137E+02  0.00000000000E+00 0.  1.
</event>
<event>
12    1  0.9873238E-001  0.2394860E+03  0.7818608E-02  0.1120546E+00
         21   -1    0    0  503  502  0.00000000000E+00  0.00000000000E+00  0.11174428110E+03  0.11174428110E+03  0.00000000000E+00 0. -1.
         21   -1    0    0  501  503 -0.00000000000E+00 -0.00000000000E+00 -0.86144860521E+03  0.86144860521E+03  0.00000000000E+00 0. -1.
          6    2    1    2  501    0 -0.38265769392E+02 -0.16225054276E+03 -0.68765232502E+03  0.72816155617E+03  0.17194192055E+03 0.  0.
         24    2    3    3    0    0  0.74998211815E+00 -0.13089416152E+02 -0.30094005097E+03  0.31182065803E+03  0.80593506012E+02 0.  0.
         -6    2    1    2    0  502  0.38265769392E+02  0.16225054276E+03 -0.62051999089E+02  0.24503133015E+03  0.16852416571E+03 0.  0.
        -24    2    5    5    0    0 -0.26394949079E+02  0.77217553771E+02  0.13556660524E+02  0.11407188170E+03  0.78545319416E+02 0.  0.
          5    1    3    3  501    0 -0.39015751510E+02 -0.14916112661E+03 -0.38671227405E+03  0.41634089814E+03  0.47000000000E+01 0. -1.
        -13    1    4    4    0    0 -0.12467429013E+02  0.71098603981E+01 -0.54592602893E+01  0.15355468862E+02  0.00000000000E+00 0.  1.
         14    1    4    4    0    0  0.13217411131E+02 -0.20199276550E+02 -0.29548079068E+03  0.29646518917E+03  0.00000000000E+00 0. -1.
         -5    1    5    5    0  502  0.64660718472E+02  0.85032988992E+02 -0.75608659612E+02  0.13095944845E+03  0.47000000000E+01 0.  1.
         11    1    6    6    0    0 -0.47285109593E+01  0.32444806074E+01  0.33875924085E+02  0.34357876869E+02  0.00000000000E+00 0. -1.
        -12    1    6    6    0    0 -0.21666438120E+02  0.73973073163E+02 -0.20319263562E+02  0.79714004828E+02  0.00000000000E+00 0.  1.
</event>
<event>
12    1  0.9873238E-001  0.1778264E+03  0.7818608E-02  0.1169972E+00
         21   -1    0    0  503  502  0.00000000000E+00  0.00000000000E+00  0.23744263927E+03  0.23744263927E+03  0.00000000000E+00 0.  1.
         21   -1    0    0  501  503 -0.00000000000E+00 -0.00000000000E+00 -0.18532328546E+03  0.18532328546E+03  0.00000000000E+00 0. -1.
          6    2    1    2  501    0  0.36752428965E+02 -0.30946739259E+02  0.13835495044E+03  0.22530942542E+03  0.17121274241E+03 0.  0.
         24    2    3    3    0    0  0.45859797341E+02 -0.82655715748E+02  0.10975186809E+03  0.16533452460E+03  0.79717903364E+02 0.  0.
         -6    2    1    2    0  502 -0.36752428965E+02  0.30946739259E+02 -0.86235596637E+02  0.19745649931E+03  0.17100891582E+03 0.  0.
        -24    2    5    5    0    0  0.24902310181E+02  0.61132721544E+02 -0.75483281438E+02  0.12781310287E+03  0.79253572750E+02 0.  0.
          5    1    3    3  501    0 -0.91073683764E+01  0.51708976489E+02  0.28603082345E+02  0.59974900816E+02  0.47000000000E+01 0. -1.
        -11    1    4    4    0    0  0.17518935574E+02 -0.46420324487E+02  0.10851004631E+03  0.11931550520E+03  0.00000000000E+00 0.  1.
         12    1    4    4    0    0  0.28340861767E+02 -0.36235391261E+02  0.12418217795E+01  0.46019019404E+02  0.00000000000E+00 0. -1.
         -5    1    5    5    0  502 -0.61654739146E+02 -0.30185982285E+02 -0.10752315198E+02  0.69643396441E+02  0.47000000000E+01 0.  1.
         13    1    6    6    0    0 -0.49957537214E+01  0.59565054429E+02 -0.17053075545E+02  0.62159155802E+02  0.00000000000E+00 0. -1.
        -14    1    6    6    0    0  0.29898063903E+02  0.15676671144E+01 -0.58430205893E+02  0.65653947071E+02  0.00000000000E+00 0.  1.
</event>
<event>
12    1  0.9873238E-001  0.2065428E+03  0.7818608E-02  0.1144480E+00
         21   -1    0    0  503  502  0.00000000000E+00  0.00000000000E+00  0.31054555999E+03  0.31054555999E+03  0.00000000000E+00 0. -1.
         21   -1    0    0  501  503 -0.00000000000E+00 -0.00000000000E+00 -0.40921833530E+03  0.40921833530E+03  0.00000000000E+00 0. -1.
          6    2    1    2  501    0  0.10894150906E+03 -0.30073639244E+02  0.24421626328E+03  0.31984606943E+03  0.17287928941E+03 0.  0.
         24    2    3    3    0    0 -0.10486118271E+02  0.84466192116E+01  0.98335578943E+02  0.12736221935E+03  0.79811933810E+02 0.  0.
         -6    2    1    2    0  502 -0.10894150906E+03  0.30073639244E+02 -0.34288903859E+03  0.39991782586E+03  0.17201365784E+03 0.  0.
        -24    2    5    5    0    0 -0.86795939571E+02 -0.13395255570E+02 -0.32822310533E+03  0.34875973107E+03  0.78676395113E+02 0.  0.
          5    1    3    3  501    0  0.11942762733E+03 -0.38520258456E+02  0.14588068434E+03  0.19248385009E+03  0.47000000000E+01 0. -1.
        -13    1    4    4    0    0  0.10413490311E+02 -0.30804845025E+02  0.61706498581E+02  0.69750062542E+02  0.00000000000E+00 0.  1.
         14    1    4    4    0    0 -0.20899608582E+02  0.39251464237E+02  0.36629080362E+02  0.57612156805E+02  0.00000000000E+00 0. -1.
         -5    1    5    5    0  502 -0.22145569487E+02  0.43468894814E+02 -0.14665933261E+02  0.51158094791E+02  0.47000000000E+01 0.  1.
         11    1    6    6    0    0 -0.16822219444E+01  0.68148987544E+01  0.18758553286E+01  0.72657793056E+01  0.00000000000E+00 0. -1.
        -12    1    6    6    0    0 -0.85113717626E+02 -0.20210154324E+02 -0.33009896066E+03  0.34149395176E+03  0.00000000000E+00 0.  1.
</event>
<event>
12    1  0.9873238E-001  0.2884108E+03  0.7818608E-02  0.1091255E+00
         21   -1    0    0  503  502  0.00000000000E+00  0.00000000000E+00  0.59367158505E+03  0.59367158505E+03  0.00000000000E+00 0.  1.
         21   -1    0    0  501  503 -0.00000000000E+00 -0.00000000000E+00 -0.14008195045E+03  0.14008195045E+03  0.00000000000E+00 0.  1.
          6    2    1    2  501    0 -0.34395160782E+02  0.22858815546E+03  0.24220497747E+03  0.37662186011E+03  0.17246797530E+03 0.  0.
         24    2    3    3    0    0  0.23841714316E+02  0.50528787634E+02  0.11024111477E+03  0.14742058797E+03  0.80362557525E+02 0.  0.
         -6    2    1    2    0  502  0.34395160782E+02 -0.22858815546E+03  0.21138465714E+03  0.35713167539E+03  0.17153421929E+03 0.  0.
        -24    2    5    5    0    0  0.31950346507E+02 -0.34342862040E+02  0.71035697171E+02  0.11742950248E+03  0.80891043784E+02 0.  0.
          5    1    3    3  501    0 -0.58236875098E+02  0.17805936783E+03  0.13196386270E+03  0.22920127214E+03  0.47000000000E+01 0. -1.
        -11    1    4    4    0    0  0.12020104416E+02  0.72174925587E+02  0.80522588610E+02  0.10880068966E+03  0.00000000000E+00 0.  1.
         12    1    4    4    0    0  0.11821609900E+02 -0.21646137953E+02  0.29718526155E+02  0.38619898313E+02  0.00000000000E+00 0. -1.
         -5    1    5    5    0  502  0.24448142755E+01 -0.19424529342E+03  0.14034895997E+03  0.23970217291E+03  0.47000000000E+01 0.  1.
         13    1    6    6    0    0 -0.50358003833E+01  0.20231827987E+02  0.38792280664E+02  0.44040063446E+02  0.00000000000E+00 0. -1.
        -14    1    6    6    0    0  0.36986146890E+02 -0.54574690026E+02  0.32243416506E+02  0.73389439031E+02  0.00000000000E+00 0.  1.
</event>
<event>
12    1  0.9873238E-001  0.3940625E+03  0.7818608E-02  0.1045880E+00
         21   -1    0    0  503  502  0.00000000000E+00  0.00000000000E+00  0.39073303404E+03  0.39073303404E+03  0.00000000000E+00 0.  1.
         21   -1    0    0  501  503 -0.00000000000E+00 -0.00000000000E+00 -0.47341211480E+03  0.47341211480E+03  0.00000000000E+00 0. -1.
          6    2    1    2  501    0  0.51607330198E+01 -0.35452197775E+03 -0.21478821519E+03  0.44879752752E+03  0.17196737320E+03 0.  0.
         24    2    3    3    0    0 -0.59092886646E+02 -0.14746324241E+03 -0.92306678973E+02  0.19974800587E+03  0.78366866396E+02 0.  0.
         -6    2    1    2    0  502 -0.51607330198E+01  0.35452197775E+03  0.13210913444E+03  0.41534762132E+03  0.17131362251E+03 0.  0.
        -24    2    5    5    0    0  0.22859013917E+02  0.85879808504E+02  0.19528406164E+02  0.12268701294E+03  0.82297439033E+02 0.  0.
          5    1    3    3  501    0  0.64253619666E+02 -0.20705873534E+03 -0.12248153622E+03  0.24904952165E+03  0.47000000000E+01 0. -1.
        -13    1    4    4    0    0 -0.40280171358E+02 -0.11687495794E+03 -0.10445036746E+03  0.16183981976E+03  0.00000000000E+00 0.  1.
         14    1    4    4    0    0 -0.18812715289E+02 -0.30588284477E+02  0.12143688487E+02  0.37908186106E+02  0.00000000000E+00 0. -1.
         -5    1    5    5    0  502 -0.28019746937E+02  0.26864216925E+03  0.11258072827E+03  0.29266060838E+03  0.47000000000E+01 0.  1.
         13    1    6    6    0    0  0.22019133528E+02  0.60335932972E+02  0.51093758097E+02  0.82072158284E+02  0.00000000000E+00 0. -1.
        -14    1    6    6    0    0  0.83988038855E+00  0.25543875532E+02 -0.31565351933E+02  0.40614854658E+02  0.00000000000E+00 0.  1.
</event>
<event>
12    1  0.9873238E-001  0.1894354E+03  0.7818608E-02  0.1159224E+00
         21   -1    0    0  503  502  0.00000000000E+00  0.00000000000E+00  0.33796010323E+03  0.33796010323E+03  0.00000000000E+00 0.  1.
         21   -1    0    0  501  503 -0.00000000000E+00 -0.00000000000E+00 -0.10768068926E+03  0.10768068926E+03  0.00000000000E+00 0.  1.
          6    2    1    2  501    0 -0.54048150682E+02 -0.58740167697E+02  0.14607216510E+03  0.23833277057E+03  0.17056911273E+03 0.  0.
         24    2    3    3    0    0 -0.44372546909E+02  0.15583830185E+02  0.13070855412E+03  0.16167897411E+03  0.82725968523E+02 0.  0.
         -6    2    1    2    0  502  0.54048150682E+02  0.58740167697E+02  0.84207248873E+02  0.20730802192E+03  0.17179681398E+03 0.  0.
        -24    2    5    5    0    0  0.79339490095E+02  0.20914282381E+02 -0.57421461210E+01  0.10639502419E+03  0.67489014182E+02 0.  0.
          5    1    3    3  501    0 -0.96756037724E+01 -0.74323997883E+02  0.15363610985E+02  0.76653796462E+02  0.47000000000E+01 0. -1.
        -11    1    4    4    0    0 -0.49077993318E+02  0.41194852437E+02  0.66285749813E+02  0.92192548092E+02  0.00000000000E+00 0.  1.
         12    1    4    4    0    0  0.47054464085E+01 -0.25611022252E+02  0.64422804304E+02  0.69486426020E+02  0.00000000000E+00 0. -1.
         -5    1    5    5    0  502 -0.25291339413E+02  0.37825885316E+02  0.89949394994E+02  0.10091299772E+03  0.47000000000E+01 0.  1.
         13    1    6    6    0    0  0.70383761663E+02  0.38487087085E+02  0.10423102379E+02  0.80893577256E+02  0.00000000000E+00 0. -1.
        -14    1    6    6    0    0  0.89557284322E+01 -0.17572804704E+02 -0.16165248500E+02  0.25501446939E+02  0.00000000000E+00 0.  1.
</event>
<event>
12    1  0.9873238E-001  0.3357419E+03  0.7818608E-02  0.1068676E+00
         21   -1    0    0  501  502  0.00000000000E+00  0.00000000000E+00  0.15891029459E+04  0.15891029459E+04  0.00000000000E+00 0. -1.
         21   -1    0    0  502  503 -0.00000000000E+00 -0.00000000000E+00 -0.11078513369E+03  0.11078513369E+03  0.00000000000E+00 0.  1.
         -6    2    1    2    0  503  0.28468310659E+03  0.43362967540E+02  0.12499067069E+04  0.12942138270E+04  0.17262049667E+03 0.  0.
        -24    2    3    3    0    0  0.20342899225E+03  0.29491805711E+01  0.10758171484E+04  0.10978346793E+04  0.80413889871E+02 0.  0.
          6    2    1    2  501    0 -0.28468310659E+03 -0.43362967540E+02  0.22841110530E+03  0.40567425259E+03  0.17168327835E+03 0.  0.
         24    2    5    5    0    0 -0.15349728932E+03 -0.31223466933E+02  0.42901557920E+02  0.17809356735E+03  0.73078398619E+02 0.  0.
          5    1    5    5  501    0 -0.13118581727E+03 -0.12139500608E+02  0.18550954738E+03  0.22758068524E+03  0.47000000000E+01 0. -1.
        -11    1    6    6    0    0 -0.75982024097E+02 -0.50215008588E+02  0.94720171390E+01  0.91567102073E+02  0.00000000000E+00 0.  1.
         12    1    6    6    0    0 -0.77515265223E+02  0.18991541656E+02  0.33429540780E+02  0.86526465280E+02  0.00000000000E+00 0. -1.
         -5    1    3    3    0  503  0.81254114332E+02  0.40413786969E+02  0.17408955848E+03  0.19637914769E+03  0.47000000000E+01 0.  1.
         11    1    4    4    0    0  0.15568159987E+03 -0.75529073489E+01  0.61548916939E+03  0.63491788807E+03  0.00000000000E+00 0. -1.
        -12    1    4    4    0    0  0.47747392382E+02  0.10502087920E+02  0.46032797903E+03  0.46291679123E+03  0.00000000000E+00 0.  1.
</event>
<event>
12    1  0.9873238E-001  0.1816925E+03  0.7818608E-02  0.1166347E+00
         21   -1    0    0  501  502  0.00000000000E+00  0.00000000000E+00  0.25751830147E+04  0.25751830147E+04  0.00000000000E+00 0. -1.
         21   -1    0    0  502  503 -0.00000000000E+00 -0.00000000000E+00 -0.13411219841E+02  0.13411219841E+02  0.00000000000E+00 0. -1.
         -6    2    1    2    0  503 -0.12012717075E+02 -0.57959530947E+02  0.15665721547E+04  0.15770733904E+04  0.17178052883E+03 0.  0.
        -24    2    3    3    0    0  0.50491287556E+02 -0.20344790034E+01  0.69866457782E+03  0.70511008032E+03  0.80588608714E+02 0.  0.
          6    2    1    2  501    0  0.12012717075E+02  0.57959530947E+02  0.99519964009E+03  0.10115208441E+04  0.17102187535E+03 0.  0.
         24    2    5    5    0    0  0.47663617348E+02 -0.17843098500E+02  0.61120692814E+03  0.61846929769E+03  0.79625163051E+02 0.  0.
          5    1    5    5  501    0 -0.35650900273E+02  0.75802629448E+02  0.38399271195E+03  0.39305154643E+03  0.47000000000E+01 0. -1.
        -13    1    6    6    0    0  0.48453871688E+02 -0.23517911075E+02  0.61029571985E+03  0.61266772029E+03  0.00000000000E+00 0.  1.
         14    1    6    6    0    0 -0.79025433931E+00  0.56748125750E+01  0.91120828951E+00  0.58015773915E+01  0.00000000000E+00 0. -1.
         -5    1    3    3    0  503 -0.62504004631E+02 -0.55925051944E+02  0.86790757691E+03  0.87196331006E+03  0.47000000000E+01 0.  1.
         11    1    4    4    0    0  0.24047674666E+02 -0.38493875147E+02  0.45992813557E+03  0.46216226476E+03  0.00000000000E+00 0. -1.
        -12    1    4    4    0    0  0.26443612890E+02  0.36459396143E+02  0.23873644225E+03  0.24294781556E+03  0.00000000000E+00 0.  1.
</event>
<event>
12    1  0.9873238E-001  0.2338263E+03  0.7818608E-02  0.1124080E+00
         21   -1    0    0  503  502  0.00000000000E+00  0.00000000000E+00  0.13704450269E+03  0.13704450269E+03  0.00000000000E+00 0. -1.
         21   -1    0    0  501  503 -0.00000000000E+00 -0.00000000000E+00 -0.19730943573E+04  0.19730943573E+04  0.00000000000E+00 0. -1.
          6    2    1    2  501    0  0.15739367178E+03 -0.16905724568E+02  0.24910218777E+02  0.23454638404E+03  0.17126854885E+03 0.  0.
         24    2    3    3    0    0  0.14004791584E+03 -0.51886529132E+02  0.62765714305E+02  0.17996011765E+03  0.78361204779E+02 0.  0.
         -6    2    1    2    0  502 -0.15739367178E+03  0.16905724568E+02 -0.18609600734E+04  0.18755924760E+04  0.17209349114E+03 0.  0.
        -24    2    5    5    0    0 -0.21657251333E+02 -0.32625540639E+02 -0.67742371564E+03  0.68325941755E+03  0.80044229771E+02 0.  0.
          5    1    3    3  501    0  0.17345755942E+02  0.34980804565E+02 -0.37855495527E+02  0.54586266394E+02  0.47000000000E+01 0. -1.
        -13    1    4    4    0    0  0.12979834265E+03 -0.15464939672E+02  0.51329837713E+02  0.14043335199E+03  0.00000000000E+00 0.  1.
         14    1    4    4    0    0  0.10249573195E+02 -0.36421589461E+02  0.11435876592E+02  0.39526765653E+02  0.00000000000E+00 0. -1.
         -5    1    5    5    0  502 -0.13573642045E+03  0.49531265206E+02 -0.11835363577E+04  0.11923330584E+04  0.47000000000E+01 0.  1.
         11    1    6    6    0    0 -0.29391047264E+02 -0.46159455344E+02 -0.64464125795E+03  0.64695972087E+03  0.00000000000E+00 0. -1.
        -12    1    6    6    0    0  0.77337959309E+01  0.13533914705E+02 -0.32782457690E+02  0.36299696678E+02  0.00000000000E+00 0.  1.
</event>
<event>
12    1  0.9873238E-001  0.1757672E+03  0.7818608E-02  0.1172032E+00
         21   -1    0    0  501  502  0.00000000000E+00  0.00000000000E+00  0.12885963725E+03  0.12885963725E+03  0.00000000000E+00 0. -1.
         21   -1    0    0  502  503 -0.00000000000E+00 -0.00000000000E+00 -0.25472612783E+03  0.25472612783E+03  0.00000000000E+00 0. -1.
         -6    2    1    2    0  503 -0.33621519282E+02 -0.49364635263E+01 -0.11006205578E+03  0.20738316789E+03  0.17245099874E+03 0.  0.
        -24    2    3    3    0    0 -0.57578040467E+02 -0.34608635954E+02 -0.15013783211E+02  0.10486186843E+03  0.79105052536E+02 0.  0.
          6    2    1    2  501    0  0.33621519282E+02  0.49364635263E+01 -0.15804434796E+02  0.17620259719E+03  0.17217084500E+03 0.  0.
         24    2    5    5    0    0 -0.18835954367E+02  0.13701984854E+02 -0.63504571577E+02  0.10460641046E+03  0.79794316416E+02 0.  0.
          5    1    5    5  501    0  0.52457473649E+02 -0.87655213273E+01  0.47700136780E+02  0.71596186733E+02  0.47000000000E+01 0. -1.
        -11    1    6    6    0    0  0.90010166369E+01  0.41661499770E+02 -0.24676166113E+02  0.49250502917E+02  0.00000000000E+00 0.  1.
         12    1    6    6    0    0 -0.27836971004E+02 -0.27959514916E+02 -0.38828405464E+02  0.55355907542E+02  0.00000000000E+00 0. -1.
         -5    1    3    3    0  503  0.23956521185E+02  0.29672172428E+02 -0.95048272572E+02  0.10252129946E+03  0.47000000000E+01 0.  1.
         11    1    4    4    0    0 -0.17175824587E+02 -0.54853572824E+02 -0.15983934781E+02  0.59660787565E+02  0.00000000000E+00 0. -1.
        -12    1    4    4    0    0 -0.40402215880E+02  0.20244936870E+02  0.97015157030E+00  0.45201080861E+02  0.00000000000E+00 0.  1.
</event>
<event>
12    1  0.9873238E-001  0.3065532E+03  0.7818608E-02  0.1082926E+00
         21   -1    0    0  501  502  0.00000000000E+00  0.00000000000E+00  0.38417754583E+03  0.38417754583E+03  0.00000000000E+00 0.  1.
         21   -1    0    0  502  503 -0.00000000000E+00 -0.00000000000E+00 -0.32133961604E+03  0.32133961604E+03  0.00000000000E+00 0.  1.
         -6    2    1    2    0  503 -0.16590945894E+03 -0.19087317355E+03 -0.14716257886E+03  0.34004661518E+03  0.17325229849E+03 0.  0.
        -24    2    3    3    0    0 -0.31497453935E+02 -0.13115547439E+03 -0.60737176648E+02  0.16938838705E+03  0.82520136770E+02 0.  0.
          6    2    1    2  501    0  0.16590945894E+03  0.19087317355E+03  0.21000050865E+03  0.36547054669E+03  0.15971847082E+03 0.  0.
         24    2    5    5    0    0  0.73188990778E+02  0.31344896994E+02  0.57769735757E+02  0.12621617484E+03  0.79082548532E+02 0.  0.
          5    1    5    5  501    0  0.92720468159E+02  0.15952827655E+03  0.15223077290E+03  0.23925437186E+03  0.47000000000E+01 0. -1.
        -11    1    6    6    0    0  0.25041281034E+02  0.79682971829E+00  0.64121716708E+02  0.68842539516E+02  0.00000000000E+00 0.  1.
         12    1    6    6    0    0  0.48147709744E+02  0.30548067275E+02 -0.63519809516E+01  0.57373635320E+02  0.00000000000E+00 0. -1.
         -5    1    3    3    0  503 -0.13441200500E+03 -0.59717699159E+02 -0.86425402217E+02  0.17065822813E+03  0.47000000000E+01 0.  1.
         11    1    4    4    0    0 -0.15757844761E+02 -0.99260792710E+02 -0.17630318115E+01  0.10051926642E+03  0.00000000000E+00 0. -1.
        -12    1    4    4    0    0 -0.15739609174E+02 -0.31894681678E+02 -0.58974144836E+02  0.68869120623E+02  0.00000000000E+00 0.  1.
</event>
<event>
12    1  0.9873238E-001  0.2499148E+03  0.7818608E-02  0.1113435E+00
         21   -1    0    0  501  502  0.00000000000E+00  0.00000000000E+00  0.24993190413E+03  0.24993190413E+03  0.00000000000E+00 0. -1.
         21   -1    0    0  502  503 -0.00000000000E+00 -0.00000000000E+00 -0.35856821826E+03  0.35856821826E+03  0.00000000000E+00 0. -1.
         -6    2    1    2    0  503  0.48831391648E+02  0.17394533420E+03 -0.22214717910E+03  0.33401496505E+03  0.17197425272E+03 0.  0.
        -24    2    3    3    0    0  0.90783328591E+02  0.16837490315E+03 -0.17957780816E+03  0.27380503184E+03  0.78289753588E+02 0.  0.
          6    2    1    2  501    0 -0.48831391648E+02 -0.17394533420E+03  0.11351086497E+03  0.27448515734E+03  0.17267281499E+03 0.  0.
         24    2    5    5    0    0 -0.84131576214E+02 -0.17924033799E+03  0.10076664638E+03  0.23629294344E+03  0.80468734405E+02 0.  0.
          5    1    5    5  501    0  0.35300184565E+02  0.52950037934E+01  0.12744218589E+02  0.38192213905E+02  0.47000000000E+01 0. -1.
        -13    1    6    6    0    0 -0.82908484570E+02 -0.93039817099E+02  0.40233528902E+02  0.13095404242E+03  0.00000000000E+00 0.  1.
         14    1    6    6    0    0 -0.12230916437E+01 -0.86200520894E+02  0.60533117475E+02  0.10533890101E+03  0.00000000000E+00 0. -1.
         -5    1    3    3    0  503 -0.41951936943E+02  0.55704310485E+01 -0.42569370942E+02  0.60209933215E+02  0.47000000000E+01 0.  1.
         13    1    4    4    0    0  0.82258910881E+02  0.10620994087E+03 -0.80750294535E+02  0.15674083713E+03  0.00000000000E+00 0. -1.
        -14    1    4    4    0    0  0.85244177103E+01  0.62164962284E+02 -0.98827513622E+02  0.11706419470E+03  0.00000000000E+00 0.  1.
</event>
<event>
12    1  0.9873238E-001  0.2191874E+03  0.7818608E-02  0.1134493E+00
         21   -1    0    0  503  502  0.00000000000E+00  0.00000000000E+00  0.36664359494E+04  0.36664359494E+04  0.00000000000E+00 0. -1.
         21   -1    0    0  501  503 -0.00000000000E+00 -0.00000000000E+00 -0.29157657147E+02  0.29157657147E+02  0.00000000000E+00 0. -1.
          6    2    1    2  501    0 -0.12867881034E+03  0.44730616767E+02  0.31897587934E+04  0.31972796478E+04  0.17168844439E+03 0.  0.
         24    2    3    3    0    0 -0.44072185925E+02 -0.25136657121E+02  0.89725753385E+03  0.90214918705E+03  0.78916820456E+02 0.  0.
         -6    2    1    2    0  502  0.12867881034E+03 -0.44730616767E+02  0.44751949879E+03  0.49831395868E+03  0.17170915906E+03 0.  0.
        -24    2    5    5    0    0  0.15263128226E+02 -0.27688131901E+02  0.10310748616E+03  0.13527775155E+03  0.81665908618E+02 0.  0.
          5    1    3    3  501    0 -0.84606624411E+02  0.69867273888E+02  0.22925012596E+04  0.22951304608E+04  0.47000000000E+01 0. -1.
        -13    1    4    4    0    0 -0.55291378729E+02  0.94295948604E+01  0.61724404091E+03  0.61978726985E+03  0.00000000000E+00 0.  1.
         14    1    4    4    0    0  0.11219192804E+02 -0.34566251982E+02  0.28001349293E+03  0.28236191721E+03  0.00000000000E+00 0. -1.
         -5    1    5    5    0  502  0.11341568211E+03 -0.17042484865E+02  0.34441201263E+03  0.36303620713E+03  0.47000000000E+01 0.  1.
         13    1    6    6    0    0  0.88802881391E+01  0.24311895521E+02  0.86968205899E+01  0.27304989831E+02  0.00000000000E+00 0. -1.
        -14    1    6    6    0    0  0.63828400865E+01 -0.52000027423E+02  0.94410665572E+02  0.10797276172E+03  0.00000000000E+00 0.  1.
</event>
<event>
12    1  0.9873238E-001  0.2071831E+03  0.7818608E-02  0.1144586E+00
         21   -1    0    0  501  502  0.00000000000E+00  0.00000000000E+00  0.91194092846E+02  0.91194092846E+02  0.00000000000E+00 0. -1.
         21   -1    0    0  502  503 -0.00000000000E+00 -0.00000000000E+00 -0.51351110426E+03  0.51351110426E+03  0.00000000000E+00 0. -1.
         -6    2    1    2    0  503  0.95180731905E+02 -0.66970015326E+02 -0.30503382526E+03  0.36662917002E+03  0.16681414531E+03 0.  0.
        -24    2    3    3    0    0  0.11913922217E+02 -0.84996756352E+02 -0.20335624029E+03  0.23389354453E+03  0.77369500286E+02 0.  0.
          6    2    1    2  501    0 -0.95180731905E+02  0.66970015326E+02 -0.11728318615E+03  0.23807602708E+03  0.17140739261E+03 0.  0.
         24    2    5    5    0    0 -0.99690371294E+02 -0.90812523946E+01 -0.92909826706E+02  0.15794935974E+03  0.79341824215E+02 0.  0.
          5    1    5    5  501    0  0.45096393890E+01  0.76051267721E+02 -0.24373359442E+02  0.80126667345E+02  0.47000000000E+01 0. -1.
        -11    1    6    6    0    0 -0.97752983608E+02 -0.19043639661E+02 -0.45547793314E+02  0.10951213399E+03  0.00000000000E+00 0.  1.
         12    1    6    6    0    0 -0.19373876867E+01  0.99623872659E+01 -0.47362033392E+02  0.48437225747E+02  0.00000000000E+00 0. -1.
         -5    1    3    3    0  503  0.83266809688E+02  0.18026741026E+02 -0.10167758497E+03  0.13273562549E+03  0.47000000000E+01 0.  1.
         11    1    4    4    0    0  0.21030398061E+02 -0.43217109568E+02 -0.17756617766E+03  0.18395581984E+03  0.00000000000E+00 0. -1.
        -12    1    4    4    0    0 -0.91164758441E+01 -0.41779646784E+02 -0.25790062631E+02  0.49937724695E+02  0.00000000000E+00 0.  1.
</event>
<event>
12    1  0.9873238E-001  0.1873957E+03  0.7818608E-02  0.1160832E+00
         21   -1    0    0  503  502  0.00000000000E+00  0.00000000000E+00  0.70727145100E+03  0.70727145100E+03  0.00000000000E+00 0. -1.
         21   -1    0    0  501  503 -0.00000000000E+00 -0.00000000000E+00 -0.64952402105E+02  0.64952402105E+02  0.00000000000E+00 0. -1.
          6    2    1    2  501    0  0.28566035993E+02 -0.68768232950E+02  0.50857064410E+03  0.54199746645E+03  0.17196530268E+03 0.  0.
         24    2    3    3    0    0  0.31057442936E+02 -0.10318330254E+03  0.29057362002E+03  0.32123651739E+03  0.84548877998E+02 0.  0.
         -6    2    1    2    0  502 -0.28566035993E+02  0.68768232950E+02  0.13374840480E+03  0.23022638665E+03  0.17196064971E+03 0.  0.
        -24    2    5    5    0    0  0.16855373714E+02  0.14705249221E+02  0.75836402839E+01  0.85569729446E+02  0.82245480239E+02 0.  0.
          5    1    3    3  501    0 -0.24914069429E+01  0.34415069586E+02  0.21799702408E+03  0.22076094906E+03  0.47000000000E+01 0. -1.
        -13    1    4    4    0    0  0.31242210141E+02 -0.47823479908E+02  0.55187892013E+02  0.79428359859E+02  0.00000000000E+00 0.  1.
         14    1    4    4    0    0 -0.18476720516E+00 -0.55359822628E+02  0.23538572801E+03  0.24180815753E+03  0.00000000000E+00 0. -1.
         -5    1    5    5    0  502 -0.45421409707E+02  0.54062983729E+02  0.12616476451E+03  0.14465665721E+03  0.47000000000E+01 0.  1.
         13    1    6    6    0    0 -0.17842121415E+02  0.22855967542E+02 -0.24236135776E+02  0.37790565307E+02  0.00000000000E+00 0. -1.
        -14    1    6    6    0    0  0.34697495128E+02 -0.81507183213E+01  0.31819776060E+02  0.47779164139E+02  0.00000000000E+00 0.  1.
</event>
<event>
12    1  0.9873238E-001  0.2043807E+03  0.7818608E-02  0.1146396E+00
         21   -1    0    0  503  502  0.00000000000E+00  0.00000000000E+00  0.74528027683E+03  0.74528027683E+03  0.00000000000E+00 0. -1.
         21   -1    0    0  501  503 -0.00000000000E+00 -0.00000000000E+00 -0.92709065830E+02  0.92709065830E+02  0.00000000000E+00 0. -1.
          6    2    1    2  501    0 -0.84974377540E+02  0.73356410286E+02  0.60668903360E+02  0.21179463875E+03  0.16903977461E+03 0.  0.
         24    2    3    3    0    0 -0.88529869868E+01  0.36268970337E+02 -0.27213708508E+02  0.89666068092E+02  0.76847929370E+02 0.  0.
         -6    2    1    2    0  502  0.84974377540E+02 -0.73356410286E+02  0.59190230764E+03  0.62619470391E+03  0.17079126924E+03 0.  0.
        -24    2    5    5    0    0  0.72354992181E+02 -0.10635258598E+03  0.55230149375E+03  0.57291890304E+03  0.81565997973E+02 0.  0.
          5    1    3    3  501    0 -0.76121390553E+02  0.37087439949E+02  0.87882611868E+02  0.12212857066E+03  0.47000000000E+01 0. -1.
        -11    1    4    4    0    0  0.30811398461E+01  0.15208290661E+02  0.26522999844E+02  0.30728733268E+02  0.00000000000E+00 0.  1.
         12    1    4    4    0    0 -0.11934126833E+02  0.21060679676E+02 -0.53736708351E+02  0.58937334824E+02  0.00000000000E+00 0. -1.
         -5    1    5    5    0  502  0.12619385359E+02  0.32996175698E+02  0.39600813891E+02  0.53275800871E+02  0.47000000000E+01 0.  1.
         13    1    6    6    0    0 -0.13069469172E+02 -0.41579814372E+02  0.19866653465E+03  0.20339145503E+03  0.00000000000E+00 0. -1.
        -14    1    6    6    0    0  0.85424461353E+02 -0.64772771612E+02  0.35363495910E+03  0.36952744802E+03  0.00000000000E+00 0.  1.
</event>
<event>
12    1  0.1165610E+000  0.5721359E+03  0.7818608E-02  0.9965140E-01
         21   -1    0    0  501  502  0.00000000000E+00  0.00000000000E+00  0.94662262501E+03  0.94662262501E+03  0.00000000000E+00 0. -1.
         21   -1    0    0  502  503 -0.00000000000E+00 -0.00000000000E+00 -0.62383898876E+03  0.62383898876E+03  0.00000000000E+00 0. -1.
         -6    2    1    2    0  503  0.27235430772E+03  0.47290954975E+03  0.68582297334E+03  0.89313640511E+03  0.17181145540E+03 0.  0.
        -24    2    3    3    0    0  0.22950570585E+02  0.13132860749E+03  0.19105734147E+03  0.24221791199E+03  0.66277276085E+02 0.  0.
          6    2    1    2  501    0 -0.27235430772E+03 -0.47290954975E+03 -0.36303933709E+03  0.67732520866E+03  0.17073829927E+03 0.  0.
         24    2    5    5    0    0 -0.20953253486E+03 -0.41442425519E+03 -0.24428650946E+03  0.53072565582E+03  0.79639667144E+02 0.  0.
          5    1    5    5  501    0 -0.62821772855E+02 -0.58485294556E+02 -0.11875282763E+03  0.14659955284E+03  0.47000000000E+01 0. -1.
        -13    1    6    6    0    0 -0.14729576372E+02 -0.44597175308E+02 -0.53669877523E+02  0.71318470391E+02  0.00000000000E+00 0.  1.
         14    1    6    6    0    0 -0.19480295849E+03 -0.36982707988E+03 -0.19061663194E+03  0.45940718543E+03  0.00000000000E+00 0. -1.
         -5    1    3    3    0  503  0.24940373713E+03  0.34158094226E+03  0.49476563186E+03  0.65091849312E+03  0.47000000000E+01 0.  1.
         11    1    4    4    0    0  0.39203885853E+02  0.91569241630E+02  0.16262842792E+03  0.19070887826E+03  0.00000000000E+00 0. -1.
        -12    1    4    4    0    0 -0.16253315268E+02  0.39759365857E+02  0.28428913551E+02  0.51509033734E+02  0.00000000000E+00 0.  1.
</event>
<event>
12    1  0.9873238E-001  0.1755190E+03  0.7818608E-02  0.1172275E+00
         21   -1    0    0  503  502  0.00000000000E+00  0.00000000000E+00  0.56811781684E+03  0.56811781684E+03  0.00000000000E+00 0. -1.
         21   -1    0    0  501  503 -0.00000000000E+00 -0.00000000000E+00 -0.82035289073E+02  0.82035289073E+02  0.00000000000E+00 0. -1.
          6    2    1    2  501    0 -0.46370714179E+01 -0.32005116549E+02  0.43269304304E+03  0.46693703615E+03  0.17251404672E+03 0.  0.
         24    2    3    3    0    0 -0.81596800640E+01 -0.66109107614E+02  0.15611890110E+03  0.18820627544E+03  0.81311108371E+02 0.  0.
         -6    2    1    2    0  502  0.46370714179E+01  0.32005116549E+02  0.53389484730E+02  0.18321606977E+03  0.17225522118E+03 0.  0.
        -24    2    5    5    0    0  0.30482716486E+02 -0.15424767863E+02  0.84923711272E+02  0.12049375517E+03  0.78355528405E+02 0.  0.
          5    1    3    3  501    0  0.35226086460E+01  0.34103991064E+02  0.27657414194E+03  0.27873076071E+03  0.47000000000E+01 0. -1.
        -13    1    4    4    0    0  0.20866006477E+02 -0.30710176496E+02  0.15341436241E+02  0.40172936570E+02  0.00000000000E+00 0.  1.
         14    1    4    4    0    0 -0.29025686541E+02 -0.35398931117E+02  0.14077746486E+03  0.14803333887E+03  0.00000000000E+00 0. -1.
         -5    1    5    5    0  502 -0.25845645068E+02  0.47429884412E+02 -0.31534226541E+02  0.62722314593E+02  0.47000000000E+01 0.  1.
         11    1    6    6    0    0  0.33183939247E+02 -0.99935689881E+01  0.99147869297E+02  0.10503021104E+03  0.00000000000E+00 0. -1.
        -12    1    6    6    0    0 -0.27012227609E+01 -0.54311988749E+01 -0.14224158025E+02  0.15463544133E+02  0.00000000000E+00 0.  1.
</event>
<event>
12    1  0.9873238E-001  0.1935724E+03  0.7818608E-02  0.1155634E+00
         21   -1    0    0  503  502  0.00000000000E+00  0.00000000000E+00  0.15098002600E+03  0.15098002600E+03  0.00000000000E+00 0. -1.
         21   -1    0    0  501  503 -0.00000000000E+00 -0.00000000000E+00 -0.28426513099E+03  0.28426513099E+03  0.00000000000E+00 0. -1.
          6    2    1    2  501    0  0.73814643473E+02 -0.48146014414E+02  0.12835394988E+02  0.19399744244E+03  0.17234738180E+03 0.  0.
         24    2    3    3    0    0  0.86087511415E+00 -0.70211276589E+02  0.34269030965E+02  0.11468402073E+03  0.83950542942E+02 0.  0.
         -6    2    1    2    0  502 -0.73814643473E+02  0.48146014414E+02 -0.14612049999E+03  0.24124771455E+03  0.17053626877E+03 0.  0.
        -24    2    5    5    0    0 -0.42700773725E+02  0.14681060429E+02 -0.40325913670E+01  0.91919084302E+02  0.79962282695E+02 0.  0.
          5    1    3    3  501    0  0.72953768359E+02  0.22065262175E+02 -0.21433635977E+02  0.79313421713E+02  0.47000000000E+01 0. -1.
        -13    1    4    4    0    0  0.28885750074E+02 -0.25836197634E+02  0.46762216207E+02  0.60733849953E+02  0.00000000000E+00 0.  1.
         14    1    4    4    0    0 -0.28024874960E+02 -0.44375078956E+02 -0.12493185242E+02  0.53950170772E+02  0.00000000000E+00 0. -1.
         -5    1    5    5    0  502 -0.31113869748E+02  0.33464953985E+02 -0.14208790862E+03  0.14932863025E+03  0.47000000000E+01 0.  1.
         13    1    6    6    0    0 -0.35808245300E+02 -0.29877001004E+02  0.16879778121E+00  0.46635760026E+02  0.00000000000E+00 0. -1.
        -14    1    6    6    0    0 -0.68925284243E+01  0.44558061433E+02 -0.42013891482E+01  0.45283324277E+02  0.00000000000E+00 0.  1.
</event>
<event>
12    1  0.9873238E-001  0.1804882E+03  0.7818608E-02  0.1167521E+00
         21   -1    0    0  501  502  0.00000000000E+00  0.00000000000E+00  0.13069160124E+02  0.13069160124E+02  0.00000000000E+00 0.  1.
         21   -1    0    0  502  503 -0.00000000000E+00 -0.00000000000E+00 -0.30121046027E+04  0.30121046027E+04  0.00000000000E+00 0.  1.
         -6    2    1    2    0  503 -0.35646236363E+02 -0.35894945728E+02 -0.21368956028E+04  0.21445043285E+04  0.17325384897E+03 0.  0.
        -24    2    3    3    0    0 -0.38756099609E+02  0.56127738582E+01 -0.19836867701E+04  0.19856723466E+04  0.79673883988E+02 0.  0.
          6    2    1    2  501    0  0.35646236363E+02  0.35894945728E+02 -0.86213983979E+03  0.88066943438E+03  0.17243679426E+03 0.  0.
         24    2    5    5    0    0 -0.66003821809E+01 -0.34668627359E+02 -0.29707857420E+03  0.30963500592E+03  0.79829060333E+02 0.  0.
          5    1    5    5  501    0  0.42246618544E+02  0.70563573087E+02 -0.56506126559E+03  0.57103442847E+03  0.47000000000E+01 0. -1.
        -11    1    6    6    0    0  0.78929390164E+01 -0.26463317497E+02 -0.25630964810E+02  0.37676942768E+02  0.00000000000E+00 0.  1.
         12    1    6    6    0    0 -0.14493321197E+02 -0.82053098622E+01 -0.27144760939E+03  0.27195806315E+03  0.00000000000E+00 0. -1.
         -5    1    3    3    0  503  0.31098632452E+01 -0.41507719586E+02 -0.15320883278E+03  0.15883198191E+03  0.47000000000E+01 0.  1.
         11    1    4    4    0    0 -0.24701844981E+01 -0.31735136949E+02 -0.10940205968E+04  0.10944835709E+04  0.00000000000E+00 0. -1.
        -12    1    4    4    0    0 -0.36285915111E+02  0.37347910807E+02 -0.88966617324E+03  0.89118877567E+03  0.00000000000E+00 0.  1.
</event>
<event>
12    1  0.9873238E-001  0.2154130E+03  0.7818608E-02  0.1137516E+00
         21   -1    0    0  501  502  0.00000000000E+00  0.00000000000E+00  0.10650841517E+03  0.10650841517E+03  0.00000000000E+00 0.  1.
         21   -1    0    0  502  503 -0.00000000000E+00 -0.00000000000E+00 -0.43690330232E+03  0.43690330232E+03  0.00000000000E+00 0.  1.
         -6    2    1    2    0  503  0.52865671083E+02  0.11890142564E+03 -0.14244467366E+03  0.25753052729E+03  0.17058475674E+03 0.  0.
        -24    2    3    3    0    0  0.59920772928E+02  0.83389157389E+02 -0.25695102778E+02  0.13520535425E+03  0.84118956914E+02 0.  0.
          6    2    1    2  501    0 -0.52865671083E+02 -0.11890142564E+03 -0.18795021349E+03  0.28588119020E+03  0.17166957785E+03 0.  0.
         24    2    5    5    0    0 -0.34153806761E+02 -0.24943031954E+02 -0.20537761008E+02  0.92937330856E+02  0.80168014071E+02 0.  0.
          5    1    5    5  501    0 -0.18711864322E+02 -0.93958393690E+02 -0.16741245248E+03  0.19294385934E+03  0.47000000000E+01 0. -1.
        -13    1    6    6    0    0 -0.25838365769E+02 -0.49944221210E+02  0.47312587712E+01  0.56430764548E+02  0.00000000000E+00 0.  1.
         14    1    6    6    0    0 -0.83154409914E+01  0.25001189255E+02 -0.25269019779E+02  0.36506566309E+02  0.00000000000E+00 0. -1.
         -5    1    3    3    0  503 -0.70551018458E+01  0.35512268255E+02 -0.11674957088E+03  0.12232517304E+03  0.47000000000E+01 0.  1.
         13    1    4    4    0    0 -0.13903633243E+02 -0.52613554508E+01  0.52449771929E+01  0.15763967276E+02  0.00000000000E+00 0. -1.
        -14    1    4    4    0    0  0.73824406171E+02  0.88650512840E+02 -0.30940079971E+02  0.11944138697E+03  0.00000000000E+00 0.  1.
</event>
<event>
12    1  0.9873238E-001  0.5216240E+03  0.7818608E-02  0.1008288E+00
         21   -1    0    0  501  502  0.00000000000E+00  0.00000000000E+00  0.69399004876E+03  0.69399004876E+03  0.00000000000E+00 0. -1.
         21   -1    0    0  502  503 -0.00000000000E+00 -0.00000000000E+00 -0.54508489722E+03  0.54508489722E+03  0.00000000000E+00 0.  1.
         -6    2    1    2    0  503  0.16738191893E+03  0.46300001681E+03 -0.25385191240E+03  0.58011410884E+03  0.17235389030E+03 0.  0.
        -24    2    3    3    0    0  0.38859887242E+02  0.28941803472E+03 -0.12357137406E+03  0.32783702743E+03  0.83272699086E+02 0.  0.
          6    2    1    2  501    0 -0.16738191893E+03 -0.46300001681E+03  0.40275706395E+03  0.65896083713E+03  0.17213485983E+03 0.  0.
         24    2    5    5    0    0 -0.14823128300E+03 -0.44358633455E+03  0.41363550552E+03  0.62922754928E+03  0.78048881390E+02 0.  0.
          5    1    5    5  501    0 -0.19150635927E+02 -0.19413682263E+02 -0.10878441578E+02  0.29733287854E+02  0.47000000000E+01 0. -1.
        -13    1    6    6    0    0 -0.12256792016E+02 -0.14317031357E+03  0.10989056053E+03  0.18089749289E+03  0.00000000000E+00 0.  1.
         14    1    6    6    0    0 -0.13597449098E+03 -0.30041602097E+03  0.30374494499E+03  0.44833005639E+03  0.00000000000E+00 0. -1.
         -5    1    3    3    0  503  0.12852203168E+03  0.17358198210E+03 -0.13028053834E+03  0.25227708141E+03  0.47000000000E+01 0.  1.
         13    1    4    4    0    0  0.53933676671E+02  0.19663061169E+03 -0.54100727807E+02  0.21094863754E+03  0.00000000000E+00 0. -1.
        -14    1    4    4    0    0 -0.15073789429E+02  0.92787423031E+02 -0.69470646256E+02  0.11688838989E+03  0.00000000000E+00 0.  1.
</event>
<event>
12    1  0.9873238E-001  0.2705675E+03  0.7818608E-02  0.1100975E+00
         21   -1    0    0  503  502  0.00000000000E+00  0.00000000000E+00  0.57935520988E+03  0.57935520988E+03  0.00000000000E+00 0. -1.
         21   -1    0    0  501  503 -0.00000000000E+00 -0.00000000000E+00 -0.26271204736E+03  0.26271204736E+03  0.00000000000E+00 0. -1.
          6    2    1    2  501    0  0.15167643538E+03  0.14382250117E+03 -0.14505601424E+03  0.30699838732E+03  0.17180253101E+03 0.  0.
         24    2    3    3    0    0  0.15779727437E+03  0.15668602560E+03 -0.94666136288E+02  0.25442306297E+03  0.79491680046E+02 0.  0.
         -6    2    1    2    0  502 -0.15167643538E+03 -0.14382250117E+03  0.46169917676E+03  0.53506886992E+03  0.17158645880E+03 0.  0.
        -24    2    5    5    0    0 -0.88136818931E+02 -0.22007927712E+02  0.29535972286E+03  0.31927503987E+03  0.80291577768E+02 0.  0.
          5    1    3    3  501    0 -0.61208389904E+01 -0.12863524429E+02 -0.50389877950E+02  0.52575324350E+02  0.47000000000E+01 0. -1.
        -11    1    4    4    0    0  0.11442574316E+03  0.77899866656E+02 -0.25008296289E+02  0.14066646653E+03  0.00000000000E+00 0.  1.
         12    1    4    4    0    0  0.43371531201E+02  0.78786158940E+02 -0.69657839999E+02  0.11375659644E+03  0.00000000000E+00 0. -1.
         -5    1    5    5    0  502 -0.63539616444E+02 -0.12181457346E+03  0.16633945390E+03  0.21579383005E+03  0.47000000000E+01 0.  1.
         11    1    6    6    0    0 -0.48975721901E+01  0.23891492525E+01  0.14930626095E+03  0.14940566859E+03  0.00000000000E+00 0. -1.
        -12    1    6    6    0    0 -0.83239246741E+02 -0.24397076964E+02  0.14605346191E+03  0.16986937127E+03  0.00000000000E+00 0.  1.
</event>
<event>
12    1  0.9873238E-001  0.3268255E+03  0.7818608E-02  0.1072706E+00
         21   -1    0    0  501  502  0.00000000000E+00  0.00000000000E+00  0.17097723555E+04  0.17097723555E+04  0.00000000000E+00 0. -1.
         21   -1    0    0  502  503 -0.00000000000E+00 -0.00000000000E+00 -0.62233210051E+02  0.62233210051E+02  0.00000000000E+00 0. -1.
         -6    2    1    2    0  503 -0.16073933874E+03 -0.22461053283E+03  0.84001793660E+03  0.90085379791E+03  0.17210579572E+03 0.  0.
        -24    2    3    3    0    0 -0.14403095268E+03 -0.15726508630E+03  0.44577951196E+03  0.50052817445E+03  0.79572969263E+02 0.  0.
          6    2    1    2  501    0  0.16073933874E+03  0.22461053283E+03  0.80752120886E+03  0.87115176765E+03  0.17472227405E+03 0.  0.
         24    2    5    5    0    0  0.94084388414E+02  0.49112938126E+02  0.41552029887E+03  0.43649202535E+03  0.81266331169E+02 0.  0.
          5    1    5    5  501    0  0.66654950324E+02  0.17549759471E+03  0.39200090999E+03  0.43465974231E+03  0.47000000000E+01 0. -1.
        -13    1    6    6    0    0  0.85595025729E+02  0.61667929417E+02  0.26524857556E+03  0.28545796325E+03  0.00000000000E+00 0.  1.
         14    1    6    6    0    0  0.84893626854E+01 -0.12554991291E+02  0.15027172332E+03  0.15103406210E+03  0.00000000000E+00 0. -1.
         -5    1    3    3    0  503 -0.16708386056E+02 -0.67345446528E+02  0.39423842464E+03  0.40032562346E+03  0.47000000000E+01 0.  1.
         11    1    4    4    0    0 -0.15083730419E+03 -0.13073152075E+03  0.40311363292E+03  0.44982577061E+03  0.00000000000E+00 0. -1.
        -12    1    4    4    0    0  0.68063515098E+01 -0.26533565550E+02  0.42665879033E+02  0.50702403842E+02  0.00000000000E+00 0.  1.
</event>
<event>
12    1  0.9873238E-001  0.2727571E+03  0.7818608E-02  0.1099721E+00
         21   -1    0    0  503  502  0.00000000000E+00  0.00000000000E+00  0.71878720090E+03  0.71878720090E+03  0.00000000000E+00 0. -1.
         21   -1    0    0  501  503 -0.00000000000E+00 -0.00000000000E+00 -0.11183394259E+03  0.11183394259E+03  0.00000000000E+00 0. -1.
          6    2    1    2  501    0  0.19490212263E+03  0.83059946312E+02  0.41695725782E+03  0.49821337443E+03  0.17168989347E+03 0.  0.
         24    2    3    3    0    0  0.20499422280E+03  0.10580947941E+03  0.39644819996E+03  0.46562344966E+03  0.80098341458E+02 0.  0.
         -6    2    1    2    0  502 -0.19490212263E+03 -0.83059946312E+02  0.18999600049E+03  0.33240776906E+03  0.17178664862E+03 0.  0.
        -24    2    5    5    0    0 -0.11326109055E+03 -0.11981255529E+02  0.17336284062E+03  0.22278938370E+03  0.81294586926E+02 0.  0.
          5    1    3    3  501    0 -0.10092100172E+02 -0.22749533098E+02  0.20509057866E+02  0.32589924772E+02  0.47000000000E+01 0. -1.
        -11    1    4    4    0    0  0.45031053777E+02  0.78291037723E+01  0.14420340350E+03  0.15127363370E+03  0.00000000000E+00 0.  1.
         12    1    4    4    0    0  0.15996316903E+03  0.97980375638E+02  0.25224479646E+03  0.31434981596E+03  0.00000000000E+00 0. -1.
         -5    1    5    5    0  502 -0.81641032079E+02 -0.71078690783E+02  0.16633159863E+02  0.10961838536E+03  0.47000000000E+01 0.  1.
         13    1    6    6    0    0 -0.30294606628E+02  0.24459688159E+02  0.96162747794E+02  0.10374639077E+03  0.00000000000E+00 0. -1.
        -14    1    6    6    0    0 -0.82966483924E+02 -0.36440943688E+02  0.77200092828E+02  0.11904299292E+03  0.00000000000E+00 0.  1.
</event>
<event>
12    1  0.9873238E-001  0.2015268E+03  0.7818608E-02  0.1150353E+00
         21   -1    0    0  503  502  0.00000000000E+00  0.00000000000E+00  0.13906206174E+03  0.13906206174E+03  0.00000000000E+00 0.  1.
         21   -1    0    0  501  503 -0.00000000000E+00 -0.00000000000E+00 -0.85445060301E+03  0.85445060301E+03  0.00000000000E+00 0.  1.
          6    2    1    2  501    0 -0.29270308591E+02 -0.82732059649E+02  0.52443398512E+02  0.19967456397E+03  0.17151756992E+03 0.  0.
         24    2    3    3    0    0  0.39169384907E+02 -0.32234791170E+02  0.63588342262E+02  0.11376609209E+03  0.79535677292E+02 0.  0.
         -6    2    1    2    0  502  0.29270308591E+02  0.82732059649E+02 -0.76783193978E+03  0.79383810078E+03  0.18141581475E+03 0.  0.
        -24    2    5    5    0    0  0.40804607927E+02  0.81044857931E+02 -0.26664601603E+03  0.29249459890E+03  0.78865122174E+02 0.  0.
          5    1    3    3  501    0 -0.68439693499E+02 -0.50497268479E+02 -0.11144943751E+02  0.85908471883E+02  0.47000000000E+01 0. -1.
        -11    1    4    4    0    0  0.46115256350E+01  0.14909254177E+02  0.51847311147E+02  0.54145135534E+02  0.00000000000E+00 0.  1.
         12    1    4    4    0    0  0.34557859272E+02 -0.47144045347E+02  0.11741031115E+02  0.59620956558E+02  0.00000000000E+00 0. -1.
         -5    1    5    5    0  502 -0.11534299336E+02  0.16872017183E+01 -0.50118592375E+03  0.50134350188E+03  0.47000000000E+01 0.  1.
         11    1    6    6    0    0  0.35329848644E+02  0.13340235050E+02 -0.36449107554E+02  0.52485212374E+02  0.00000000000E+00 0. -1.
        -12    1    6    6    0    0  0.54747592827E+01  0.67704622880E+02 -0.23019690847E+03  0.24000938652E+03  0.00000000000E+00 0.  1.
</event>
<event>
12    1  0.9873238E-001  0.1787448E+03  0.7818608E-02  0.1169202E+00
         21   -1    0    0  501  502  0.00000000000E+00  0.00000000000E+00  0.23652787329E+02  0.23652787329E+02  0.00000000000E+00 0. -1.
         21   -1    0    0  502  503 -0.00000000000E+00 -0.00000000000E+00 -0.15915670913E+04  0.15915670913E+04  0.00000000000E+00 0. -1.
         -6    2    1    2    0  503 -0.30568362659E+02  0.32947303590E+02 -0.11030058325E+04  0.11173949911E+04  0.17300216758E+03 0.  0.
        -24    2    3    3    0    0 -0.12437148981E+02 -0.24223598654E+02 -0.28068269122E+03  0.29287410497E+03  0.79063283547E+02 0.  0.
          6    2    1    2  501    0  0.30568362659E+02 -0.32947303590E+02 -0.46490847142E+03  0.49782488748E+03  0.17224918632E+03 0.  0.
         24    2    5    5    0    0  0.77977271500E+02 -0.56387748916E+02 -0.32804063442E+03  0.35101905000E+03  0.79647238067E+02 0.  0.
          5    1    5    5  501    0 -0.47408908841E+02  0.23440445325E+02 -0.13686783700E+03  0.14680583749E+03  0.47000000000E+01 0. -1.
        -11    1    6    6    0    0  0.49165145275E+02  0.44135960439E+01 -0.79901181665E+02  0.93919594183E+02  0.00000000000E+00 0.  1.
         12    1    6    6    0    0  0.28812126225E+02 -0.60801344959E+02 -0.24813945276E+03  0.25709945581E+03  0.00000000000E+00 0. -1.
         -5    1    3    3    0  503 -0.18131213678E+02  0.57170902244E+02 -0.82232314129E+03  0.82452088614E+03  0.47000000000E+01 0.  1.
         11    1    4    4    0    0 -0.39203668097E+02 -0.72627410609E+01 -0.22749539570E+03  0.23096283265E+03  0.00000000000E+00 0. -1.
        -12    1    4    4    0    0  0.26766519116E+02 -0.16960857593E+02 -0.53187295519E+02  0.61911272322E+02  0.00000000000E+00 0.  1.
</event>
<event>
12    1  0.9873238E-001  0.2316037E+03  0.7818608E-02  0.1125689E+00
         21   -1    0    0  503  502  0.00000000000E+00  0.00000000000E+00  0.20352922113E+04  0.20352922113E+04  0.00000000000E+00 0.  1.
         21   -1    0    0  501  503 -0.00000000000E+00 -0.00000000000E+00 -0.34626275528E+02  0.34626275528E+02  0.00000000000E+00 0.  1.
          6    2    1    2  501    0  0.15478034558E+03 -0.62835992358E+01  0.15112193177E+04  0.15288636635E+04  0.17217385497E+03 0.  0.
         24    2    3    3    0    0  0.39471059789E+02 -0.27994605395E+02  0.98715364745E+03  0.99180266517E+03  0.82816305564E+02 0.  0.
         -6    2    1    2    0  502 -0.15478034558E+03  0.62835992358E+01  0.48944661802E+03  0.54105482329E+03  0.17083878634E+03 0.  0.
        -24    2    5    5    0    0 -0.11124397033E+02 -0.78212608191E+01  0.23463767548E+03  0.24816292202E+03  0.79655965138E+02 0.  0.
          5    1    3    3  501    0  0.11530928579E+03  0.21711006160E+02  0.52406567029E+03  0.53706099836E+03  0.47000000000E+01 0. -1.
        -11    1    4    4    0    0 -0.25273432231E+02 -0.11347941073E+02  0.37105577675E+03  0.37208858032E+03  0.00000000000E+00 0.  1.
         12    1    4    4    0    0  0.64744492020E+02 -0.16646664322E+02  0.61609787070E+03  0.61971408485E+03  0.00000000000E+00 0. -1.
         -5    1    5    5    0  502 -0.14365594855E+03  0.14104860055E+02  0.25480894254E+03  0.29289190127E+03  0.47000000000E+01 0.  1.
         11    1    6    6    0    0 -0.47565161051E+01  0.35948444469E+02  0.94883405431E+02  0.10157645264E+03  0.00000000000E+00 0. -1.
        -12    1    6    6    0    0 -0.63678809274E+01 -0.43769705288E+02  0.13975427005E+03  0.14658646938E+03  0.00000000000E+00 0.  1.
</event>
<event>
12    1  0.9873238E-001  0.2118342E+03  0.7818608E-02  0.1140215E+00
         21   -1    0    0  501  502  0.00000000000E+00  0.00000000000E+00  0.42514133862E+02  0.42514133862E+02  0.00000000000E+00 0.  1.
         21   -1    0    0  502  503 -0.00000000000E+00 -0.00000000000E+00 -0.10551535023E+04  0.10551535023E+04  0.00000000000E+00 0.  1.
         -6    2    1    2    0  503 -0.95811263559E+02  0.77559913231E+02 -0.53092333792E+03  0.57162340637E+03  0.17227416986E+03 0.  0.
        -24    2    3    3    0    0 -0.14379276968E+02  0.32420885807E+02 -0.41060191306E+03  0.41941290898E+03  0.77816320694E+02 0.  0.
          6    2    1    2  501    0  0.95811263559E+02 -0.77559913231E+02 -0.48171603052E+03  0.52604422979E+03  0.17168826189E+03 0.  0.
         24    2    5    5    0    0  0.27277775818E+02 -0.72506520435E+02 -0.14326075437E+03  0.18065106298E+03  0.78165786990E+02 0.  0.
          5    1    5    5  501    0  0.68533487742E+02 -0.50533927957E+01 -0.33845527615E+03  0.34539316681E+03  0.47000000000E+01 0. -1.
        -13    1    6    6    0    0 -0.12141767711E+02  0.97111241036E+01 -0.39894334519E+02  0.42816893642E+02  0.00000000000E+00 0.  1.
         14    1    6    6    0    0  0.39419543528E+02 -0.82217644539E+02 -0.10336641985E+03  0.13783416934E+03  0.00000000000E+00 0. -1.
         -5    1    3    3    0  503 -0.81431986591E+02  0.45139027424E+02 -0.12032142486E+03  0.15221049739E+03  0.47000000000E+01 0.  1.
         13    1    4    4    0    0 -0.38368066741E+02  0.14376243612E+02 -0.11117106346E+03  0.11848118110E+03  0.00000000000E+00 0. -1.
        -14    1    4    4    0    0  0.23988789773E+02  0.18044642195E+02 -0.29943084961E+03  0.30093172788E+03  0.00000000000E+00 0.  1.
</event>
<event>
12    1  0.9873238E-001  0.2267955E+03  0.7818608E-02  0.1129111E+00
         21   -1    0    0  503  502  0.00000000000E+00  0.00000000000E+00  0.22780149534E+02  0.22780149534E+02  0.00000000000E+00 0.  1.
         21   -1    0    0  501  503 -0.00000000000E+00 -0.00000000000E+00 -0.22924008584E+04  0.22924008584E+04  0.00000000000E+00 0.  1.
          6    2    1    2  501    0 -0.71551200035E+02  0.12616458493E+03 -0.97484567477E+03  0.10008797475E+04  0.17435338448E+03 0.  0.
         24    2    3    3    0    0 -0.92128132946E+02  0.11345708119E+03 -0.95492916439E+03  0.96919934025E+03  0.78086810664E+02 0.  0.
         -6    2    1    2    0  502  0.71551200035E+02 -0.12616458493E+03 -0.12947750341E+04  0.13143012604E+04  0.17294027139E+03 0.  0.
        -24    2    5    5    0    0  0.79983128159E+02 -0.23993608797E+02 -0.85261062907E+03  0.86038336381E+03  0.79634501755E+02 0.  0.
          5    1    3    3  501    0  0.20576932912E+02  0.12707503737E+02 -0.19916510382E+02  0.31680407274E+02  0.47000000000E+01 0. -1.
        -13    1    4    4    0    0 -0.38387406019E-01  0.37522672743E+02 -0.38986915324E+03  0.39167066407E+03  0.00000000000E+00 0.  1.
         14    1    4    4    0    0 -0.92089745540E+02  0.75934408445E+02 -0.56506001115E+03  0.57752867619E+03  0.00000000000E+00 0. -1.
         -5    1    5    5    0  502 -0.84319281240E+01 -0.10217097613E+03 -0.44216440504E+03  0.45391789661E+03  0.47000000000E+01 0.  1.
         13    1    6    6    0    0  0.62005124893E+02 -0.15667251493E+02 -0.27133268912E+03  0.27876787201E+03  0.00000000000E+00 0. -1.
        -14    1    6    6    0    0  0.17978003265E+02 -0.83263573036E+01 -0.58127793995E+03  0.58161549180E+03  0.00000000000E+00 0.  1.
</event>
<event>
12    1  0.9873238E-001  0.1728121E+03  0.7818608E-02  0.1176372E+00
         21   -1    0    0  503  502  0.00000000000E+00  0.00000000000E+00  0.34032229048E+02  0.34032229048E+02  0.00000000000E+00 0.  1.
         21   -1    0    0  501  503 -0.00000000000E+00 -0.00000000000E+00 -0.12104660612E+04  0.12104660612E+04  0.00000000000E+00 0.  1.
          6    2    1    2  501    0 -0.54984074505E+01 -0.19406659023E+02 -0.92114812170E+03  0.93622114063E+03  0.16610030450E+03 0.  0.
         24    2    3    3    0    0  0.15640131468E+02 -0.36938666398E+02 -0.88995256635E+03  0.89439457271E+03  0.79479573228E+02 0.  0.
         -6    2    1    2    0  502  0.54984074505E+01  0.19406659023E+02 -0.25528571046E+03  0.30827714962E+03  0.17163087169E+03 0.  0.
        -24    2    5    5    0    0 -0.42964910969E+02  0.57356315835E+02 -0.16232870027E+03  0.19668877466E+03  0.84853618683E+02 0.  0.
          5    1    3    3  501    0 -0.21138538918E+02  0.17532007376E+02 -0.31195555353E+02  0.41826567921E+02  0.47000000000E+01 0. -1.
        -13    1    4    4    0    0 -0.31776436347E+02 -0.21700377276E+02 -0.44608055385E+03  0.44773709787E+03  0.00000000000E+00 0.  1.
         14    1    4    4    0    0  0.47416567815E+02 -0.15238289123E+02 -0.44387201250E+03  0.44665747485E+03  0.00000000000E+00 0. -1.
         -5    1    5    5    0  502  0.48463318419E+02 -0.37949656813E+02 -0.92957010186E+02  0.11158837496E+03  0.47000000000E+01 0.  1.
         11    1    6    6    0    0 -0.10910948735E+02  0.61552307108E+02 -0.14925619597E+03  0.16181825407E+03  0.00000000000E+00 0. -1.
        -12    1    6    6    0    0 -0.32053962233E+02 -0.41959912730E+01 -0.13072504298E+02  0.34870520590E+02  0.00000000000E+00 0.  1.
</event>
<event>
12    1  0.9873238E-001  0.4687069E+03  0.7818608E-02  0.1022294E+00
         21   -1    0    0  501  502  0.00000000000E+00  0.00000000000E+00  0.37941228976E+03  0.37941228976E+03  0.00000000000E+00 0. -1.
         21   -1    0    0  502  503 -0.00000000000E+00 -0.00000000000E+00 -0.58306410296E+03  0.58306410296E+03  0.00000000000E+00 0. -1.
         -6    2    1    2    0  503  0.33365131946E+03 -0.28105838608E+03 -0.14261466937E+03  0.48992359753E+03  0.17137435087E+03 0.  0.
        -24    2    3    3    0    0  0.25790692642E+03 -0.26150245402E+03 -0.69470812626E+02  0.38272396444E+03  0.82170085770E+02 0.  0.
          6    2    1    2  501    0 -0.33365131946E+03  0.28105838608E+03 -0.61037143835E+02  0.47255279518E+03  0.17106604557E+03 0.  0.
         24    2    5    5    0    0 -0.12965234059E+03  0.14328292858E+03 -0.79793664680E+02  0.22562860207E+03  0.84861711670E+02 0.  0.
          5    1    5    5  501    0 -0.20399897887E+03  0.13777545750E+03  0.18756520845E+02  0.24692419311E+03  0.47000000000E+01 0. -1.
        -11    1    6    6    0    0 -0.11265563553E+03  0.93828990671E+02 -0.22963012817E+02  0.14839970237E+03  0.00000000000E+00 0.  1.
         12    1    6    6    0    0 -0.16996705058E+02  0.49453937910E+02 -0.56830651862E+02  0.77228899699E+02  0.00000000000E+00 0. -1.
         -5    1    3    3    0  503  0.75744393043E+02 -0.19555932056E+02 -0.73143856743E+02  0.10719963309E+03  0.47000000000E+01 0.  1.
         13    1    4    4    0    0  0.36933149949E+02 -0.36580191730E+02 -0.40862276915E+02  0.66120296936E+02  0.00000000000E+00 0. -1.
        -14    1    4    4    0    0  0.22097377647E+03 -0.22492226229E+03 -0.28608535710E+02  0.31660366750E+03  0.00000000000E+00 0.  1.
</event>
<event>
12    1  0.9873238E-001  0.2819415E+03  0.7818608E-02  0.1094652E+00
         21   -1    0    0  501  502  0.00000000000E+00  0.00000000000E+00  0.43371346129E+03  0.43371346129E+03  0.00000000000E+00 0. -1.
         21   -1    0    0  502  503 -0.00000000000E+00 -0.00000000000E+00 -0.34079574349E+03  0.34079574349E+03  0.00000000000E+00 0. -1.
         -6    2    1    2    0  503 -0.19827785009E+03  0.10289293348E+03  0.30981622097E+03  0.41889990039E+03  0.17201736591E+03 0.  0.
        -24    2    3    3    0    0 -0.13897185262E+03  0.12069179126E+03  0.15944685510E+03  0.25621297139E+03  0.79637320464E+02 0.  0.
          6    2    1    2  501    0  0.19827785009E+03 -0.10289293348E+03 -0.21689850317E+03  0.35560930438E+03  0.17179043946E+03 0.  0.
         24    2    5    5    0    0  0.21325946580E+03 -0.81715888432E+02 -0.15290192447E+03  0.28639537420E+03  0.80537107473E+02 0.  0.
          5    1    5    5  501    0 -0.14981615711E+02 -0.21177045046E+02 -0.63996578700E+02  0.69213930184E+02  0.47000000000E+01 0. -1.
        -13    1    6    6    0    0  0.19252956906E+03 -0.55589155501E+02 -0.10025490743E+03  0.22407328185E+03  0.00000000000E+00 0.  1.
         14    1    6    6    0    0  0.20729896738E+02 -0.26126732931E+02 -0.52647017036E+02  0.62322092353E+02  0.00000000000E+00 0. -1.
         -5    1    3    3    0  503 -0.59305997471E+02 -0.17798857779E+02  0.15036936587E+03  0.16268692900E+03  0.47000000000E+01 0.  1.
         13    1    4    4    0    0 -0.12911147743E+03  0.10228398744E+03  0.98810430605E+02  0.19208146419E+03  0.00000000000E+00 0. -1.
        -14    1    4    4    0    0 -0.98603751939E+01  0.18407803816E+02  0.60636424491E+02  0.64131507197E+02  0.00000000000E+00 0.  1.
</event>
<event>
12    1  0.9873238E-001  0.1864993E+03  0.7818608E-02  0.1161740E+00
         21   -1    0    0  501  502  0.00000000000E+00  0.00000000000E+00  0.12792609563E+03  0.12792609563E+03  0.00000000000E+00 0. -1.
         21   -1    0    0  502  503 -0.00000000000E+00 -0.00000000000E+00 -0.34665264467E+03  0.34665264467E+03  0.00000000000E+00 0. -1.
         -6    2    1    2    0  503  0.52975093871E+02 -0.51474631080E+02  0.11337082322E+01  0.18650271313E+03  0.17124829487E+03 0.  0.
        -24    2    3    3    0    0  0.78123412127E+02  0.16809862043E+02  0.55856098709E+01  0.11344712238E+03  0.80331883790E+02 0.  0.
          6    2    1    2  501    0 -0.52975093871E+02  0.51474631080E+02 -0.21986025727E+03  0.28807602718E+03  0.17086037133E+03 0.  0.
         24    2    5    5    0    0 -0.77183789710E+02  0.83371623088E+02 -0.13283519750E+03  0.19216497421E+03  0.79837476708E+02 0.  0.
          5    1    5    5  501    0  0.24208695839E+02 -0.31896992008E+02 -0.87025059771E+02  0.95911052968E+02  0.47000000000E+01 0. -1.
        -11    1    6    6    0    0  0.40826029512E+00  0.35843970822E+02 -0.64334931165E+01  0.36419043843E+02  0.00000000000E+00 0.  1.
         12    1    6    6    0    0 -0.77592050006E+02  0.47527652265E+02 -0.12640170439E+03  0.15574593037E+03  0.00000000000E+00 0. -1.
         -5    1    3    3    0  503 -0.25148318256E+02 -0.68284493123E+02 -0.44519016387E+01  0.73055590754E+02  0.47000000000E+01 0.  1.
         11    1    4    4    0    0 -0.33179546265E+01  0.19570323956E+02  0.22727776173E+02  0.30175457121E+02  0.00000000000E+00 0. -1.
        -12    1    4    4    0    0  0.81441366754E+02 -0.27604619133E+01 -0.17142166303E+02  0.83271665254E+02  0.00000000000E+00 0.  1.
</event>
<event>
12    1  0.9873238E-001  0.2068041E+03  0.7818608E-02  0.1144343E+00
         21   -1    0    0  501  502  0.00000000000E+00  0.00000000000E+00  0.79319452800E+03  0.79319452800E+03  0.00000000000E+00 0.  1.
         21   -1    0    0  502  503 -0.00000000000E+00 -0.00000000000E+00 -0.63002313010E+02  0.63002313010E+02  0.00000000000E+00 0.  1.
         -6    2    1    2    0  503 -0.11270292897E+03  0.27443728543E+02  0.52934588940E+03  0.56791365796E+03  0.16989333075E+03 0.  0.
        -24    2    3    3    0    0 -0.69524299951E+02 -0.16874536279E+02  0.47045573411E+03  0.48236459022E+03  0.78921618580E+02 0.  0.
          6    2    1    2  501    0  0.11270292897E+03 -0.27443728543E+02  0.20084632558E+03  0.28828318305E+03  0.17120992580E+03 0.  0.
         24    2    5    5    0    0  0.14290200134E+03 -0.46574930008E+02  0.17135533670E+03  0.24170212180E+03  0.80418021466E+02 0.  0.
          5    1    5    5  501    0 -0.30199072368E+02  0.19131201465E+02  0.29490988884E+02  0.46581061245E+02  0.47000000000E+01 0. -1.
        -13    1    6    6    0    0  0.85727695334E+02  0.88333695515E+01  0.60835214246E+02  0.10549023394E+03  0.00000000000E+00 0.  1.
         14    1    6    6    0    0  0.57174306005E+02 -0.55408299560E+02  0.11052012245E+03  0.13621188786E+03  0.00000000000E+00 0. -1.
         -5    1    3    3    0  503 -0.43178629020E+02  0.44318264822E+02  0.58890155292E+02  0.85549067740E+02  0.47000000000E+01 0.  1.
         13    1    4    4    0    0 -0.26879338731E+02  0.10480700304E+02  0.42181906867E+02  0.51104375511E+02  0.00000000000E+00 0. -1.
        -14    1    4    4    0    0 -0.42644961220E+02 -0.27355236583E+02  0.42827382725E+03  0.43126021471E+03  0.00000000000E+00 0.  1.
</event>
<event>
12    1  0.1010934E+000  0.1768908E+03  0.7818608E-02  0.1172559E+00
         21   -1    0    0  503  502  0.00000000000E+00  0.00000000000E+00  0.51140346442E+03  0.51140346442E+03  0.00000000000E+00 0.  1.
         21   -1    0    0  501  503 -0.00000000000E+00 -0.00000000000E+00 -0.18892942090E+03  0.18892942090E+03  0.00000000000E+00 0.  1.
          6    2    1    2  501    0 -0.41484788115E+02 -0.92463220367E+01  0.45273978966E+03  0.48606960750E+03  0.17170866047E+03 0.  0.
         24    2    3    3    0    0 -0.82909833801E+02  0.61597605692E+01  0.21306096071E+03  0.24230453036E+03  0.80028302865E+02 0.  0.
         -6    2    1    2    0  502  0.41484788115E+02  0.92463220367E+01 -0.13026574614E+03  0.21426327782E+03  0.16472129640E+03 0.  0.
        -24    2    5    5    0    0  0.71494842039E+02  0.43294936016E+02 -0.58077665004E+02  0.12886350903E+03  0.79036857636E+02 0.  0.
          5    1    3    3  501    0  0.41425045685E+02 -0.15406082606E+02  0.23967882895E+03  0.24376507715E+03  0.47000000000E+01 0. -1.
        -13    1    4    4    0    0 -0.21995125694E+02 -0.18268664735E+01  0.16326715238E+01  0.22131168332E+02  0.00000000000E+00 0.  1.
         14    1    4    4    0    0 -0.60914708106E+02  0.79866270427E+01  0.21142828919E+03  0.22017336202E+03  0.00000000000E+00 0. -1.
         -5    1    5    5    0  502 -0.30010053924E+02 -0.34048613979E+02 -0.72188081138E+02  0.85399768787E+02  0.47000000000E+01 0.  1.
         11    1    6    6    0    0  0.35736945476E+01  0.34011827195E+01 -0.49366923249E+02  0.49612825436E+02  0.00000000000E+00 0. -1.
        -12    1    6    6    0    0  0.67921147492E+02  0.39893753296E+02 -0.87107417547E+01  0.79250683597E+02  0.00000000000E+00 0.  1.
</event>
<event>
12    1  0.9873238E-001  0.1932162E+03  0.7818608E-02  0.1155707E+00
         21   -1    0    0  503  502  0.00000000000E+00  0.00000000000E+00  0.22169849900E+04  0.22169849900E+04  0.00000000000E+00 0.  1.
         21   -1    0    0  501  503 -0.00000000000E+00 -0.00000000000E+00 -0.38368972983E+02  0.38368972983E+02  0.00000000000E+00 0.  1.
          6    2    1    2  501    0 -0.59422813299E+00 -0.86449907887E+02  0.19355617372E+04  0.19451816771E+04  0.17279635129E+03 0.  0.
         24    2    3    3    0    0  0.14827904478E+02 -0.79502978456E+02  0.19140187778E+04  0.19173915512E+04  0.79886722457E+02 0.  0.
         -6    2    1    2    0  502  0.59422813299E+00  0.86449907887E+02  0.24305427984E+03  0.31017228583E+03  0.17221360071E+03 0.  0.
        -24    2    5    5    0    0 -0.11121541286E+02  0.49450782213E+02  0.25237822603E+03  0.26998247958E+03  0.81404556163E+02 0.  0.
          5    1    3    3  501    0 -0.15422132611E+02 -0.69469294304E+01  0.21542959371E+02  0.27790125967E+02  0.47000000000E+01 0. -1.
        -11    1    4    4    0    0 -0.25314069207E+02 -0.27878381574E+02  0.11377980331E+04  0.11384209988E+04  0.00000000000E+00 0.  1.
         12    1    4    4    0    0  0.40141973685E+02 -0.51624596882E+02  0.77622074466E+03  0.77897055239E+03  0.00000000000E+00 0. -1.
         -5    1    5    5    0  502  0.11715769419E+02  0.36999125674E+02 -0.93239461929E+01  0.40189806249E+02  0.47000000000E+01 0.  1.
         11    1    6    6    0    0 -0.12407562018E+02  0.69324754858E+02  0.22728788679E+03  0.23794884474E+03  0.00000000000E+00 0. -1.
        -12    1    6    6    0    0  0.12860207319E+01 -0.19873972645E+02  0.25090339248E+02  0.32033634848E+02  0.00000000000E+00 0.  1.
</event>
<event>
12    1  0.9873238E-001  0.1846909E+03  0.7818608E-02  0.1163825E+00
         21   -1    0    0  501  502  0.00000000000E+00  0.00000000000E+00  0.26604343772E+03  0.26604343772E+03  0.00000000000E+00 0. -1.
         21   -1    0    0  502  503 -0.00000000000E+00 -0.00000000000E+00 -0.12758179544E+03  0.12758179544E+03  0.00000000000E+00 0. -1.
         -6    2    1    2    0  503  0.47621539981E+02 -0.48425969808E+02  0.84383400947E+02  0.20117995887E+03  0.16952855770E+03 0.  0.
        -24    2    3    3    0    0  0.76756771962E+02 -0.56851423703E+01  0.97167811366E+02  0.14769004186E+03  0.80292228839E+02 0.  0.
          6    2    1    2  501    0 -0.47621539981E+02  0.48425969808E+02  0.54078241335E+02  0.19244527429E+03  0.17174935746E+03 0.  0.
         24    2    5    5    0    0  0.27950862033E+01  0.57660414776E+02 -0.21861061029E+02  0.10070663023E+03  0.79569990852E+02 0.  0.
          5    1    5    5  501    0 -0.50416626185E+02 -0.92344449682E+01  0.75939302363E+02  0.91738644055E+02  0.47000000000E+01 0. -1.
        -13    1    6    6    0    0 -0.15141885208E+02  0.58720890835E+02  0.12513288906E+02  0.61919319339E+02  0.00000000000E+00 0.  1.
         14    1    6    6    0    0  0.17936971411E+02 -0.10604760592E+01 -0.34374349934E+02  0.38787310893E+02  0.00000000000E+00 0. -1.
         -5    1    3    3    0  503 -0.29135231981E+02 -0.42740827437E+02 -0.12784410419E+02  0.53489917016E+02  0.47000000000E+01 0.  1.
         13    1    4    4    0    0  0.40289611966E+02  0.32752476210E+02  0.23615333018E+02  0.57040875553E+02  0.00000000000E+00 0. -1.
        -14    1    4    4    0    0  0.36467159996E+02 -0.38437618581E+02  0.73552478348E+02  0.90649166303E+02  0.00000000000E+00 0.  1.
</event>
<event>
12    1  0.9873238E-001  0.1821305E+03  0.7818608E-02  0.1166109E+00
         21   -1    0    0  501  502  0.00000000000E+00  0.00000000000E+00  0.10620872816E+03  0.10620872816E+03  0.00000000000E+00 0. -1.
         21   -1    0    0  502  503 -0.00000000000E+00 -0.00000000000E+00 -0.34668885046E+03  0.34668885046E+03  0.00000000000E+00 0. -1.
         -6    2    1    2    0  503 -0.12835666563E+02  0.52727923249E+02 -0.46816222204E+02  0.18805130526E+03  0.17385783423E+03 0.  0.
        -24    2    3    3    0    0  0.36924064227E+02  0.17918924095E+02  0.25060112258E+02  0.93838807759E+02  0.80580632012E+02 0.  0.
          6    2    1    2  501    0  0.12835666563E+02 -0.52727923249E+02 -0.19366390009E+03  0.26484627336E+03  0.17231614575E+03 0.  0.
         24    2    5    5    0    0 -0.15756098619E+02 -0.71844973507E+02 -0.56309356627E+02  0.12317301809E+03  0.81184320413E+02 0.  0.
          5    1    5    5  501    0  0.28591765182E+02  0.19117050259E+02 -0.13735454347E+03  0.14167325527E+03  0.47000000000E+01 0. -1.
        -11    1    6    6    0    0  0.29499687348E+02 -0.16430716258E+02 -0.29014565296E+01  0.33891273809E+02  0.00000000000E+00 0.  1.
         12    1    6    6    0    0 -0.45255785967E+02 -0.55414257249E+02 -0.53407900097E+02  0.89281744286E+02  0.00000000000E+00 0. -1.
         -5    1    3    3    0  503 -0.49759730790E+02  0.34808999154E+02 -0.71876334463E+02  0.94212497505E+02  0.47000000000E+01 0.  1.
         13    1    4    4    0    0  0.81067547871E+01  0.47841338360E+02  0.17690845320E+02  0.51647644064E+02  0.00000000000E+00 0. -1.
        -14    1    4    4    0    0  0.28817309440E+02 -0.29922414264E+02  0.73692669380E+01  0.42191163695E+02  0.00000000000E+00 0.  1.
</event>
<event>
12    1  0.9873238E-001  0.2455964E+03  0.7818608E-02  0.1116717E+00
         21   -1    0    0  503  502  0.00000000000E+00  0.00000000000E+00  0.95068136083E+03  0.95068136083E+03  0.00000000000E+00 0. -1.
         21   -1    0    0  501  503 -0.00000000000E+00 -0.00000000000E+00 -0.13221179606E+03  0.13221179606E+03  0.00000000000E+00 0. -1.
          6    2    1    2  501    0  0.93742518739E+02 -0.15217473240E+03  0.80092928789E+03  0.83667118893E+03  0.16305258413E+03 0.  0.
         24    2    3    3    0    0  0.11190222627E+03 -0.87913041172E+02  0.58721044864E+03  0.61271321925E+03  0.10173773632E+03 0.  0.
         -6    2    1    2    0  502 -0.93742518739E+02  0.15217473240E+03  0.17540276885E+02  0.24622196795E+03  0.16844223695E+03 0.  0.
        -24    2    5    5    0    0 -0.16991614874E+02  0.73037132140E+02 -0.49278105796E+02  0.11722488549E+03  0.75433443650E+02 0.  0.
          5    1    3    3  501    0 -0.18159707530E+02 -0.64261691229E+02  0.21371883925E+03  0.22395796969E+03  0.47000000000E+01 0. -1.
        -13    1    4    4    0    0  0.37897313028E+02 -0.91471768326E+02  0.37874719111E+03  0.39147506371E+03  0.00000000000E+00 0.  1.
         14    1    4    4    0    0  0.74004913240E+02  0.35587271542E+01  0.20846325753E+03  0.22123815553E+03  0.00000000000E+00 0. -1.
         -5    1    5    5    0  502 -0.76750903865E+02  0.79137600261E+02  0.66818382681E+02  0.12899708246E+03  0.47000000000E+01 0.  1.
         11    1    6    6    0    0  0.90260347183E+01  0.29457619179E+02 -0.58048062577E+02  0.65717563857E+02  0.00000000000E+00 0. -1.
        -12    1    6    6    0    0 -0.26017649592E+02  0.43579512961E+02  0.87699567808E+01  0.51507321636E+02  0.00000000000E+00 0.  1.
</event>
<event>
12    1  0.9873238E-001  0.1737395E+03  0.7818608E-02  0.1174066E+00
         21   -1    0    0  503  502  0.00000000000E+00  0.00000000000E+00  0.49435599028E+03  0.49435599028E+03  0.00000000000E+00 0.  1.
         21   -1    0    0  501  503 -0.00000000000E+00 -0.00000000000E+00 -0.97212115650E+02  0.97212115650E+02  0.00000000000E+00 0.  1.
          6    2    1    2  501    0 -0.24215331283E+02  0.12636636432E+02  0.37925258452E+03  0.41715456742E+03  0.17157897132E+03 0.  0.
         24    2    3    3    0    0  0.45741550656E+02  0.21789278442E+02  0.27541174602E+03  0.29152516828E+03  0.81044628347E+02 0.  0.
         -6    2    1    2    0  502  0.24215331283E+02 -0.12636636432E+02  0.17891290105E+02  0.17441353851E+03  0.17132984943E+03 0.  0.
        -24    2    5    5    0    0 -0.11802731095E+02 -0.30921406392E+02 -0.46635402310E+02  0.98141540608E+02  0.79758782650E+02 0.  0.
          5    1    3    3  501    0 -0.69956881939E+02 -0.91526420103E+01  0.10384083850E+03  0.12562939914E+03  0.47000000000E+01 0. -1.
        -11    1    4    4    0    0  0.35087269967E+02  0.17682969576E+02  0.40826561492E+02  0.56662263016E+02  0.00000000000E+00 0.  1.
         12    1    4    4    0    0  0.10654280689E+02  0.41063088656E+01  0.23458518453E+03  0.23486290527E+03  0.00000000000E+00 0. -1.
         -5    1    5    5    0  502  0.36018062378E+02  0.18284769960E+02  0.64526692415E+02  0.76271997903E+02  0.47000000000E+01 0.  1.
         11    1    6    6    0    0  0.16218180211E+02  0.19881310650E+01 -0.52074575730E+02  0.54577866136E+02  0.00000000000E+00 0. -1.
        -12    1    6    6    0    0 -0.28020911307E+02 -0.32909537457E+02  0.54391734194E+01  0.43563674473E+02  0.00000000000E+00 0.  1.
</event>
<event>
12    1  0.9873238E-001  0.2204489E+03  0.7818608E-02  0.1133719E+00
         21   -1    0    0  501  502  0.00000000000E+00  0.00000000000E+00  0.16259268773E+03  0.16259268773E+03  0.00000000000E+00 0.  1.
         21   -1    0    0  502  503 -0.00000000000E+00 -0.00000000000E+00 -0.29786819739E+03  0.29786819739E+03  0.00000000000E+00 0.  1.
         -6    2    1    2    0  503  0.12603750537E+03 -0.51889895581E+02 -0.61646194018E+02  0.22890601498E+03  0.17326193014E+03 0.  0.
        -24    2    3    3    0    0  0.68839486108E+02 -0.72381618500E+02  0.17108717660E+02  0.12932715061E+03  0.80341957418E+02 0.  0.
          6    2    1    2  501    0 -0.12603750537E+03  0.51889895581E+02 -0.73629315649E+02  0.23155487014E+03  0.17209987722E+03 0.  0.
         24    2    5    5    0    0 -0.11261609619E+03 -0.24493826661E+02 -0.60733421513E+02  0.15279573522E+03  0.79847702194E+02 0.  0.
          5    1    5    5  501    0 -0.13421409174E+02  0.76383722242E+02 -0.12895894136E+02  0.78759134920E+02  0.47000000000E+01 0. -1.
        -11    1    6    6    0    0  0.65849542902E+01 -0.14881182591E+01  0.10169498435E+02  0.12206343326E+02  0.00000000000E+00 0.  1.
         12    1    6    6    0    0 -0.11920105048E+03 -0.23005708402E+02 -0.70902919948E+02  0.14058939189E+03  0.00000000000E+00 0. -1.
         -5    1    3    3    0  503  0.57198019259E+02  0.20491722918E+02 -0.78754911677E+02  0.99578864367E+02  0.47000000000E+01 0.  1.
         11    1    4    4    0    0  0.64422098076E+02 -0.12874994420E+02  0.22431016973E+02  0.69419901500E+02  0.00000000000E+00 0. -1.
        -12    1    4    4    0    0  0.44173880321E+01 -0.59506624080E+02 -0.53222993133E+01  0.59907249114E+02  0.00000000000E+00 0.  1.
</event>
<event>
12    1  0.9942973E-001  0.2135508E+03  0.7818608E-02  0.1139296E+00
         21   -1    0    0  501  502  0.00000000000E+00  0.00000000000E+00  0.62085531999E+03  0.62085531999E+03  0.00000000000E+00 0. -1.
         21   -1    0    0  502  503 -0.00000000000E+00 -0.00000000000E+00 -0.13796781378E+03  0.13796781378E+03  0.00000000000E+00 0. -1.
         -6    2    1    2    0  503 -0.25838005182E+02 -0.12428556385E+03  0.50190720946E+03  0.54442701808E+03  0.16845007335E+03 0.  0.
        -24    2    3    3    0    0 -0.31121808950E+02 -0.23911216087E+02  0.35694861264E+03  0.36796735396E+03  0.80295381326E+02 0.  0.
          6    2    1    2  501    0  0.25838005182E+02  0.12428556385E+03 -0.19019703249E+02  0.21439611569E+03  0.17172490040E+03 0.  0.
         24    2    5    5    0    0  0.56022299480E+02  0.12724945410E+02 -0.12769887124E+02  0.98559966712E+02  0.79060576435E+02 0.  0.
          5    1    5    5  501    0 -0.30184294298E+02  0.11156061844E+03 -0.62498161246E+01  0.11583614898E+03  0.47000000000E+01 0. -1.
        -11    1    6    6    0    0 -0.50192083393E+01 -0.25305099876E+02 -0.26890400411E+01  0.25937838546E+02  0.00000000000E+00 0.  1.
         12    1    6    6    0    0  0.61041507819E+02  0.38030045287E+02 -0.10080847083E+02  0.72622128166E+02  0.00000000000E+00 0. -1.
         -5    1    3    3    0  503  0.52838037679E+01 -0.10037434776E+03  0.14495859682E+03  0.17645966412E+03  0.47000000000E+01 0.  1.
         11    1    4    4    0    0 -0.33253721805E+02 -0.49771017030E+02  0.19586768437E+03  0.20480994588E+03  0.00000000000E+00 0. -1.
        -12    1    4    4    0    0  0.21319128548E+01  0.25859800944E+02  0.16108092827E+03  0.16315740808E+03  0.00000000000E+00 0.  1.
</event>
<event>
12    1  0.9873238E-001  0.1937514E+03  0.7818608E-02  0.1155450E+00
         21   -1    0    0  501  502  0.00000000000E+00  0.00000000000E+00  0.12111893240E+03  0.12111893240E+03  0.00000000000E+00 0.  1.
         21   -1    0    0  502  503 -0.00000000000E+00 -0.00000000000E+00 -0.36823656192E+03  0.36823656192E+03  0.00000000000E+00 0.  1.
         -6    2    1    2    0  503 -0.34768846235E+02  0.81154685428E+02 -0.22327872081E+03  0.29562304512E+03  0.17246635036E+03 0.  0.
        -24    2    3    3    0    0 -0.62963753278E+02  0.63727649427E+02 -0.68718041315E+02  0.13747833919E+03  0.78437727000E+02 0.  0.
          6    2    1    2  501    0  0.34768846235E+02 -0.81154685428E+02 -0.23838908705E+02  0.19373244919E+03  0.17078938101E+03 0.  0.
         24    2    5    5    0    0 -0.45646526783E+02 -0.35741351571E+02  0.32593365737E+02  0.85401037734E+02  0.53572008890E+02 0.  0.
          5    1    5    5  501    0  0.80415373018E+02 -0.45413333857E+02 -0.56432274442E+02  0.10833141146E+03  0.47000000000E+01 0. -1.
        -11    1    6    6    0    0 -0.16348103776E+02 -0.15518727714E+02 -0.14173080839E+02  0.26626446015E+02  0.00000000000E+00 0.  1.
         12    1    6    6    0    0 -0.29298423008E+02 -0.20222623857E+02  0.46766446576E+02  0.58774591719E+02  0.00000000000E+00 0. -1.
         -5    1    3    3    0  503  0.28194907043E+02  0.17427036001E+02 -0.15456067950E+03  0.15814470593E+03  0.47000000000E+01 0.  1.
         11    1    4    4    0    0 -0.77781219593E+02  0.42066555344E+02 -0.35851712696E+02  0.95419382220E+02  0.00000000000E+00 0. -1.
        -12    1    4    4    0    0  0.14817466315E+02  0.21661094083E+02 -0.32866328619E+02  0.42058956974E+02  0.00000000000E+00 0.  1.
</event>
<event>
12    1  0.9873238E-001  0.2510268E+03  0.7818608E-02  0.1112846E+00
         21   -1    0    0  501  502  0.00000000000E+00  0.00000000000E+00  0.45137944030E+03  0.45137944030E+03  0.00000000000E+00 0.  1.
         21   -1    0    0  502  503 -0.00000000000E+00 -0.00000000000E+00 -0.25641677844E+03  0.25641677844E+03  0.00000000000E+00 0. -1.
         -6    2    1    2    0  503  0.17131535471E+03  0.64060042360E+02  0.33689789456E+03  0.41942133579E+03  0.17018056813E+03 0.  0.
        -24    2    3    3    0    0  0.16897745378E+03  0.86223995527E+02  0.22171519397E+03  0.30200817164E+03  0.77867523450E+02 0.  0.
          6    2    1    2  501    0 -0.17131535471E+03 -0.64060042360E+02 -0.14193523271E+03  0.28837488295E+03  0.17193552003E+03 0.  0.
         24    2    5    5    0    0 -0.49517988120E+02 -0.12788495706E+02 -0.45600593702E+00  0.94720986500E+02  0.79726285328E+02 0.  0.
          5    1    5    5  501    0 -0.12179736659E+03 -0.51271546654E+02 -0.14147922677E+03  0.19365389645E+03  0.47000000000E+01 0. -1.
        -13    1    6    6    0    0 -0.55884948719E+02 -0.77477542725E+01 -0.30126621394E+02  0.63959115896E+02  0.00000000000E+00 0.  1.
         14    1    6    6    0    0  0.63669605991E+01 -0.50407414335E+01  0.29670615457E+02  0.30761870604E+02  0.00000000000E+00 0. -1.
         -5    1    3    3    0  503  0.23379009282E+01 -0.22163953167E+02  0.11518270059E+03  0.11741316415E+03  0.47000000000E+01 0.  1.
         13    1    4    4    0    0  0.80963053692E+01  0.18027028582E+01  0.54366016521E+02  0.54995123880E+02  0.00000000000E+00 0. -1.
        -14    1    4    4    0    0  0.16088114841E+03  0.84421292669E+02  0.16734917745E+03  0.24701304776E+03  0.00000000000E+00 0.  1.
</event>
<event>
12    1  0.9873238E-001  0.2196193E+03  0.7818608E-02  0.1134637E+00
         21   -1    0    0  501  502  0.00000000000E+00  0.00000000000E+00  0.12491870688E+04  0.12491870688E+04  0.00000000000E+00 0. -1.
         21   -1    0    0  502  503 -0.00000000000E+00 -0.00000000000E+00 -0.50052261620E+02  0.50052261620E+02  0.00000000000E+00 0. -1.
         -6    2    1    2    0  503  0.33366567923E+02  0.13207252910E+03  0.28048023960E+03  0.35469771110E+03  0.16907046061E+03 0.  0.
        -24    2    3    3    0    0  0.26524752320E+02  0.16344301762E+03  0.22113096901E+03  0.28705642259E+03  0.78008344411E+02 0.  0.
          6    2    1    2  501    0 -0.33366567923E+02 -0.13207252910E+03  0.91865456756E+03  0.94454161930E+03  0.17226774309E+03 0.  0.
         24    2    5    5    0    0 -0.67991026532E+02 -0.83174891503E+02  0.80443481128E+03  0.81547545480E+03  0.79649290740E+02 0.  0.
          5    1    5    5  501    0  0.34624458609E+02 -0.48897637593E+02  0.11421975628E+03  0.12906616451E+03  0.47000000000E+01 0. -1.
        -11    1    6    6    0    0 -0.24825699837E+01 -0.15949446482E+02  0.21247788598E+02  0.26683637629E+02  0.00000000000E+00 0.  1.
         12    1    6    6    0    0 -0.65508456549E+02 -0.67225445021E+02  0.78318702268E+03  0.78879181717E+03  0.00000000000E+00 0. -1.
         -5    1    3    3    0  503  0.68418156023E+01 -0.31370488527E+02  0.59349270593E+02  0.67641288509E+02  0.47000000000E+01 0.  1.
         13    1    4    4    0    0  0.31363329917E+01  0.34427950597E+02  0.59559087407E+01  0.35079812085E+02  0.00000000000E+00 0. -1.
        -14    1    4    4    0    0  0.23388419329E+02  0.12901506703E+03  0.21517506027E+03  0.25197661050E+03  0.00000000000E+00 0.  1.
</event>
<event>
12    1  0.9873238E-001  0.2060107E+03  0.7818608E-02  0.1146149E+00
         21   -1    0    0  501  502  0.00000000000E+00  0.00000000000E+00  0.11899147342E+03  0.11899147342E+03  0.00000000000E+00 0.  1.
         21   -1    0    0  502  503 -0.00000000000E+00 -0.00000000000E+00 -0.35054290306E+03  0.35054290306E+03  0.00000000000E+00 0.  1.
         -6    2    1    2    0  503  0.17303006877E+00  0.10152979399E+03 -0.14674840219E+03  0.25293376098E+03  0.17925419073E+03 0.  0.
        -24    2    3    3    0    0  0.29016124862E-01  0.13844719673E+03 -0.14454974436E+03  0.21565321027E+03  0.80274848996E+02 0.  0.
          6    2    1    2  501    0 -0.17303006877E+00 -0.10152979399E+03 -0.84803027453E+02  0.21660061550E+03  0.17151076981E+03 0.  0.
         24    2    5    5    0    0  0.65305707581E+02 -0.49780473784E+02 -0.36988607202E+02  0.12030022085E+03  0.79756222705E+02 0.  0.
          5    1    5    5  501    0 -0.65478737650E+02 -0.51749320202E+02 -0.47814420250E+02  0.96300394649E+02  0.47000000000E+01 0. -1.
        -11    1    6    6    0    0  0.58619276202E+02 -0.58128746607E+02 -0.79352876180E+00  0.82557860997E+02  0.00000000000E+00 0.  1.
         12    1    6    6    0    0  0.66864313792E+01  0.83482728230E+01 -0.36195078440E+02  0.37742359850E+02  0.00000000000E+00 0. -1.
         -5    1    3    3    0  503  0.14401394390E+00 -0.36917402744E+02 -0.21986578307E+01  0.37280550715E+02  0.47000000000E+01 0.  1.
         13    1    4    4    0    0 -0.14252820235E+02  0.52961284661E+02 -0.10219740752E+02  0.55789637556E+02  0.00000000000E+00 0. -1.
        -14    1    4    4    0    0  0.14281836360E+02  0.85485912069E+02 -0.13433000360E+03  0.15986357271E+03  0.00000000000E+00 0.  1.
</event>
<event>
12    1  0.9873238E-001  0.2081015E+03  0.7818608E-02  0.1143173E+00
         21   -1    0    0  503  502  0.00000000000E+00  0.00000000000E+00  0.19493478982E+03  0.19493478982E+03  0.00000000000E+00 0.  1.
         21   -1    0    0  501  503 -0.00000000000E+00 -0.00000000000E+00 -0.44615357431E+03  0.44615357431E+03  0.00000000000E+00 0.  1.
          6    2    1    2  501    0  0.15689013522E+02 -0.11606815027E+03  0.10170106156E+03  0.23162329646E+03  0.17201245563E+03 0.  0.
         24    2    3    3    0    0  0.44484140959E+02 -0.61066679206E+01  0.22845734282E+02  0.93200250684E+02  0.78410643172E+02 0.  0.
         -6    2    1    2    0  502 -0.15689013522E+02  0.11606815027E+03 -0.35291984604E+03  0.40946506766E+03  0.17143880324E+03 0.  0.
        -24    2    5    5    0    0 -0.70738219781E+02  0.80680038749E+02 -0.29030567370E+03  0.31877130754E+03  0.76319053592E+02 0.  0.
          5    1    3    3  501    0 -0.28795127437E+02 -0.10996148234E+03  0.78855327276E+02  0.13842304578E+03  0.47000000000E+01 0. -1.
        -13    1    4    4    0    0  0.60501585635E+02  0.50529744195E+01 -0.30285064533E+01  0.60787714764E+02  0.00000000000E+00 0.  1.
         14    1    4    4    0    0 -0.16017444677E+02 -0.11159642340E+02  0.25874240735E+02  0.32412535920E+02  0.00000000000E+00 0. -1.
         -5    1    5    5    0  502  0.55049206259E+02  0.35388111516E+02 -0.62614172344E+02  0.90693760120E+02  0.47000000000E+01 0.  1.
         11    1    6    6    0    0 -0.37297421983E+02  0.99364477271E+01 -0.36300122952E+02  0.52986126546E+02  0.00000000000E+00 0. -1.
        -12    1    6    6    0    0 -0.33440797798E+02  0.70743591022E+02 -0.25400555074E+03  0.26578518100E+03  0.00000000000E+00 0.  1.
</event>
<event>
12    1  0.9873238E-001  0.2236496E+03  0.7818608E-02  0.1133005E+00
         21   -1    0    0  503  502  0.00000000000E+00  0.00000000000E+00  0.13468390482E+03  0.13468390482E+03  0.00000000000E+00 0. -1.
         21   -1    0    0  501  503 -0.00000000000E+00 -0.00000000000E+00 -0.39051247693E+03  0.39051247693E+03  0.00000000000E+00 0.  1.
          6    2    1    2  501    0  0.12755501445E+03 -0.72173145282E+01 -0.20917932474E+03  0.30622726792E+03  0.18356682266E+03 0.  0.
         24    2    3    3    0    0  0.25586174373E+02 -0.25157046824E+01 -0.18133432292E+03  0.20031606168E+03  0.81138195747E+02 0.  0.
         -6    2    1    2    0  502 -0.12755501445E+03  0.72173145282E+01 -0.46649247371E+02  0.21896911383E+03  0.17160696137E+03 0.  0.
        -24    2    5    5    0    0 -0.56822446288E+02  0.37492544449E+02 -0.81813603537E+02  0.13424421967E+03  0.81814201089E+02 0.  0.
          5    1    3    3  501    0  0.10196884007E+03 -0.47016098458E+01 -0.27845001821E+02  0.10591120624E+03  0.47000000000E+01 0. -1.
        -13    1    4    4    0    0  0.20830416833E+02  0.30539859941E+02 -0.37508079621E+02  0.52663510589E+02  0.00000000000E+00 0.  1.
         14    1    4    4    0    0  0.47557575399E+01 -0.33055564623E+02 -0.14382624330E+03  0.14765255109E+03  0.00000000000E+00 0. -1.
         -5    1    5    5    0  502 -0.70732568159E+02 -0.30275229921E+02  0.35164356166E+02  0.84724894156E+02  0.47000000000E+01 0.  1.
         11    1    6    6    0    0 -0.30673188602E+02 -0.24428022615E+02 -0.30818457179E+02  0.49873340481E+02  0.00000000000E+00 0. -1.
        -12    1    6    6    0    0 -0.26149257685E+02  0.61920567064E+02 -0.50995146358E+02  0.84370879189E+02  0.00000000000E+00 0.  1.
</event>
<event>
12    1  0.9873238E-001  0.2001535E+03  0.7818608E-02  0.1149747E+00
         21   -1    0    0  503  502  0.00000000000E+00  0.00000000000E+00  0.28680293236E+04  0.28680293236E+04  0.00000000000E+00 0. -1.
         21   -1    0    0  501  503 -0.00000000000E+00 -0.00000000000E+00 -0.14136331294E+02  0.14136331294E+02  0.00000000000E+00 0. -1.
          6    2    1    2  501    0  0.10050492507E+03 -0.43189984021E+01  0.12521423045E+04  0.12680385493E+04  0.17303617572E+03 0.  0.
         24    2    3    3    0    0  0.49196553654E+02  0.65378895855E+02  0.74018694136E+03  0.74879801806E+03  0.78275556731E+02 0.  0.
         -6    2    1    2    0  502 -0.10050492507E+03  0.43189984021E+01  0.16017506878E+04  0.16141271056E+04  0.17228219114E+03 0.  0.
        -24    2    5    5    0    0 -0.11043766051E+02 -0.42549824455E+02  0.10285138834E+04  0.10320424816E+04  0.73064513919E+02 0.  0.
          5    1    3    3  501    0  0.51308371415E+02 -0.69697894258E+02  0.51195536316E+03  0.51924053126E+03  0.47000000000E+01 0. -1.
        -13    1    4    4    0    0  0.49122664980E+02  0.70222409085E+02  0.42399889901E+03  0.43257287168E+03  0.00000000000E+00 0.  1.
         14    1    4    4    0    0  0.73888674648E-01 -0.48435132292E+01  0.31618804234E+03  0.31622514638E+03  0.00000000000E+00 0. -1.
         -5    1    5    5    0  502 -0.89461159018E+02  0.46868822857E+02  0.57323680442E+03  0.58208462398E+03  0.47000000000E+01 0.  1.
         13    1    6    6    0    0  0.15969479187E+02  0.91965030374E+01  0.99203968143E+02  0.10090107645E+03  0.00000000000E+00 0. -1.
        -14    1    6    6    0    0 -0.27013245238E+02 -0.51746327492E+02  0.92930991525E+03  0.93114140516E+03  0.00000000000E+00 0.  1.
</event>
<event>
12    1  0.9873238E-001  0.2004161E+03  0.7818608E-02  0.1149513E+00
         21   -1    0    0  503  502  0.00000000000E+00  0.00000000000E+00  0.60433038766E+03  0.60433038766E+03  0.00000000000E+00 0. -1.
         21   -1    0    0  501  503 -0.00000000000E+00 -0.00000000000E+00 -0.85056732480E+02  0.85056732480E+02  0.00000000000E+00 0. -1.
          6    2    1    2  501    0 -0.87786017937E+02 -0.55122030880E+02  0.42193588595E+03  0.46711507380E+03  0.17152777349E+03 0.  0.
         24    2    3    3    0    0 -0.35567838687E+01 -0.52971624717E+02  0.12293295875E+03  0.15643190947E+03  0.80868944703E+02 0.  0.
         -6    2    1    2    0  502  0.87786017937E+02  0.55122030880E+02  0.97337769225E+02  0.22227204634E+03  0.17083734379E+03 0.  0.
        -24    2    5    5    0    0  0.10094717479E+03  0.47931243423E+02  0.14567564294E+02  0.13802289027E+03  0.79689196981E+02 0.  0.
          5    1    3    3  501    0 -0.84229234069E+02 -0.21504061626E+01  0.29900292720E+03  0.31068316432E+03  0.47000000000E+01 0. -1.
        -13    1    4    4    0    0  0.28806625108E+02 -0.56989863090E+02  0.75731931924E+02  0.99060545416E+02  0.00000000000E+00 0.  1.
         14    1    4    4    0    0 -0.32363408977E+02  0.40182383728E+01  0.47201026828E+02  0.57371364058E+02  0.00000000000E+00 0. -1.
         -5    1    5    5    0  502 -0.13161156854E+02  0.71907874566E+01  0.82770204932E+02  0.84249156069E+02  0.47000000000E+01 0.  1.
         13    1    6    6    0    0  0.51867605835E+02 -0.98866712837E+00 -0.25681532186E+02  0.57885810811E+02  0.00000000000E+00 0. -1.
        -14    1    6    6    0    0  0.49079568955E+02  0.48919910552E+02  0.40249096480E+02  0.80137079462E+02  0.00000000000E+00 0.  1.
</event>
<event>
12    1  0.9873238E-001  0.2648190E+03  0.7818608E-02  0.1104630E+00
         21   -1    0    0  503  502  0.00000000000E+00  0.00000000000E+00  0.89121563761E+02  0.89121563761E+02  0.00000000000E+00 0.  1.
         21   -1    0    0  501  503 -0.00000000000E+00 -0.00000000000E+00 -0.81577870985E+03  0.81577870985E+03  0.00000000000E+00 0.  1.
          6    2    1    2  501    0 -0.12801629736E+03  0.15171520355E+03 -0.45666465806E+03  0.52671378279E+03  0.17169485629E+03 0.  0.
         24    2    3    3    0    0 -0.11324544334E+03  0.17705941030E+03 -0.43537970679E+03  0.49016729055E+03  0.80832656947E+02 0.  0.
         -6    2    1    2    0  502  0.12801629736E+03 -0.15171520355E+03 -0.26999248803E+03  0.37818649082E+03  0.17528092558E+03 0.  0.
        -24    2    5    5    0    0  0.93800088620E+02 -0.85844589940E+02 -0.26333492926E+03  0.30351320399E+03  0.81284868081E+02 0.  0.
          5    1    3    3  501    0 -0.14770854014E+02 -0.25344206750E+02 -0.21284951274E+02  0.36546492237E+02  0.47000000000E+01 0. -1.
        -11    1    4    4    0    0 -0.64758999917E+02  0.16008439175E+03 -0.31375198250E+03  0.35813551496E+03  0.00000000000E+00 0.  1.
         12    1    4    4    0    0 -0.48486443425E+02  0.16975018556E+02 -0.12162772429E+03  0.13203177559E+03  0.00000000000E+00 0. -1.
         -5    1    5    5    0  502  0.34216208737E+02 -0.65870613612E+02 -0.66575587657E+01  0.74673286835E+02  0.47000000000E+01 0.  1.
         13    1    6    6    0    0  0.34940297914E+02 -0.48575244103E+02 -0.46555271856E+02  0.75814062650E+02  0.00000000000E+00 0. -1.
        -14    1    6    6    0    0  0.58859790706E+02 -0.37269345837E+02 -0.21677965740E+03  0.22769914134E+03  0.00000000000E+00 0.  1.
</event>
<event>
12    1  0.9873238E-001  0.3515554E+03  0.7818608E-02  0.1062150E+00
         21   -1    0    0  503  502  0.00000000000E+00  0.00000000000E+00  0.21931163461E+03  0.21931163461E+03  0.00000000000E+00 0. -1.
         21   -1    0    0  501  503 -0.00000000000E+00 -0.00000000000E+00 -0.61531628406E+03  0.61531628406E+03  0.00000000000E+00 0. -1.
          6    2    1    2  501    0 -0.29499106516E+03  0.82571329185E+02 -0.32172742770E+03  0.47531144846E+03  0.16904047556E+03 0.  0.
         24    2    3    3    0    0 -0.19799497189E+03 -0.53719308846E+01 -0.15808195594E+03  0.26568275404E+03  0.79790691574E+02 0.  0.
         -6    2    1    2    0  502  0.29499106516E+03 -0.82571329185E+02 -0.74277221761E+02  0.35931647021E+03  0.17249193361E+03 0.  0.
        -24    2    5    5    0    0  0.87217352947E+02 -0.78741126733E+02 -0.16043363345E+02  0.14345109965E+03  0.80708096190E+02 0.  0.
          5    1    3    3  501    0 -0.96996093272E+02  0.87943260070E+02 -0.16364547175E+03  0.20962869443E+03  0.47000000000E+01 0. -1.
        -11    1    4    4    0    0 -0.69759644456E+02  0.36274580015E+02 -0.61746739913E+02  0.99974561963E+02  0.00000000000E+00 0.  1.
         12    1    4    4    0    0 -0.12823532743E+03 -0.41646510899E+02 -0.96335216032E+02  0.16570819207E+03  0.00000000000E+00 0. -1.
         -5    1    5    5    0  502  0.20777371221E+03 -0.38302024521E+01 -0.58233858416E+02  0.21586537055E+03  0.47000000000E+01 0.  1.
         13    1    6    6    0    0  0.30840286619E+02 -0.18496609595E+02  0.31859303455E+02  0.48044386372E+02  0.00000000000E+00 0. -1.
        -14    1    6    6    0    0  0.56377066328E+02 -0.60244517138E+02 -0.47902666800E+02  0.95406713283E+02  0.00000000000E+00 0.  1.
</event>
<event>
12    1  0.9873238E-001  0.2003822E+03  0.7818608E-02  0.1149678E+00
         21   -1    0    0  503  502  0.00000000000E+00  0.00000000000E+00  0.30245306004E+02  0.30245306004E+02  0.00000000000E+00 0.  1.
         21   -1    0    0  501  503 -0.00000000000E+00 -0.00000000000E+00 -0.13777451092E+04  0.13777451092E+04  0.00000000000E+00 0.  1.
          6    2    1    2  501    0  0.91409918359E+02  0.42639536363E+02 -0.82060470622E+03  0.84471598820E+03  0.17314477646E+03 0.  0.
         24    2    3    3    0    0  0.10453562656E+03  0.37144451830E+02 -0.81831683484E+03  0.82955668329E+03  0.78831726370E+02 0.  0.
         -6    2    1    2    0  502 -0.91409918359E+02 -0.42639536363E+02 -0.52689509700E+03  0.56327442702E+03  0.17171410444E+03 0.  0.
        -24    2    5    5    0    0 -0.52061636185E+02 -0.99167406933E+02 -0.28770294200E+03  0.31431928152E+03  0.58983381887E+02 0.  0.
          5    1    3    3  501    0 -0.13125708201E+02  0.54950845330E+01 -0.22878713728E+01  0.15159304906E+02  0.47000000000E+01 0. -1.
        -13    1    4    4    0    0  0.28963710723E+02 -0.62671122201E+01 -0.67758961352E+02  0.73955730528E+02  0.00000000000E+00 0.  1.
         14    1    4    4    0    0  0.75571915837E+02  0.43411564050E+02 -0.75055787349E+03  0.75560095276E+03  0.00000000000E+00 0. -1.
         -5    1    5    5    0  502 -0.39348282173E+02  0.56527870571E+02 -0.23919215500E+03  0.24895514551E+03  0.47000000000E+01 0.  1.
         11    1    6    6    0    0 -0.42614175489E+02 -0.44000526555E+02 -0.90151776309E+02  0.10899246332E+03  0.00000000000E+00 0. -1.
        -12    1    6    6    0    0 -0.94474606965E+01 -0.55166880378E+02 -0.19755116569E+03  0.20532681819E+03  0.00000000000E+00 0.  1.
</event>
<event>
12    1  0.9873238E-001  0.2246187E+03  0.7818608E-02  0.1130728E+00
         21   -1    0    0  503  502  0.00000000000E+00  0.00000000000E+00  0.19278795734E+03  0.19278795734E+03  0.00000000000E+00 0.  1.
         21   -1    0    0  501  503 -0.00000000000E+00 -0.00000000000E+00 -0.34056418762E+03  0.34056418762E+03  0.00000000000E+00 0. -1.
          6    2    1    2  501    0 -0.34906893334E+02 -0.14101800988E+03  0.55857457895E+02  0.23016861326E+03  0.16956699152E+03 0.  0.
         24    2    3    3    0    0 -0.43866398689E+02 -0.10430718385E+02  0.29125634432E+02  0.96489917041E+02  0.80180675287E+02 0.  0.
         -6    2    1    2    0  502  0.34906893334E+02  0.14101800988E+03 -0.20363368818E+03  0.30318353170E+03  0.17131551190E+03 0.  0.
        -24    2    5    5    0    0  0.72554666357E+01  0.12450882121E+03 -0.70464504521E+02  0.16609496111E+03  0.84066648286E+02 0.  0.
          5    1    3    3  501    0  0.89595053549E+01 -0.13058729150E+03  0.26731823463E+02  0.13367869622E+03  0.47000000000E+01 0. -1.
        -13    1    4    4    0    0 -0.80414656759E+01  0.11340269308E+02 -0.24652852718E+02  0.28302473837E+02  0.00000000000E+00 0.  1.
         14    1    4    4    0    0 -0.35824933013E+02 -0.21770987693E+02  0.53778487150E+02  0.68187443203E+02  0.00000000000E+00 0. -1.
         -5    1    5    5    0  502  0.27651426698E+02  0.16509188671E+02 -0.13316918366E+03  0.13708857059E+03  0.47000000000E+01 0.  1.
         13    1    6    6    0    0 -0.80471632368E+01  0.20243510142E+02 -0.55542108379E+02  0.59661397421E+02  0.00000000000E+00 0. -1.
        -14    1    6    6    0    0  0.15302629872E+02  0.10426531107E+03 -0.14922396142E+02  0.10643356369E+03  0.00000000000E+00 0.  1.
</event>
<event>
12    1  0.9873238E-001  0.1977496E+03  0.7818608E-02  0.1151663E+00
         21   -1    0    0  501  502  0.00000000000E+00  0.00000000000E+00  0.18435747611E+03  0.18435747611E+03  0.00000000000E+00 0.  1.
         21   -1    0    0  502  503 -0.00000000000E+00 -0.00000000000E+00 -0.24845401413E+03  0.24845401413E+03  0.00000000000E+00 0.  1.
         -6    2    1    2    0  503  0.77505649968E+02  0.58271260143E+02  0.50773509329E+02  0.20416374893E+03  0.17234332477E+03 0.  0.
        -24    2    3    3    0    0  0.82511288361E+02  0.10254082514E+03  0.34931852375E+02  0.15664639530E+03  0.77428194622E+02 0.  0.
          6    2    1    2  501    0 -0.77505649968E+02 -0.58271260143E+02 -0.11487004735E+03  0.22864774132E+03  0.17228463743E+03 0.  0.
         24    2    5    5    0    0 -0.89405371816E+01 -0.41714660622E+02  0.48235443712E+01  0.89637160498E+02  0.78686135030E+02 0.  0.
          5    1    5    5  501    0 -0.68565112786E+02 -0.16556599521E+02 -0.11969359172E+03  0.13901058082E+03  0.47000000000E+01 0. -1.
        -11    1    6    6    0    0 -0.83868511284E+01  0.79981332407E+01 -0.27836867199E+02  0.30152953133E+02  0.00000000000E+00 0.  1.
         12    1    6    6    0    0 -0.55368605321E+00 -0.49712793862E+02  0.32660411571E+02  0.59484207365E+02  0.00000000000E+00 0. -1.
         -5    1    3    3    0  503 -0.50056383932E+01 -0.44269564999E+02  0.15841656955E+02  0.47517353630E+02  0.47000000000E+01 0.  1.
         13    1    4    4    0    0  0.72966802995E+02  0.74046038652E+02  0.57744432559E+02  0.11891757511E+03  0.00000000000E+00 0. -1.
        -14    1    4    4    0    0  0.95444853664E+01  0.28494786490E+02 -0.22812580184E+02  0.37728820187E+02  0.00000000000E+00 0.  1.
</event>
<event>
12    1  0.9873238E-001  0.2626272E+03  0.7818608E-02  0.1105699E+00
         21   -1    0    0  501  502  0.00000000000E+00  0.00000000000E+00  0.17191014687E+03  0.17191014687E+03  0.00000000000E+00 0. -1.
         21   -1    0    0  502  503 -0.00000000000E+00 -0.00000000000E+00 -0.19154923978E+04  0.19154923978E+04  0.00000000000E+00 0.  1.
         -6    2    1    2    0  503  0.18739841262E+03  0.71757529437E+02  0.56871461491E+02  0.26789529421E+03  0.16812560019E+03 0.  0.
        -24    2    3    3    0    0  0.21062869195E+03  0.57846209742E+02  0.59295604034E+02  0.24030657984E+03  0.80750565338E+02 0.  0.
          6    2    1    2  501    0 -0.18739841262E+03 -0.71757529437E+02 -0.18004537124E+04  0.18195072505E+04  0.16942773050E+03 0.  0.
         24    2    5    5    0    0 -0.18009731754E+03 -0.10332754073E+03 -0.15204778229E+04  0.15376233021E+04  0.96545248219E+02 0.  0.
          5    1    5    5  501    0 -0.73010950813E+01  0.31570011295E+02 -0.27997588957E+03  0.28188394836E+03  0.47000000000E+01 0. -1.
        -13    1    6    6    0    0 -0.42661030704E+02 -0.55770148891E+02 -0.76923326027E+03  0.77243127963E+03  0.00000000000E+00 0.  1.
         14    1    6    6    0    0 -0.13743628684E+03 -0.47557391841E+02 -0.75124456260E+03  0.76519202250E+03  0.00000000000E+00 0. -1.
         -5    1    3    3    0  503 -0.23230279327E+02  0.13911319695E+02 -0.24241425429E+01  0.27588714365E+02  0.47000000000E+01 0.  1.
         11    1    4    4    0    0  0.84656677869E+02  0.60291610181E+02  0.45848083413E+02  0.11359523810E+03  0.00000000000E+00 0. -1.
        -12    1    4    4    0    0  0.12597201408E+03 -0.24454004397E+01  0.13447520621E+02  0.12671134174E+03  0.00000000000E+00 0.  1.
</event>
<event>
12    1  0.9873238E-001  0.1890317E+03  0.7818608E-02  0.1159454E+00
         21   -1    0    0  501  502  0.00000000000E+00  0.00000000000E+00  0.12547269551E+03  0.12547269551E+03  0.00000000000E+00 0.  1.
         21   -1    0    0  502  503 -0.00000000000E+00 -0.00000000000E+00 -0.28461311272E+03  0.28461311272E+03  0.00000000000E+00 0.  1.
         -6    2    1    2    0  503  0.64030899080E+02 -0.43971256871E+02 -0.88855629600E+02  0.20841045973E+03  0.17177359910E+03 0.  0.
        -24    2    3    3    0    0  0.40507421421E+02 -0.31479268672E+02 -0.12951543502E+03  0.15957693081E+03  0.77837994537E+02 0.  0.
          6    2    1    2  501    0 -0.64030899080E+02  0.43971256871E+02 -0.70284787608E+02  0.20167534849E+03  0.17233562416E+03 0.  0.
         24    2    5    5    0    0 -0.30286490037E+02  0.66905541205E+02  0.12432041636E+02  0.10932368159E+03  0.80021801871E+02 0.  0.
          5    1    5    5  501    0 -0.33744409043E+02 -0.22934284334E+02 -0.82716829244E+02  0.92351666903E+02  0.47000000000E+01 0. -1.
        -11    1    6    6    0    0 -0.28932411072E+01  0.58827817495E+02 -0.23508963855E+02  0.63417303135E+02  0.00000000000E+00 0.  1.
         12    1    6    6    0    0 -0.27393248929E+02  0.80777237101E+01  0.35941005491E+02  0.45906378456E+02  0.00000000000E+00 0. -1.
         -5    1    3    3    0  503  0.23523477659E+02 -0.12491988199E+02  0.40659805416E+02  0.48833528920E+02  0.47000000000E+01 0.  1.
         11    1    4    4    0    0  0.63575989103E+02 -0.18461501163E+02 -0.84481128167E+02  0.10733030528E+03  0.00000000000E+00 0. -1.
        -12    1    4    4    0    0 -0.23068567682E+02 -0.13017767510E+02 -0.45034306849E+02  0.52246625529E+02  0.00000000000E+00 0.  1.
</event>
<event>
12    1  0.9873238E-001  0.2487688E+03  0.7818608E-02  0.1115507E+00
         21   -1    0    0  501  502  0.00000000000E+00  0.00000000000E+00  0.85106741425E+03  0.85106741425E+03  0.00000000000E+00 0. -1.
         21   -1    0    0  502  503 -0.00000000000E+00 -0.00000000000E+00 -0.80369666295E+02  0.80369666295E+02  0.00000000000E+00 0. -1.
         -6    2    1    2    0  503 -0.11777270880E+03 -0.11915664883E+03  0.54515787850E+03  0.59564820857E+03  0.17184573894E+03 0.  0.
        -24    2    3    3    0    0 -0.31000131986E+02 -0.11734005244E+03  0.41317196379E+03  0.43761292203E+03  0.77873627012E+02 0.  0.
          6    2    1    2  501    0  0.11777270880E+03  0.11915664883E+03  0.22553986946E+03  0.33578887197E+03  0.18389457829E+03 0.  0.
         24    2    5    5    0    0  0.13503578751E+03  0.49095770933E+02  0.10538427706E+03  0.19555336690E+03  0.80561869529E+02 0.  0.
          5    1    5    5  501    0 -0.17263078706E+02  0.70060877899E+02  0.12015559240E+03  0.14023550507E+03  0.47000000000E+01 0. -1.
        -11    1    6    6    0    0  0.52563793766E+02 -0.20728981921E+02  0.32078355748E+02  0.64974333502E+02  0.00000000000E+00 0.  1.
         12    1    6    6    0    0  0.82471993743E+02  0.69824752855E+02  0.73305921314E+02  0.13057903340E+03  0.00000000000E+00 0. -1.
         -5    1    3    3    0  503 -0.86772576816E+02 -0.18165963964E+01  0.13198591471E+03  0.15803528654E+03  0.47000000000E+01 0.  1.
         13    1    4    4    0    0 -0.49997441545E+02 -0.40534556102E+02  0.20722492268E+03  0.21699069791E+03  0.00000000000E+00 0. -1.
        -14    1    4    4    0    0  0.18997309559E+02 -0.76805496334E+02  0.20594704110E+03  0.22062222412E+03  0.00000000000E+00 0.  1.
</event>
<event>
12    1  0.9873238E-001  0.1807165E+03  0.7818608E-02  0.1167467E+00
         21   -1    0    0  501  502  0.00000000000E+00  0.00000000000E+00  0.14804867667E+03  0.14804867667E+03  0.00000000000E+00 0.  1.
         21   -1    0    0  502  503 -0.00000000000E+00 -0.00000000000E+00 -0.22234957351E+03  0.22234957351E+03  0.00000000000E+00 0.  1.
         -6    2    1    2    0  503 -0.20384772802E+02 -0.49139393243E+02 -0.13897603324E+02  0.18125010654E+03  0.17270853717E+03 0.  0.
        -24    2    3    3    0    0 -0.66485522762E+02 -0.71790138619E+02  0.24377866586E+01  0.12714585182E+03  0.81154026953E+02 0.  0.
          6    2    1    2  501    0  0.20384772802E+02  0.49139393243E+02 -0.60403293512E+02  0.18914814364E+03  0.17116729666E+03 0.  0.
         24    2    5    5    0    0 -0.80356355603E+01 -0.27441395859E+02  0.47860534223E+01  0.84534197034E+02  0.79407320288E+02 0.  0.
          5    1    5    5  501    0  0.28420408362E+02  0.76580789102E+02 -0.65189346934E+02  0.10461394661E+03  0.47000000000E+01 0. -1.
        -11    1    6    6    0    0  0.35446817875E+02 -0.17900858831E+02 -0.43081209676E+00  0.39712759202E+02  0.00000000000E+00 0.  1.
         12    1    6    6    0    0 -0.43482453435E+02 -0.95405370283E+01  0.52168655191E+01  0.44821437833E+02  0.00000000000E+00 0. -1.
         -5    1    3    3    0  503  0.46100749960E+02  0.22650745376E+02 -0.16335389982E+02  0.54104254720E+02  0.47000000000E+01 0.  1.
         13    1    4    4    0    0 -0.20237295061E+02 -0.35232389021E+02 -0.38020790525E+02  0.55645753294E+02  0.00000000000E+00 0. -1.
        -14    1    4    4    0    0 -0.46248227701E+02 -0.36557749598E+02  0.40458577183E+02  0.71500098523E+02  0.00000000000E+00 0.  1.
</event>
<event>
12    1  0.9873238E-001  0.1813543E+03  0.7818608E-02  0.1166902E+00
         21   -1    0    0  501  502  0.00000000000E+00  0.00000000000E+00  0.73334739645E+02  0.73334739645E+02  0.00000000000E+00 0. -1.
         21   -1    0    0  502  503 -0.00000000000E+00 -0.00000000000E+00 -0.50940668150E+03  0.50940668150E+03  0.00000000000E+00 0. -1.
         -6    2    1    2    0  503  0.30857072218E+02  0.50723617673E+02 -0.11302691522E+03  0.21227215375E+03  0.16958578772E+03 0.  0.
        -24    2    3    3    0    0  0.86702076863E+02 -0.60477013815E+01 -0.57023600694E+02  0.11480365397E+03  0.48727436876E+02 0.  0.
          6    2    1    2  501    0 -0.30857072218E+02 -0.50723617673E+02 -0.32304502663E+03  0.37046926739E+03  0.17136027706E+03 0.  0.
         24    2    5    5    0    0 -0.36783603893E+02 -0.17925929248E+02 -0.32407609421E+03  0.33679486697E+03  0.82043251523E+02 0.  0.
          5    1    5    5  501    0  0.59265316752E+01 -0.32797688424E+02  0.10310675809E+01  0.33674400426E+02  0.47000000000E+01 0. -1.
        -13    1    6    6    0    0 -0.16781109334E+01 -0.13232381685E+02 -0.28721005853E+01  0.13644080883E+02  0.00000000000E+00 0.  1.
         14    1    6    6    0    0 -0.35105492960E+02 -0.46935475630E+01 -0.32120399363E+03  0.32315078609E+03  0.00000000000E+00 0. -1.
         -5    1    3    3    0  503 -0.55845004645E+02  0.56771319054E+02 -0.56003314525E+02  0.97468499777E+02  0.47000000000E+01 0.  1.
         11    1    4    4    0    0  0.29062650159E+02 -0.31976648648E+01  0.54638889868E+01  0.29744188974E+02  0.00000000000E+00 0. -1.
        -12    1    4    4    0    0  0.57639426704E+02 -0.28500365167E+01 -0.62487489681E+02  0.85059464997E+02  0.00000000000E+00 0.  1.
</event>
<event>
12    1  0.9873238E-001  0.4086930E+03  0.7818608E-02  0.1040846E+00
         21   -1    0    0  501  502  0.00000000000E+00  0.00000000000E+00  0.11200089284E+03  0.11200089284E+03  0.00000000000E+00 0.  1.
         21   -1    0    0  502  503 -0.00000000000E+00 -0.00000000000E+00 -0.16626296368E+04  0.16626296368E+04  0.00000000000E+00 0.  1.
         -6    2    1    2    0  503 -0.34208544873E+03  0.14177981286E+03 -0.10617839199E+04  0.11377236429E+04  0.17293358679E+03 0.  0.
        -24    2    3    3    0    0 -0.35194427962E+03  0.11577564862E+03 -0.94881864655E+03  0.10212905888E+04  0.74221734783E+02 0.  0.
          6    2    1    2  501    0  0.34208544873E+03 -0.14177981286E+03 -0.48884482407E+03  0.63690688678E+03  0.17192193237E+03 0.  0.
         24    2    5    5    0    0  0.15563771230E+03 -0.94638367856E+02 -0.33872826267E+03  0.39289429229E+03  0.80309220055E+02 0.  0.
          5    1    5    5  501    0  0.18644773643E+03 -0.47141445006E+02 -0.15011656140E+03  0.24401259448E+03  0.47000000000E+01 0. -1.
        -11    1    6    6    0    0  0.29120335132E+02 -0.57861923715E+02 -0.83651227302E+02  0.10579945162E+03  0.00000000000E+00 0.  1.
         12    1    6    6    0    0  0.12651737717E+03 -0.36776444140E+02 -0.25507703537E+03  0.28709484067E+03  0.00000000000E+00 0. -1.
         -5    1    3    3    0  503  0.98588308880E+01  0.26004164244E+02 -0.11296527334E+03  0.11643305409E+03  0.47000000000E+01 0.  1.
         13    1    4    4    0    0 -0.28512795066E+03  0.12314850839E+03 -0.77345559254E+03  0.83348488709E+03  0.00000000000E+00 0. -1.
        -14    1    4    4    0    0 -0.66816328965E+02 -0.73728597703E+01 -0.17536305400E+03  0.18780570169E+03  0.00000000000E+00 0.  1.
</event>
<event>
12    1  0.9873238E-001  0.1775178E+03  0.7818608E-02  0.1170913E+00
         21   -1    0    0  501  502  0.00000000000E+00  0.00000000000E+00  0.10591653957E+03  0.10591653957E+03  0.00000000000E+00 0. -1.
         21   -1    0    0  502  503 -0.00000000000E+00 -0.00000000000E+00 -0.44302599266E+03  0.44302599266E+03  0.00000000000E+00 0.  1.
         -6    2    1    2    0  503 -0.20975690456E+02 -0.38867250786E+02 -0.32744685010E+03  0.37116190364E+03  0.16908304558E+03 0.  0.
        -24    2    3    3    0    0  0.97892954742E+01 -0.71362078237E+02 -0.15693151208E+03  0.19481007158E+03  0.90194722637E+02 0.  0.
          6    2    1    2  501    0  0.20975690456E+02  0.38867250786E+02 -0.96626029882E+01  0.17778062859E+03  0.17193586953E+03 0.  0.
         24    2    5    5    0    0  0.39504230297E+02  0.28519664834E+02 -0.67770823934E+02  0.11574003973E+03  0.80180525862E+02 0.  0.
          5    1    5    5  501    0 -0.18528539840E+02  0.10347585952E+02  0.58108220946E+02  0.62040588852E+02  0.47000000000E+01 0. -1.
        -13    1    6    6    0    0  0.28273787336E+02  0.63035271401E+01  0.12609438650E+02  0.31593344992E+02  0.00000000000E+00 0.  1.
         14    1    6    6    0    0  0.11230442961E+02  0.22216137693E+02 -0.80380262584E+02  0.84146694743E+02  0.00000000000E+00 0. -1.
         -5    1    3    3    0  503 -0.30764985930E+02  0.32494827451E+02 -0.17051533802E+03  0.17635183206E+03  0.47000000000E+01 0.  1.
         11    1    4    4    0    0 -0.22900745399E+02 -0.52320913376E+02 -0.14386284853E+03  0.15478514562E+03  0.00000000000E+00 0. -1.
        -12    1    4    4    0    0  0.32690040873E+02 -0.19041164861E+02 -0.13068663541E+02  0.40024925963E+02  0.00000000000E+00 0.  1.
</event>
<event>
12    1  0.9873238E-001  0.1918470E+03  0.7818608E-02  0.1156892E+00
         21   -1    0    0  503  502  0.00000000000E+00  0.00000000000E+00  0.54477322108E+02  0.54477322108E+02  0.00000000000E+00 0.  1.
         21   -1    0    0  501  503 -0.00000000000E+00 -0.00000000000E+00 -0.11221058515E+04  0.11221058515E+04  0.00000000000E+00 0.  1.
          6    2    1    2  501    0 -0.28188526409E+02 -0.79849716931E+02 -0.90515111089E+03  0.92517878469E+03  0.17171685932E+03 0.  0.
         24    2    3    3    0    0 -0.46603106680E+02 -0.38191295649E+02 -0.83760399178E+03  0.84357471537E+03  0.80046416147E+02 0.  0.
         -6    2    1    2    0  502  0.28188526409E+02  0.79849716931E+02 -0.16247741853E+03  0.25140438895E+03  0.17214727688E+03 0.  0.
        -24    2    5    5    0    0  0.11782930791E+02  0.97365676441E+02 -0.18100328562E+03  0.22072458848E+03  0.79613077742E+02 0.  0.
          5    1    3    3  501    0  0.18414580271E+02 -0.41658421281E+02 -0.67547119108E+02  0.81604069322E+02  0.47000000000E+01 0. -1.
        -11    1    4    4    0    0  0.18486115262E+02 -0.29063430031E+02 -0.29576796163E+03  0.29776686610E+03  0.00000000000E+00 0.  1.
         12    1    4    4    0    0 -0.65089221942E+02 -0.91278656186E+01 -0.54183603015E+03  0.54580784926E+03  0.00000000000E+00 0. -1.
         -5    1    5    5    0  502  0.16405595618E+02 -0.17515959510E+02  0.18525867093E+02  0.30679800467E+02  0.47000000000E+01 0.  1.
         11    1    6    6    0    0 -0.14128827821E+02  0.94949757662E+01 -0.89999777024E+02  0.91595514109E+02  0.00000000000E+00 0. -1.
        -12    1    6    6    0    0  0.25911758612E+02  0.87870700675E+02 -0.91003508600E+02  0.12912907438E+03  0.00000000000E+00 0.  1.
</event>
<event>
12    1  0.9873238E-001  0.1914696E+03  0.7818608E-02  0.1158340E+00
         21   -1    0    0  501  502  0.00000000000E+00  0.00000000000E+00  0.33142225222E+03  0.33142225222E+03  0.00000000000E+00 0. -1.
         21   -1    0    0  502  503 -0.00000000000E+00 -0.00000000000E+00 -0.10951190330E+03  0.10951190330E+03  0.00000000000E+00 0. -1.
         -6    2    1    2    0  503 -0.22140964044E+02  0.64590190801E+02  0.83239312307E+02  0.20878076684E+03  0.17888127474E+03 0.  0.
        -24    2    3    3    0    0  0.58101918866E+02  0.33363029090E+02  0.34117083640E+02  0.10953793720E+03  0.79659648529E+02 0.  0.
          6    2    1    2  501    0  0.22140964044E+02 -0.64590190801E+02  0.13867103662E+03  0.23215338868E+03  0.17321496599E+03 0.  0.
         24    2    5    5    0    0  0.26945474466E+02  0.36550364558E+01  0.80366678301E+01  0.84613825608E+02  0.79721349515E+02 0.  0.
          5    1    5    5  501    0 -0.48045104212E+01 -0.68245227257E+02  0.13063436879E+03  0.14753956307E+03  0.47000000000E+01 0. -1.
        -11    1    6    6    0    0  0.23177817790E+02 -0.36760872886E+02  0.13734087787E+01  0.43479411962E+02  0.00000000000E+00 0.  1.
         12    1    6    6    0    0  0.37676566758E+01  0.40415909342E+02  0.66632590515E+01  0.41134413646E+02  0.00000000000E+00 0. -1.
         -5    1    3    3    0  503 -0.80242882910E+02  0.31227161711E+02  0.49122228667E+02  0.99242829642E+02  0.47000000000E+01 0.  1.
         11    1    4    4    0    0  0.21845582780E+02  0.38707969619E+02 -0.16184350100E+02  0.47301898347E+02  0.00000000000E+00 0. -1.
        -12    1    4    4    0    0  0.36256336086E+02 -0.53449405286E+01  0.50301433741E+02  0.62236038852E+02  0.00000000000E+00 0.  1.
</event>
<event>
12    1  0.9873238E-001  0.3264339E+03  0.7818608E-02  0.1073025E+00
         21   -1    0    0  501  502  0.00000000000E+00  0.00000000000E+00  0.27222504374E+03  0.27222504374E+03  0.00000000000E+00 0. -1.
         21   -1    0    0  502  503 -0.00000000000E+00 -0.00000000000E+00 -0.62951344383E+03  0.62951344383E+03  0.00000000000E+00 0.  1.
         -6    2    1    2    0  503 -0.26816572298E+03  0.52663357584E+02  0.10092007107E+03  0.33914261013E+03  0.17362766211E+03 0.  0.
        -24    2    3    3    0    0 -0.28367866526E+03  0.37360391122E+02  0.73956181474E+02  0.30415727745E+03  0.71921823553E+02 0.  0.
          6    2    1    2  501    0  0.26816572298E+03 -0.52663357584E+02 -0.45820847116E+03  0.56259587744E+03  0.17852964476E+03 0.  0.
         24    2    5    5    0    0  0.14057200307E+03 -0.80254802588E+02 -0.17609058837E+03  0.25170355687E+03  0.78393008906E+02 0.  0.
          5    1    5    5  501    0  0.12759371991E+03  0.27591445004E+02 -0.28211788279E+03  0.31089232057E+03  0.47000000000E+01 0. -1.
        -11    1    6    6    0    0  0.16563736382E+01  0.12410094268E+02 -0.16569535689E+02  0.20767848380E+02  0.00000000000E+00 0.  1.
         12    1    6    6    0    0  0.13891562943E+03 -0.92664896856E+02 -0.15952105268E+03  0.23093570849E+03  0.00000000000E+00 0. -1.
         -5    1    3    3    0  503  0.15512942274E+02  0.15302966462E+02  0.26963889598E+02  0.34985332680E+02  0.47000000000E+01 0.  1.
         13    1    4    4    0    0 -0.71074970372E+02 -0.26022924738E+01  0.49060964479E+02  0.86402555374E+02  0.00000000000E+00 0. -1.
        -14    1    4    4    0    0 -0.21260369489E+03  0.39962683596E+02  0.24895216995E+02  0.21775472208E+03  0.00000000000E+00 0.  1.
</event>
<event>
12    1  0.9873238E-001  0.2833652E+03  0.7818608E-02  0.1093970E+00
         21   -1    0    0  503  502  0.00000000000E+00  0.00000000000E+00  0.20366063339E+03  0.20366063339E+03  0.00000000000E+00 0.  1.
         21   -1    0    0  501  503 -0.00000000000E+00 -0.00000000000E+00 -0.41942107615E+03  0.41942107615E+03  0.00000000000E+00 0.  1.
          6    2    1    2  501    0 -0.20580895080E+03 -0.90983004832E+02 -0.18595350396E+03  0.33893147197E+03  0.17222254690E+03 0.  0.
         24    2    3    3    0    0 -0.10907977632E+03 -0.30929169464E+02 -0.23813909200E+02  0.14075393912E+03  0.79934710740E+02 0.  0.
         -6    2    1    2    0  502  0.20580895080E+03  0.90983004832E+02 -0.29806938799E+02  0.28415023758E+03  0.17093177738E+03 0.  0.
        -24    2    5    5    0    0  0.18371495770E+03  0.42352636642E+02  0.25588190133E+02  0.20705440403E+03  0.81681327362E+02 0.  0.
          5    1    3    3  501    0 -0.96729174482E+02 -0.60053835368E+02 -0.16213959476E+03  0.19817753285E+03  0.47000000000E+01 0. -1.
        -11    1    4    4    0    0 -0.41878092256E+01 -0.64757497697E+01 -0.31830453625E+02  0.32751348967E+02  0.00000000000E+00 0.  1.
         12    1    4    4    0    0 -0.10489196709E+03 -0.24453419694E+02  0.80165444257E+01  0.10800259015E+03  0.00000000000E+00 0. -1.
         -5    1    5    5    0  502  0.22093993095E+02  0.48630368190E+02 -0.55395128932E+02  0.77095833549E+02  0.47000000000E+01 0.  1.
         13    1    6    6    0    0  0.32473649660E+02  0.18826306461E+00  0.37485200271E+02  0.49595499842E+02  0.00000000000E+00 0. -1.
        -14    1    6    6    0    0  0.15124130804E+03  0.42164373578E+02 -0.11897010139E+02  0.15745890419E+03  0.00000000000E+00 0.  1.
</event>
<event>
12    1  0.9873238E-001  0.1809343E+03  0.7818608E-02  0.1167224E+00
         21   -1    0    0  503  502  0.00000000000E+00  0.00000000000E+00  0.19365906396E+03  0.19365906396E+03  0.00000000000E+00 0. -1.
         21   -1    0    0  501  503 -0.00000000000E+00 -0.00000000000E+00 -0.17244953790E+03  0.17244953790E+03  0.00000000000E+00 0. -1.
          6    2    1    2  501    0  0.54033516007E+02 -0.27378587953E+02 -0.19412218655E+02  0.18197265168E+03  0.17049341276E+03 0.  0.
         24    2    3    3    0    0  0.57717491375E+02 -0.57790197897E+02  0.34595439629E+02  0.11970424197E+03  0.80381871829E+02 0.  0.
         -6    2    1    2    0  502 -0.54033516007E+02  0.27378587953E+02  0.40621744718E+02  0.18413595019E+03  0.16907606003E+03 0.  0.
        -24    2    5    5    0    0 -0.21223446706E+02 -0.26039631831E+02 -0.19493298242E+02  0.97153680484E+02  0.89052522925E+02 0.  0.
          5    1    3    3  501    0 -0.36839753684E+01  0.30411609944E+02 -0.54007658284E+02  0.62268409706E+02  0.47000000000E+01 0. -1.
        -13    1    4    4    0    0  0.41393660997E+02  0.10625875130E+02  0.22628586907E+02  0.48356978177E+02  0.00000000000E+00 0.  1.
         14    1    4    4    0    0  0.16323830378E+02 -0.68416073027E+02  0.11966852722E+02  0.71347263793E+02  0.00000000000E+00 0. -1.
         -5    1    5    5    0  502 -0.32810069301E+02  0.53418219784E+02  0.60115042959E+02  0.86982269702E+02  0.47000000000E+01 0.  1.
         13    1    6    6    0    0  0.40564961730E+01 -0.18956064444E+02  0.33107405915E+02  0.38365190822E+02  0.00000000000E+00 0. -1.
        -14    1    6    6    0    0 -0.25279942879E+02 -0.70835673875E+01 -0.52600704157E+02  0.58788489662E+02  0.00000000000E+00 0.  1.
</event>
<event>
12    1  0.9873238E-001  0.1790312E+03  0.7818608E-02  0.1169187E+00
         21   -1    0    0  503  502  0.00000000000E+00  0.00000000000E+00  0.85851712328E+02  0.85851712328E+02  0.00000000000E+00 0. -1.
         21   -1    0    0  501  503 -0.00000000000E+00 -0.00000000000E+00 -0.59180107225E+03  0.59180107225E+03  0.00000000000E+00 0. -1.
          6    2    1    2  501    0  0.36331007696E+02  0.25756601394E+02 -0.46152063871E+02  0.18488424432E+03  0.17340365095E+03 0.  0.
         24    2    3    3    0    0  0.61035972035E+02 -0.77305310652E+01 -0.81481307117E+02  0.13009401954E+03  0.80623194658E+02 0.  0.
         -6    2    1    2    0  502 -0.36331007696E+02 -0.25756601394E+02 -0.45979729605E+03  0.49276854026E+03  0.17153406711E+03 0.  0.
        -24    2    5    5    0    0 -0.36596185712E+02 -0.58330650381E+02 -0.44351266978E+03  0.45604772818E+03  0.80834995801E+02 0.  0.
          5    1    3    3  501    0 -0.24704964339E+02  0.33487132459E+02  0.35329243246E+02  0.54790224782E+02  0.47000000000E+01 0. -1.
        -11    1    4    4    0    0  0.78104338685E+02 -0.11220486425E+02 -0.48020781542E+02  0.92369813775E+02  0.00000000000E+00 0.  1.
         12    1    4    4    0    0 -0.17068366650E+02  0.34899553598E+01 -0.33460525575E+02  0.37724205761E+02  0.00000000000E+00 0. -1.
         -5    1    5    5    0  502  0.26517801584E+00  0.32574048987E+02 -0.16284626275E+02  0.36720812079E+02  0.47000000000E+01 0.  1.
         11    1    6    6    0    0 -0.28706914366E+02  0.10848791954E+01 -0.28727494253E+03  0.28870773544E+03  0.00000000000E+00 0. -1.
        -12    1    6    6    0    0 -0.78892713457E+01 -0.59415529577E+02 -0.15623772725E+03  0.16733999275E+03  0.00000000000E+00 0.  1.
</event>
<event>
12    1  0.9873238E-001  0.1737052E+03  0.7818608E-02  0.1174143E+00
         21   -1    0    0  501  502  0.00000000000E+00  0.00000000000E+00  0.99864935743E+03  0.99864935743E+03  0.00000000000E+00 0. -1.
         21   -1    0    0  502  503 -0.00000000000E+00 -0.00000000000E+00 -0.33066823085E+02  0.33066823085E+02  0.00000000000E+00 0. -1.
         -6    2    1    2    0  503 -0.20111493303E+02 -0.12561637259E+02  0.63672552066E+03  0.65999461733E+03  0.17207916593E+03 0.  0.
        -24    2    3    3    0    0 -0.67318435997E+02  0.26836082697E+02  0.47245752387E+03  0.48453311002E+03  0.79399469056E+02 0.  0.
          6    2    1    2  501    0  0.20111493303E+02  0.12561637259E+02  0.32885701368E+03  0.37172156318E+03  0.17166163869E+03 0.  0.
         24    2    5    5    0    0  0.72028792434E+02  0.34746360816E+02  0.25381262380E+03  0.27769327829E+03  0.79355228406E+02 0.  0.
          5    1    5    5  501    0 -0.51917299132E+02 -0.22184723556E+02  0.75044389874E+02  0.94028284893E+02  0.47000000000E+01 0. -1.
        -13    1    6    6    0    0  0.33675529587E+02  0.40524893850E+02  0.22005091065E+03  0.22627132296E+03  0.00000000000E+00 0.  1.
         14    1    6    6    0    0  0.38353262847E+02 -0.57785330348E+01  0.33761713151E+02  0.51421955330E+02  0.00000000000E+00 0. -1.
         -5    1    3    3    0  503  0.47206942694E+02 -0.39397719956E+02  0.16426799679E+03  0.17546150731E+03  0.47000000000E+01 0.  1.
         13    1    4    4    0    0 -0.62611011065E+02 -0.14180331585E+02  0.23998825424E+03  0.24842621175E+03  0.00000000000E+00 0. -1.
        -14    1    4    4    0    0 -0.47074249322E+01  0.41016414282E+02  0.23246926963E+03  0.23610689827E+03  0.00000000000E+00 0.  1.
</event>
<event>
12    1  0.9873238E-001  0.2372612E+03  0.7818608E-02  0.1122103E+00
         21   -1    0    0  503  502  0.00000000000E+00  0.00000000000E+00  0.51716847498E+03  0.51716847498E+03  0.00000000000E+00 0.  1.
         21   -1    0    0  501  503 -0.00000000000E+00 -0.00000000000E+00 -0.14782212119E+03  0.14782212119E+03  0.00000000000E+00 0. -1.
          6    2    1    2  501    0  0.12935308557E+03  0.93378834544E+02  0.35895020450E+03  0.43027679348E+03  0.17561617868E+03 0.  0.
         24    2    3    3    0    0  0.32128029744E+02  0.87824317068E+02  0.12135151600E+03  0.17345235750E+03  0.81327786896E+02 0.  0.
         -6    2    1    2    0  502 -0.12935308557E+03 -0.93378834544E+02  0.10396149295E+02  0.23471380269E+03  0.17184487705E+03 0.  0.
        -24    2    5    5    0    0 -0.13848991488E+03 -0.20997137204E+02  0.97082011103E+01  0.16160323552E+03  0.80006376424E+02 0.  0.
          5    1    3    3  501    0  0.97225055823E+02  0.55545174764E+01  0.23759868849E+03  0.25682443598E+03  0.47000000000E+01 0. -1.
        -13    1    4    4    0    0  0.35509982129E+01  0.10470216777E+02 -0.12217848704E+02  0.16477586431E+02  0.00000000000E+00 0.  1.
         14    1    4    4    0    0  0.28577031531E+02  0.77354100291E+02  0.13356936471E+03  0.15697477106E+03  0.00000000000E+00 0. -1.
         -5    1    5    5    0  502  0.91368293105E+01 -0.72381697340E+02  0.68794818465E+00  0.73110567173E+02  0.47000000000E+01 0.  1.
         13    1    6    6    0    0 -0.78049110149E+02  0.85593058677E+01 -0.29331132452E+02  0.83816708614E+02  0.00000000000E+00 0. -1.
        -14    1    6    6    0    0 -0.60440804729E+02 -0.29556443071E+02  0.39039333562E+02  0.77786526907E+02  0.00000000000E+00 0.  1.
</event>
<event>
12    1  0.9873238E-001  0.2224546E+03  0.7818608E-02  0.1132086E+00
         21   -1    0    0  501  502  0.00000000000E+00  0.00000000000E+00  0.23846194761E+03  0.23846194761E+03  0.00000000000E+00 0. -1.
         21   -1    0    0  502  503 -0.00000000000E+00 -0.00000000000E+00 -0.20868489740E+03  0.20868489740E+03  0.00000000000E+00 0. -1.
         -6    2    1    2    0  503 -0.13366853725E+03  0.37874752376E+02 -0.25060084709E+01  0.22246873357E+03  0.17373624440E+03 0.  0.
        -24    2    3    3    0    0 -0.11674863106E+02 -0.22869729440E+02  0.13891825429E+02  0.85124903860E+02  0.79962112843E+02 0.  0.
          6    2    1    2  501    0  0.13366853725E+03 -0.37874752376E+02  0.32283058682E+02  0.22467811145E+03  0.17359805058E+03 0.  0.
         24    2    5    5    0    0  0.15506020318E+03 -0.12927491267E+02  0.50320808961E+02  0.18689690390E+03  0.90484707173E+02 0.  0.
          5    1    5    5  501    0 -0.21391665933E+02 -0.24947261109E+02 -0.18037750279E+02  0.37781207542E+02  0.47000000000E+01 0. -1.
        -11    1    6    6    0    0  0.14127668821E+03 -0.11419253715E+02  0.75541303213E+01  0.14193860247E+03  0.00000000000E+00 0.  1.
         12    1    6    6    0    0  0.13783514973E+02 -0.15082375529E+01  0.42766678640E+02  0.44958301430E+02  0.00000000000E+00 0. -1.
         -5    1    3    3    0  503 -0.12199367415E+03  0.60744481816E+02 -0.16397833900E+02  0.13734382971E+03  0.47000000000E+01 0.  1.
         11    1    4    4    0    0 -0.30224821098E+02 -0.18277953237E+02 -0.23988379701E+02  0.42697373990E+02  0.00000000000E+00 0. -1.
        -12    1    4    4    0    0  0.18549957992E+02 -0.45917762030E+01  0.37880205130E+02  0.42427529871E+02  0.00000000000E+00 0.  1.
</event>
<event>
12    1  0.9873238E-001  0.2120595E+03  0.7818608E-02  0.1139958E+00
         21   -1    0    0  501  502  0.00000000000E+00  0.00000000000E+00  0.15736027911E+03  0.15736027911E+03  0.00000000000E+00 0.  1.
         21   -1    0    0  502  503 -0.00000000000E+00 -0.00000000000E+00 -0.31075369248E+03  0.31075369248E+03  0.00000000000E+00 0.  1.
         -6    2    1    2    0  503  0.30928479503E+02 -0.12196603490E+03 -0.10231901857E+02  0.21230620658E+03  0.17069548624E+03 0.  0.
        -24    2    3    3    0    0 -0.38170108973E+02 -0.72702373348E+02  0.32850426574E+02  0.11701874517E+03  0.76626652575E+02 0.  0.
          6    2    1    2  501    0 -0.30928479503E+02  0.12196603490E+03 -0.14316151152E+03  0.25580776501E+03  0.17061685071E+03 0.  0.
         24    2    5    5    0    0  0.34128865773E+02  0.12248494320E+03 -0.96512062885E+02  0.17561432078E+03  0.73201575046E+02 0.  0.
          5    1    5    5  501    0 -0.65057345277E+02 -0.51890830619E+00 -0.46649448633E+02  0.80193444234E+02  0.47000000000E+01 0. -1.
        -11    1    6    6    0    0  0.30730419225E+02  0.40113724538E+02 -0.25266108443E+01  0.50594993077E+02  0.00000000000E+00 0.  1.
         12    1    6    6    0    0  0.33984465479E+01  0.82371218665E+02 -0.93985452041E+02  0.12501932770E+03  0.00000000000E+00 0. -1.
         -5    1    3    3    0  503  0.69098588476E+02 -0.49263661549E+02 -0.43082328432E+02  0.95287461409E+02  0.47000000000E+01 0.  1.
         11    1    4    4    0    0 -0.37821015282E+02 -0.82066317562E+02  0.45584171027E+02  0.10120882532E+03  0.00000000000E+00 0. -1.
        -12    1    4    4    0    0 -0.34909369075E+00  0.93639442143E+01 -0.12733744453E+02  0.15809919843E+02  0.00000000000E+00 0.  1.
</event>
<event>
12    1  0.9873238E-001  0.5538402E+03  0.7818608E-02  0.1000635E+00
         21   -1    0    0  503  502  0.00000000000E+00  0.00000000000E+00  0.51013830345E+03  0.51013830345E+03  0.00000000000E+00 0. -1.
         21   -1    0    0  501  503 -0.00000000000E+00 -0.00000000000E+00 -0.10383194656E+04  0.10383194656E+04  0.00000000000E+00 0.  1.
          6    2    1    2  501    0  0.16916478763E+03  0.49849924268E+03  0.23842470049E+03  0.60298034143E+03  0.17210675182E+03 0.  0.
         24    2    3    3    0    0  0.98303261745E+02  0.44164091353E+03  0.22340519000E+03  0.51077458705E+03  0.79186943926E+02 0.  0.
         -6    2    1    2    0  502 -0.16916478763E+03 -0.49849924268E+03 -0.76660586266E+03  0.94547742763E+03  0.17065988736E+03 0.  0.
        -24    2    5    5    0    0 -0.62087125825E+02 -0.19352970731E+03 -0.21878013488E+03  0.30939004276E+03  0.80925226834E+02 0.  0.
          5    1    3    3  501    0  0.70861525889E+02  0.56858329154E+02  0.15019510490E+02  0.92205754381E+02  0.47000000000E+01 0. -1.
        -11    1    4    4    0    0  0.86438769895E+02  0.21650671575E+03  0.98923874439E+02  0.25324445076E+03  0.00000000000E+00 0.  1.
         12    1    4    4    0    0  0.11864491850E+02  0.22513419778E+03  0.12448131556E+03  0.25753013630E+03  0.00000000000E+00 0. -1.
         -5    1    5    5    0  502 -0.10707766181E+03 -0.30496953538E+03 -0.54782572779E+03  0.63608738487E+03  0.47000000000E+01 0.  1.
         13    1    6    6    0    0 -0.54588948577E+02 -0.61465253610E+02 -0.11448357911E+03  0.14094119551E+03  0.00000000000E+00 0. -1.
        -14    1    6    6    0    0 -0.74981772482E+01 -0.13206445370E+03 -0.10429655577E+03  0.16844884724E+03  0.00000000000E+00 0.  1.
</event>
<event>
12    1  0.9873238E-001  0.2205208E+03  0.7818608E-02  0.1133636E+00
         21   -1    0    0  501  502  0.00000000000E+00  0.00000000000E+00  0.54361236680E+03  0.54361236680E+03  0.00000000000E+00 0. -1.
         21   -1    0    0  502  503 -0.00000000000E+00 -0.00000000000E+00 -0.89201281260E+02  0.89201281260E+02  0.00000000000E+00 0.  1.
         -6    2    1    2    0  503 -0.11826933798E+03 -0.69934540964E+02  0.21925727837E+03  0.31043694892E+03  0.17151929574E+03 0.  0.
        -24    2    3    3    0    0 -0.36591307855E+02  0.26786675127E+02  0.77926157534E+02  0.12064003123E+03  0.80156605049E+02 0.  0.
          6    2    1    2  501    0  0.11826933798E+03  0.69934540964E+02  0.23515380717E+03  0.32237669914E+03  0.17248462770E+03 0.  0.
         24    2    5    5    0    0  0.11783960303E+02  0.38965204191E+02  0.17353714333E+03  0.19542419329E+03  0.80114457796E+02 0.  0.
          5    1    5    5  501    0  0.10648537768E+03  0.30969336773E+02  0.61616663841E+02  0.12695250585E+03  0.47000000000E+01 0. -1.
        -13    1    6    6    0    0  0.48009679056E+01 -0.11538110686E+02 -0.19792770326E+01  0.12652858516E+02  0.00000000000E+00 0.  1.
         14    1    6    6    0    0  0.69829923975E+01  0.50503314877E+02  0.17551642037E+03  0.18277133477E+03  0.00000000000E+00 0. -1.
         -5    1    3    3    0  503 -0.81678030128E+02 -0.96721216091E+02  0.14133112083E+03  0.18979691769E+03  0.47000000000E+01 0.  1.
         11    1    4    4    0    0  0.19072264956E+02 -0.13272282466E+02  0.23927382076E+02  0.33353026631E+02  0.00000000000E+00 0. -1.
        -12    1    4    4    0    0 -0.55663572810E+02  0.40058957593E+02  0.53998775458E+02  0.87287004602E+02  0.00000000000E+00 0.  1.
</event>
<event>
12    1  0.9873238E-001  0.2833210E+03  0.7818608E-02  0.1093927E+00
         21   -1    0    0  503  502  0.00000000000E+00  0.00000000000E+00  0.15543728153E+03  0.15543728153E+03  0.00000000000E+00 0. -1.
         21   -1    0    0  501  503 -0.00000000000E+00 -0.00000000000E+00 -0.52543319213E+03  0.52543319213E+03  0.00000000000E+00 0. -1.
          6    2    1    2  501    0 -0.18515241969E+03 -0.12794569851E+03 -0.23094769782E+03  0.36552377806E+03  0.17210250699E+03 0.  0.
         24    2    3    3    0    0 -0.16242909570E+03 -0.77134722369E+02 -0.23901136819E+03  0.30908604663E+03  0.77940833779E+02 0.  0.
         -6    2    1    2    0  502  0.18515241969E+03  0.12794569851E+03 -0.13904821278E+03  0.31534669560E+03  0.17163220171E+03 0.  0.
        -24    2    5    5    0    0  0.16998120304E+03  0.44182894028E+02 -0.12164937284E+03  0.22833415133E+03  0.80574048166E+02 0.  0.
          5    1    3    3  501    0 -0.22723323989E+02 -0.50810976142E+02  0.80636703665E+01  0.56437731434E+02  0.47000000000E+01 0. -1.
        -11    1    4    4    0    0 -0.13538687690E+03 -0.90184296110E+02 -0.17831688242E+03  0.24137051241E+03  0.00000000000E+00 0.  1.
         12    1    4    4    0    0 -0.27042218804E+02  0.13049573742E+02 -0.60694485763E+02  0.67715534220E+02  0.00000000000E+00 0. -1.
         -5    1    5    5    0  502  0.15171216653E+02  0.83762804483E+02 -0.17398839937E+02  0.87012544272E+02  0.47000000000E+01 0.  1.
         13    1    6    6    0    0  0.15432088355E+03  0.11655696289E+02 -0.83652013803E+02  0.17592171489E+03  0.00000000000E+00 0. -1.
        -14    1    6    6    0    0  0.15660319484E+02  0.32527197739E+02 -0.37997359038E+02  0.52412436434E+02  0.00000000000E+00 0.  1.
</event>
<event>
12    1  0.9873238E-001  0.1938433E+03  0.7818608E-02  0.1155281E+00
         21   -1    0    0  503  502  0.00000000000E+00  0.00000000000E+00  0.45378376684E+03  0.45378376684E+03  0.00000000000E+00 0.  1.
         21   -1    0    0  501  503 -0.00000000000E+00 -0.00000000000E+00 -0.89112736883E+02  0.89112736883E+02  0.00000000000E+00 0.  1.
          6    2    1    2  501    0  0.43170346333E+02  0.77613363960E+02  0.25670667126E+03  0.32101471858E+03  0.17106905451E+03 0.  0.
         24    2    3    3    0    0 -0.25528069699E+02  0.61660176159E+02  0.87390085889E+02  0.13753672904E+03  0.82617583213E+02 0.  0.
         -6    2    1    2    0  502 -0.43170346333E+02 -0.77613363960E+02  0.10796435870E+03  0.22188178514E+03  0.17230122101E+03 0.  0.
        -24    2    5    5    0    0 -0.60474927523E+02 -0.98816167100E+02  0.38480041372E+02  0.14705419835E+03  0.81990072132E+02 0.  0.
          5    1    3    3  501    0  0.68698416032E+02  0.15953187801E+02  0.16931658537E+03  0.18347798955E+03  0.47000000000E+01 0. -1.
        -13    1    4    4    0    0 -0.11991801819E+02 -0.17003695337E+02  0.38974949725E+02  0.44181168749E+02  0.00000000000E+00 0.  1.
         14    1    4    4    0    0 -0.13536267880E+02  0.78663871496E+02  0.48415136164E+02  0.93355560288E+02  0.00000000000E+00 0. -1.
         -5    1    5    5    0  502  0.17304581190E+02  0.21202803139E+02  0.69484317330E+02  0.74827586798E+02  0.47000000000E+01 0.  1.
         13    1    6    6    0    0 -0.63559317027E+02 -0.39518009833E+02  0.44982999743E+02  0.87320846010E+02  0.00000000000E+00 0. -1.
        -14    1    6    6    0    0  0.30843895037E+01 -0.59298157266E+02 -0.65029583704E+01  0.59733352336E+02  0.00000000000E+00 0.  1.
</event>
<event>
12    1  0.9873238E-001  0.1938321E+03  0.7818608E-02  0.1155114E+00
         21   -1    0    0  501  502  0.00000000000E+00  0.00000000000E+00  0.25625936690E+04  0.25625936690E+04  0.00000000000E+00 0.  1.
         21   -1    0    0  502  503 -0.00000000000E+00 -0.00000000000E+00 -0.43380581494E+02  0.43380581494E+02  0.00000000000E+00 0.  1.
         -6    2    1    2    0  503  0.51128134124E+02 -0.73605730686E+02  0.23205124703E+04  0.23285937802E+04  0.17186907437E+03 0.  0.
        -24    2    3    3    0    0  0.60126455739E+01 -0.30025486472E+02  0.20039138538E+04  0.20058068242E+04  0.81563477456E+02 0.  0.
          6    2    1    2  501    0 -0.51128134124E+02  0.73605730686E+02  0.19870061724E+03  0.27738047032E+03  0.17154037523E+03 0.  0.
         24    2    5    5    0    0 -0.75532796180E+02  0.10124763273E+03  0.12453949468E+03  0.19442491367E+03  0.79590670867E+02 0.  0.
          5    1    5    5  501    0  0.24404662055E+02 -0.27641902045E+02  0.74161122561E+02  0.82955556644E+02  0.47000000000E+01 0. -1.
        -13    1    6    6    0    0 -0.10880033659E+02  0.40113379687E+01  0.59793259790E+02  0.60907305646E+02  0.00000000000E+00 0.  1.
         14    1    6    6    0    0 -0.64652762521E+02  0.97236294763E+02  0.64746234888E+02  0.13351760803E+03  0.00000000000E+00 0. -1.
         -5    1    3    3    0  503  0.45115488550E+02 -0.43580244215E+02  0.31659861648E+03  0.32278695598E+03  0.47000000000E+01 0.  1.
         11    1    4    4    0    0 -0.29166451841E+02  0.59372944716E+01  0.11688771934E+04  0.11692560996E+04  0.00000000000E+00 0. -1.
        -12    1    4    4    0    0  0.35179097415E+02 -0.35962780943E+02  0.83503666044E+03  0.83655072457E+03  0.00000000000E+00 0.  1.
</event>
<event>
12    1  0.9873238E-001  0.2894194E+03  0.7818608E-02  0.1090803E+00
         21   -1    0    0  503  502  0.00000000000E+00  0.00000000000E+00  0.13623177180E+03  0.13623177180E+03  0.00000000000E+00 0. -1.
         21   -1    0    0  501  503 -0.00000000000E+00 -0.00000000000E+00 -0.67297564031E+03  0.67297564031E+03  0.00000000000E+00 0.  1.
          6    2    1    2  501    0  0.11483666493E+03 -0.20213753093E+03 -0.14651907530E+03  0.32336899186E+03  0.17044830432E+03 0.  0.
         24    2    3    3    0    0  0.99520347187E+02 -0.14305805615E+03 -0.17144524099E+03  0.25727528818E+03  0.80169796812E+02 0.  0.
         -6    2    1    2    0  502 -0.11483666493E+03  0.20213753093E+03 -0.39022479321E+03  0.48583842024E+03  0.17238486106E+03 0.  0.
        -24    2    5    5    0    0 -0.96780825083E+02  0.22533498613E+03 -0.33428922307E+03  0.42247428775E+03  0.81196398134E+02 0.  0.
          5    1    3    3  501    0  0.15316317745E+02 -0.59079474787E+02  0.24926165682E+02  0.66093703679E+02  0.47000000000E+01 0. -1.
        -11    1    4    4    0    0  0.87269135093E+02 -0.56359696987E+02 -0.84941016238E+02  0.13419125763E+03  0.00000000000E+00 0.  1.
         12    1    4    4    0    0  0.12251212094E+02 -0.86698359158E+02 -0.86504224749E+02  0.12308403056E+03  0.00000000000E+00 0. -1.
         -5    1    5    5    0  502 -0.18055839849E+02 -0.23197455194E+02 -0.55935570139E+02  0.63364132495E+02  0.47000000000E+01 0.  1.
         13    1    6    6    0    0 -0.74386651025E+02  0.80282101835E+02 -0.16987519499E+03  0.20207961698E+03  0.00000000000E+00 0. -1.
        -14    1    6    6    0    0 -0.22394174058E+02  0.14505288429E+03 -0.16441402808E+03  0.22039467077E+03  0.00000000000E+00 0.  1.
</event>
<event>
12    1  0.9873238E-001  0.3992222E+03  0.7818608E-02  0.1044328E+00
         21   -1    0    0  501  502  0.00000000000E+00  0.00000000000E+00  0.17906217714E+04  0.17906217714E+04  0.00000000000E+00 0.  1.
         21   -1    0    0  502  503 -0.00000000000E+00 -0.00000000000E+00 -0.88625007441E+02  0.88625007441E+02  0.00000000000E+00 0.  1.
         -6    2    1    2    0  503 -0.33245121109E+03 -0.13855695042E+03  0.91171515206E+03  0.99529034313E+03  0.17221066273E+03 0.  0.
        -24    2    3    3    0    0 -0.26663155564E+03 -0.16278854606E+03  0.80853888751E+03  0.87044312114E+03  0.79646703243E+02 0.  0.
          6    2    1    2  501    0  0.33245121109E+03  0.13855695042E+03  0.79028161190E+03  0.88395643572E+03  0.16465757765E+03 0.  0.
         24    2    5    5    0    0  0.90571274876E+02  0.71478419431E+02  0.21453691950E+03  0.25585654423E+03  0.78257019617E+02 0.  0.
          5    1    5    5  501    0  0.24187993621E+03  0.67078530992E+02  0.57574469241E+03  0.62809989150E+03  0.47000000000E+01 0. -1.
        -11    1    6    6    0    0 -0.52833010932E+00  0.97939119526E+01  0.86457557542E+02  0.87012120421E+02  0.00000000000E+00 0.  1.
         12    1    6    6    0    0  0.91099604985E+02  0.61684507478E+02  0.12807936195E+03  0.16884442380E+03  0.00000000000E+00 0. -1.
         -5    1    3    3    0  503 -0.65819655449E+02  0.24231595634E+02  0.10317626455E+03  0.12484722198E+03  0.47000000000E+01 0.  1.
         11    1    4    4    0    0 -0.40376001214E+02 -0.35627511759E+02  0.23218337910E+03  0.23834567879E+03  0.00000000000E+00 0. -1.
        -12    1    4    4    0    0 -0.22625555442E+03 -0.12716103430E+03  0.57635550841E+03  0.63209744235E+03  0.00000000000E+00 0.  1.
</event>
<event>
12    1  0.9873238E-001  0.1997394E+03  0.7818608E-02  0.1149997E+00
         21   -1    0    0  503  502  0.00000000000E+00  0.00000000000E+00  0.23802331506E+02  0.23802331506E+02  0.00000000000E+00 0.  1.
         21   -1    0    0  501  503 -0.00000000000E+00 -0.00000000000E+00 -0.18422893253E+04  0.18422893253E+04  0.00000000000E+00 0.  1.
          6    2    1    2  501    0 -0.10062164676E+03 -0.12157097314E+02 -0.11903586269E+04  0.12069702112E+04  0.17190380828E+03 0.  0.
         24    2    3    3    0    0 -0.27748715329E+02  0.40348666870E+02 -0.84349984314E+03  0.84864016045E+03  0.79373360933E+02 0.  0.
         -6    2    1    2    0  502  0.10062164676E+03  0.12157097314E+02 -0.62812836692E+03  0.65912144562E+03  0.17211427580E+03 0.  0.
        -24    2    5    5    0    0  0.40851087347E+02  0.55932302308E+02 -0.23785317055E+03  0.26184873419E+03  0.84813884938E+02 0.  0.
          5    1    3    3  501    0 -0.72872931430E+02 -0.52505764184E+02 -0.34685878372E+03  0.35833005072E+03  0.47000000000E+01 0. -1.
        -11    1    4    4    0    0  0.27104298312E+02  0.89175757947E+01 -0.19683810693E+03  0.19889546622E+03  0.00000000000E+00 0.  1.
         12    1    4    4    0    0 -0.54853013641E+02  0.31431091075E+02 -0.64666173621E+03  0.64974469422E+03  0.00000000000E+00 0. -1.
         -5    1    5    5    0  502  0.59770559412E+02 -0.43775204993E+02 -0.39027519637E+03  0.39727271143E+03  0.47000000000E+01 0.  1.
         11    1    6    6    0    0  0.56448702126E+02  0.53760334545E+02 -0.12098028426E+03  0.14391962591E+03  0.00000000000E+00 0. -1.
        -12    1    6    6    0    0 -0.15597614779E+02  0.21719677630E+01 -0.11687288629E+03  0.11792910828E+03  0.00000000000E+00 0.  1.
</event>
<event>
12    1  0.9873238E-001  0.1794735E+03  0.7818608E-02  0.1168728E+00
         21   -1    0    0  501  502  0.00000000000E+00  0.00000000000E+00  0.28934516917E+03  0.28934516917E+03  0.00000000000E+00 0. -1.
         21   -1    0    0  502  503 -0.00000000000E+00 -0.00000000000E+00 -0.11213346423E+03  0.11213346423E+03  0.00000000000E+00 0. -1.
         -6    2    1    2    0  503 -0.49620749687E+02  0.14374113153E+01  0.11405673593E+03  0.21121751050E+03  0.17070328872E+03 0.  0.
        -24    2    3    3    0    0 -0.61554689598E+02  0.21155195046E+02  0.14183719592E+03  0.17481622105E+03  0.78780701356E+02 0.  0.
          6    2    1    2  501    0  0.49620749687E+02 -0.14374113153E+01  0.63154969013E+02  0.19026112290E+03  0.17247162035E+03 0.  0.
         24    2    5    5    0    0  0.41583971378E+02 -0.61250100725E+02  0.82200046537E+00  0.10337247814E+03  0.72141472383E+02 0.  0.
          5    1    5    5  501    0  0.80367783091E+01  0.59812689410E+02  0.62332968547E+02  0.86888644758E+02  0.47000000000E+01 0. -1.
        -13    1    6    6    0    0 -0.12667437518E+02 -0.38114934675E+02  0.14722583253E+02  0.42778109778E+02  0.00000000000E+00 0.  1.
         14    1    6    6    0    0  0.54251408896E+02 -0.23135166050E+02 -0.13900582788E+02  0.60594368362E+02  0.00000000000E+00 0. -1.
         -5    1    3    3    0  503  0.11933939911E+02 -0.19717783730E+02 -0.27780459986E+02  0.36401289457E+02  0.47000000000E+01 0.  1.
         11    1    4    4    0    0 -0.33157592841E+02 -0.28325972827E+02  0.46790407263E+02  0.63961933300E+02  0.00000000000E+00 0. -1.
        -12    1    4    4    0    0 -0.28397096757E+02  0.49481167873E+02  0.95046788653E+02  0.11085428775E+03  0.00000000000E+00 0.  1.
</event>
<event>
12    1  0.9873238E-001  0.1771542E+03  0.7818608E-02  0.1170667E+00
         21   -1    0    0  503  502  0.00000000000E+00  0.00000000000E+00  0.33590956824E+04  0.33590956824E+04  0.00000000000E+00 0.  1.
         21   -1    0    0  501  503 -0.00000000000E+00 -0.00000000000E+00 -0.31439228602E+02  0.31439228602E+02  0.00000000000E+00 0.  1.
          6    2    1    2  501    0  0.18566769428E+02  0.37043510011E+02  0.30860641217E+04  0.30911446685E+04  0.17224009968E+03 0.  0.
         24    2    3    3    0    0  0.42016085093E+02  0.64358632603E+02  0.28642164949E+04  0.28663459901E+04  0.79346203516E+02 0.  0.
         -6    2    1    2    0  502 -0.18566769428E+02 -0.37043510011E+02  0.24159233208E+03  0.29939024246E+03  0.17190321638E+03 0.  0.
        -24    2    5    5    0    0  0.42671166374E+02 -0.49601401228E+02  0.19510560674E+03  0.22134608159E+03  0.81527680030E+02 0.  0.
          5    1    3    3  501    0 -0.23449315664E+02 -0.27315122592E+02  0.22184762678E+03  0.22479867845E+03  0.47000000000E+01 0. -1.
        -11    1    4    4    0    0 -0.15383684313E+02  0.82191306706E+01  0.12607278023E+04  0.12608484459E+04  0.00000000000E+00 0.  1.
         12    1    4    4    0    0  0.57399769406E+02  0.56139501932E+02  0.16034886926E+04  0.16054975442E+04  0.00000000000E+00 0. -1.
         -5    1    5    5    0  502 -0.61237935803E+02  0.12557891218E+02  0.46486725346E+02  0.78044160874E+02  0.47000000000E+01 0.  1.
         13    1    6    6    0    0  0.12695519894E+02 -0.64519326334E+02  0.15922938806E+03  0.17227280029E+03  0.00000000000E+00 0. -1.
        -14    1    6    6    0    0  0.29975646480E+02  0.14917925106E+02  0.35876218675E+02  0.49073281303E+02  0.00000000000E+00 0.  1.
</event>
<event>
12    1  0.9873238E-001  0.2279698E+03  0.7818608E-02  0.1128546E+00
         21   -1    0    0  503  502  0.00000000000E+00  0.00000000000E+00  0.68488840651E+03  0.68488840651E+03  0.00000000000E+00 0. -1.
         21   -1    0    0  501  503 -0.00000000000E+00 -0.00000000000E+00 -0.95097401692E+02  0.95097401692E+02  0.00000000000E+00 0. -1.
          6    2    1    2  501    0 -0.45966129856E-01 -0.14924276627E+03  0.47278010157E+03  0.52374021512E+03  0.16884721820E+03 0.  0.
         24    2    3    3    0    0 -0.58262126120E+02 -0.59839853552E+02  0.19500914130E+03  0.22614855116E+03  0.78353803918E+02 0.  0.
         -6    2    1    2    0  502  0.45966129856E-01  0.14924276627E+03  0.11701090324E+03  0.25624559308E+03  0.17232773167E+03 0.  0.
        -24    2    5    5    0    0 -0.24377580129E+02  0.59460283605E+01  0.32746486360E+02  0.88159166924E+02  0.77910748152E+02 0.  0.
          5    1    3    3  501    0  0.58216159990E+02 -0.89402912715E+02  0.27777096027E+03  0.29759166395E+03  0.47000000000E+01 0. -1.
        -11    1    4    4    0    0 -0.66023316605E+01 -0.12298149730E+02 -0.44850823451E+01  0.14661215290E+02  0.00000000000E+00 0.  1.
         12    1    4    4    0    0 -0.51659794459E+02 -0.47541703822E+02  0.19949422365E+03  0.21148733587E+03  0.00000000000E+00 0. -1.
         -5    1    5    5    0  502  0.24423546259E+02  0.14329673791E+03  0.84264416884E+02  0.16808642616E+03  0.47000000000E+01 0.  1.
         13    1    6    6    0    0 -0.11426329956E+02  0.15158472692E+02 -0.23213018153E+02  0.29986405626E+02  0.00000000000E+00 0. -1.
        -14    1    6    6    0    0 -0.12951250173E+02 -0.92124443312E+01  0.55959504513E+02  0.58172761297E+02  0.00000000000E+00 0.  1.
</event>
<event>
12    1  0.9873238E-001  0.2473756E+03  0.7818608E-02  0.1115063E+00
         21   -1    0    0  503  502  0.00000000000E+00  0.00000000000E+00  0.85131312329E+02  0.85131312329E+02  0.00000000000E+00 0. -1.
         21   -1    0    0  501  503 -0.00000000000E+00 -0.00000000000E+00 -0.83229415066E+03  0.83229415066E+03  0.00000000000E+00 0. -1.
          6    2    1    2  501    0 -0.95882398763E+02  0.14949714172E+03 -0.54378701988E+03  0.59718118645E+03  0.17140074877E+03 0.  0.
         24    2    3    3    0    0 -0.72502748565E+02  0.17036824455E+03 -0.52754062139E+03  0.56156873861E+03  0.52710090775E+02 0.  0.
         -6    2    1    2    0  502  0.95882398763E+02 -0.14949714172E+03 -0.20337581845E+03  0.32024427654E+03  0.17219710612E+03 0.  0.
        -24    2    5    5    0    0  0.35391487494E+02 -0.26027194424E+01 -0.64083289741E+02  0.10891131604E+03  0.80595751762E+02 0.  0.
          5    1    3    3  501    0 -0.23379650198E+02 -0.20871102834E+02 -0.16246398496E+02  0.35612447838E+02  0.47000000000E+01 0. -1.
        -11    1    4    4    0    0 -0.41073394257E+02  0.12907432398E+03 -0.31698615471E+03  0.34471354354E+03  0.00000000000E+00 0.  1.
         12    1    4    4    0    0 -0.31429354308E+02  0.41293920573E+02 -0.21055446668E+03  0.21685519507E+03  0.00000000000E+00 0. -1.
         -5    1    5    5    0  502  0.60490911268E+02 -0.14689442227E+03 -0.13929252871E+03  0.21133296050E+03  0.47000000000E+01 0.  1.
         13    1    6    6    0    0  0.61462287562E+02 -0.58352378162E+01 -0.46674750632E+02  0.77396350943E+02  0.00000000000E+00 0. -1.
        -14    1    6    6    0    0 -0.26070800068E+02  0.32325183738E+01 -0.17408539109E+02  0.31514965098E+02  0.00000000000E+00 0.  1.
</event>
<event>
12    1  0.9873238E-001  0.2178473E+03  0.7818608E-02  0.1135540E+00
         21   -1    0    0  503  502  0.00000000000E+00  0.00000000000E+00  0.12574400531E+03  0.12574400531E+03  0.00000000000E+00 0.  1.
         21   -1    0    0  501  503 -0.00000000000E+00 -0.00000000000E+00 -0.41251418303E+03  0.41251418303E+03  0.00000000000E+00 0.  1.
          6    2    1    2  501    0  0.12898356489E+03  0.33641769650E+02 -0.22238636879E+03  0.31130872595E+03  0.17230466376E+03 0.  0.
         24    2    3    3    0    0  0.33735035488E+02 -0.40194661885E+02 -0.81895930368E+02  0.12614999874E+03  0.80331907159E+02 0.  0.
         -6    2    1    2    0  502 -0.12898356489E+03 -0.33641769650E+02 -0.64383808932E+02  0.22694946239E+03  0.17202399527E+03 0.  0.
        -24    2    5    5    0    0 -0.73147617037E+02 -0.91810555881E+02 -0.45115272643E+02  0.14391557018E+03  0.69975363281E+02 0.  0.
          5    1    3    3  501    0  0.95248529399E+02  0.73836431535E+02 -0.14049043842E+03  0.18515872721E+03  0.47000000000E+01 0. -1.
        -11    1    4    4    0    0  0.11459830480E+02  0.34893138208E+01  0.14011364688E+02  0.18434244384E+02  0.00000000000E+00 0.  1.
         12    1    4    4    0    0  0.22275205007E+02 -0.43683975706E+02 -0.95907295056E+02  0.10771575436E+03  0.00000000000E+00 0. -1.
         -5    1    5    5    0  502 -0.55835947850E+02  0.58168786231E+02 -0.19268536289E+02  0.83033892204E+02  0.47000000000E+01 0.  1.
         13    1    6    6    0    0 -0.41321379076E+02 -0.56765071223E+02  0.10376084959E+02  0.70974592769E+02  0.00000000000E+00 0. -1.
        -14    1    6    6    0    0 -0.31826237961E+02 -0.35045484658E+02 -0.55491357602E+02  0.72940977414E+02  0.00000000000E+00 0.  1.
</event>
<event>
12    1  0.9873238E-001  0.1776506E+03  0.7818608E-02  0.1170318E+00
         21   -1    0    0  501  502  0.00000000000E+00  0.00000000000E+00  0.12269995621E+03  0.12269995621E+03  0.00000000000E+00 0.  1.
         21   -1    0    0  502  503 -0.00000000000E+00 -0.00000000000E+00 -0.25908669035E+03  0.25908669035E+03  0.00000000000E+00 0.  1.
         -6    2    1    2    0  503  0.38306999694E+02 -0.18679770702E+02 -0.46891374051E+02  0.18286668355E+03  0.17153735142E+03 0.  0.
        -24    2    3    3    0    0 -0.25224425945E+02 -0.20753522974E+02 -0.73528306036E+02  0.11378587118E+03  0.80460128702E+02 0.  0.
          6    2    1    2  501    0 -0.38306999694E+02  0.18679770702E+02 -0.89495360089E+02  0.19891996301E+03  0.17246266885E+03 0.  0.
         24    2    5    5    0    0 -0.46923502049E+02  0.39752001309E+02 -0.12309101854E+03  0.15806606133E+03  0.77791029330E+02 0.  0.
          5    1    5    5  501    0  0.86165023553E+01 -0.21072230608E+02  0.33595658455E+02  0.40853901682E+02  0.47000000000E+01 0. -1.
        -13    1    6    6    0    0 -0.39156752415E+02  0.48591767774E+02 -0.39951904667E+02  0.74098352489E+02  0.00000000000E+00 0.  1.
         14    1    6    6    0    0 -0.77667496343E+01 -0.88397664647E+01 -0.83139113878E+02  0.83967708837E+02  0.00000000000E+00 0. -1.
         -5    1    3    3    0  503  0.63531425639E+02  0.20737522725E+01  0.26636931985E+02  0.69080812370E+02  0.47000000000E+01 0.  1.
         11    1    4    4    0    0 -0.24612378074E+02  0.28437795869E+02 -0.33419809016E+02  0.50312632837E+02  0.00000000000E+00 0. -1.
        -12    1    4    4    0    0 -0.61204787090E+00 -0.49191318843E+02 -0.40108497019E+02  0.63473238339E+02  0.00000000000E+00 0.  1.
</event>
<event>
12    1  0.9873238E-001  0.1843832E+03  0.7818608E-02  0.1165030E+00
         21   -1    0    0  503  502  0.00000000000E+00  0.00000000000E+00  0.66545696919E+03  0.66545696919E+03  0.00000000000E+00 0. -1.
         21   -1    0    0  501  503 -0.00000000000E+00 -0.00000000000E+00 -0.53357327779E+02  0.53357327779E+02  0.00000000000E+00 0. -1.
          6    2    1    2  501    0 -0.51400179635E+02  0.43250383032E+02  0.21368237611E+03  0.28223630731E+03  0.17171080690E+03 0.  0.
         24    2    3    3    0    0 -0.66220664191E+02 -0.28138729751E+02  0.13535816282E+03  0.17512503539E+03  0.84675742085E+02 0.  0.
         -6    2    1    2    0  502  0.51400179635E+02 -0.43250383032E+02  0.39841726530E+03  0.43657798966E+03  0.16538273690E+03 0.  0.
        -24    2    5    5    0    0  0.59751396369E+02  0.27659215944E+02  0.27396448921E+03  0.29302138924E+03  0.80434641837E+02 0.  0.
          5    1    3    3  501    0  0.14820484556E+02  0.71389112783E+02  0.78324213287E+02  0.10711127193E+03  0.47000000000E+01 0. -1.
        -11    1    4    4    0    0  0.68800350709E+01  0.21417622832E+02  0.22466132669E+02  0.31792712490E+02  0.00000000000E+00 0.  1.
         12    1    4    4    0    0 -0.73100699262E+02 -0.49556352584E+02  0.11289203016E+03  0.14333232290E+03  0.00000000000E+00 0. -1.
         -5    1    5    5    0  502 -0.83512167338E+01 -0.70909598976E+02  0.12445277608E+03  0.14355660042E+03  0.47000000000E+01 0.  1.
         11    1    6    6    0    0  0.34494667918E+02 -0.37958481270E+00  0.28710645799E+02  0.44881258690E+02  0.00000000000E+00 0. -1.
        -12    1    6    6    0    0  0.25256728451E+02  0.28038800757E+02  0.24525384341E+03  0.24814013055E+03  0.00000000000E+00 0.  1.
</event>
<event>
12    1  0.9873238E-001  0.2027689E+03  0.7818608E-02  0.1147653E+00
         21   -1    0    0  503  502  0.00000000000E+00  0.00000000000E+00  0.16619656617E+03  0.16619656617E+03  0.00000000000E+00 0. -1.
         21   -1    0    0  501  503 -0.00000000000E+00 -0.00000000000E+00 -0.30800784252E+03  0.30800784252E+03  0.00000000000E+00 0. -1.
          6    2    1    2  501    0  0.42245146135E+02 -0.94833207610E+02  0.35597217962E+02  0.20478093912E+03  0.17288748208E+03 0.  0.
         24    2    3    3    0    0  0.40640199705E+02 -0.12838865425E+03  0.14858500854E+01  0.15667460616E+03  0.80059053777E+02 0.  0.
         -6    2    1    2    0  502 -0.42245146135E+02  0.94833207610E+02 -0.17740849431E+03  0.26942346957E+03  0.17417589519E+03 0.  0.
        -24    2    5    5    0    0 -0.36116396559E+02  0.90757091904E+02 -0.20456380337E+03  0.24089844371E+03  0.81513598246E+02 0.  0.
          5    1    3    3  501    0  0.16049464301E+01  0.33555446640E+02  0.34111367877E+02  0.48106332958E+02  0.47000000000E+01 0. -1.
        -11    1    4    4    0    0 -0.24378527391E+02 -0.36789395825E+02  0.40244212064E+01  0.44316680934E+02  0.00000000000E+00 0.  1.
         12    1    4    4    0    0  0.65018727096E+02 -0.91599258425E+02 -0.25385711210E+01  0.11235792522E+03  0.00000000000E+00 0. -1.
         -5    1    5    5    0  502 -0.61287495762E+01  0.40761157065E+01  0.27155309058E+02  0.28525025866E+02  0.47000000000E+01 0.  1.
         11    1    6    6    0    0 -0.14331934896E+02  0.34281227687E+02 -0.12002230520E+02  0.39046900863E+02  0.00000000000E+00 0. -1.
        -12    1    6    6    0    0 -0.21784461663E+02  0.56475864217E+02 -0.19256157285E+03  0.20185154284E+03  0.00000000000E+00 0.  1.
</event>
<event>
12    1  0.9873238E-001  0.2041304E+03  0.7818608E-02  0.1149164E+00
         21   -1    0    0  501  502  0.00000000000E+00  0.00000000000E+00  0.62686410740E+03  0.62686410740E+03  0.00000000000E+00 0. -1.
         21   -1    0    0  502  503 -0.00000000000E+00 -0.00000000000E+00 -0.64999902519E+02  0.64999902519E+02  0.00000000000E+00 0. -1.
         -6    2    1    2    0  503 -0.97499563818E+01 -0.77094751668E+02  0.34397296327E+03  0.39329103328E+03  0.17413148770E+03 0.  0.
        -24    2    3    3    0    0 -0.34881057063E+02  0.17742768755E+02  0.20267239731E+03  0.22120481232E+03  0.79523420310E+02 0.  0.
          6    2    1    2  501    0  0.97499563818E+01  0.77094751668E+02  0.21789124160E+03  0.29857297664E+03  0.18876060719E+03 0.  0.
         24    2    5    5    0    0  0.39383628027E+01 -0.38480130477E+02  0.94084461119E+02  0.12903968523E+03  0.79392212442E+02 0.  0.
          5    1    5    5  501    0  0.58115935791E+01  0.11557488214E+03  0.12380678048E+03  0.16953329141E+03  0.47000000000E+01 0. -1.
        -13    1    6    6    0    0  0.19116976034E+02 -0.13663488757E+02  0.96998048650E+02  0.99803662956E+02  0.00000000000E+00 0.  1.
         14    1    6    6    0    0 -0.15178613231E+02 -0.24816641720E+02 -0.29135875311E+01  0.29236022270E+02  0.00000000000E+00 0. -1.
         -5    1    3    3    0  503  0.25131100681E+02 -0.94837520423E+02  0.14130056596E+03  0.17208622096E+03  0.47000000000E+01 0.  1.
         11    1    4    4    0    0 -0.29998608203E+01 -0.39983731091E+01  0.17156853428E+03  0.17164133566E+03  0.00000000000E+00 0. -1.
        -12    1    4    4    0    0 -0.31881196242E+02  0.21741141864E+02  0.31103863034E+02  0.49563476664E+02  0.00000000000E+00 0.  1.
</event>
<event>
12    1  0.9873238E-001  0.3740155E+03  0.7818608E-02  0.1053225E+00
         21   -1    0    0  501  502  0.00000000000E+00  0.00000000000E+00  0.44329692704E+03  0.44329692704E+03  0.00000000000E+00 0. -1.
         21   -1    0    0  502  503 -0.00000000000E+00 -0.00000000000E+00 -0.33662021233E+03  0.33662021233E+03  0.00000000000E+00 0.  1.
         -6    2    1    2    0  503  0.24923903264E+03  0.21914947420E+03 -0.45405193492E+02  0.37616411034E+03  0.17114677582E+03 0.  0.
        -24    2    3    3    0    0  0.26137538049E+03  0.17994717664E+03 -0.20474876676E+02  0.32791764134E+03  0.80079229657E+02 0.  0.
          6    2    1    2  501    0 -0.24923903264E+03 -0.21914947420E+03  0.15208190820E+03  0.40375302903E+03  0.17245583264E+03 0.  0.
         24    2    5    5    0    0 -0.14852706168E+03 -0.15774809006E+03  0.27407473043E+02  0.23205901093E+03  0.78456784316E+02 0.  0.
          5    1    5    5  501    0 -0.10071197096E+03 -0.61401384144E+02  0.12467443516E+03  0.17169401810E+03  0.47000000000E+01 0. -1.
        -11    1    6    6    0    0 -0.52894767316E+02 -0.11435060152E+02 -0.47743202287E+01  0.54326891534E+02  0.00000000000E+00 0.  1.
         12    1    6    6    0    0 -0.95632294366E+02 -0.14631302991E+03  0.32181793271E+02  0.17773211939E+03  0.00000000000E+00 0. -1.
         -5    1    3    3    0  503 -0.12136347852E+02  0.39202297567E+02 -0.24930316816E+02  0.48246468993E+02  0.47000000000E+01 0.  1.
         11    1    4    4    0    0  0.12295888602E+03  0.12620119768E+03 -0.31630525003E+02  0.17901430127E+03  0.00000000000E+00 0. -1.
        -12    1    4    4    0    0  0.13841649447E+03  0.53745978958E+02  0.11155648327E+02  0.14890334007E+03  0.00000000000E+00 0.  1.
</event>
<event>
12    1  0.9873238E-001  0.2826257E+03  0.7818608E-02  0.1095922E+00
         21   -1    0    0  501  502  0.00000000000E+00  0.00000000000E+00  0.22467480757E+03  0.22467480757E+03  0.00000000000E+00 0.  1.
         21   -1    0    0  502  503 -0.00000000000E+00 -0.00000000000E+00 -0.34691815008E+03  0.34691815008E+03  0.00000000000E+00 0.  1.
         -6    2    1    2    0  503 -0.11474970172E+03 -0.17952220839E+03 -0.21169792367E+02  0.27143772912E+03  0.16683693635E+03 0.  0.
        -24    2    3    3    0    0 -0.11658233598E+03 -0.20157179627E+03 -0.10339165153E+02  0.24635914543E+03  0.79770295762E+02 0.  0.
          6    2    1    2  501    0  0.11474970172E+03  0.17952220839E+03 -0.10107355014E+03  0.30015522853E+03  0.18569216819E+03 0.  0.
         24    2    5    5    0    0 -0.10461137935E+02  0.12421449863E+03 -0.49845015556E+02  0.15392544401E+03  0.75298337699E+02 0.  0.
          5    1    5    5  501    0  0.12521083965E+03  0.55307709756E+02 -0.51228534586E+02  0.14622978452E+03  0.47000000000E+01 0. -1.
        -13    1    6    6    0    0  0.29200673180E+02  0.36863825576E+02 -0.30525118578E+02  0.56066066514E+02  0.00000000000E+00 0.  1.
         14    1    6    6    0    0 -0.39661811115E+02  0.87350673058E+02 -0.19319896978E+02  0.97859377495E+02  0.00000000000E+00 0. -1.
         -5    1    3    3    0  503  0.18326342632E+01  0.22049587881E+02 -0.10830627214E+02  0.25078583691E+02  0.47000000000E+01 0.  1.
         13    1    4    4    0    0 -0.27005031176E+02 -0.10677896891E+03  0.21236940190E+02  0.11216963733E+03  0.00000000000E+00 0. -1.
        -14    1    4    4    0    0 -0.89577304804E+02 -0.94792827361E+02 -0.31576105342E+02  0.13418950810E+03  0.00000000000E+00 0.  1.
</event>
<event>
12    1  0.9873238E-001  0.3930736E+03  0.7818608E-02  0.1046213E+00
         21   -1    0    0  501  502  0.00000000000E+00  0.00000000000E+00  0.37695163510E+03  0.37695163510E+03  0.00000000000E+00 0.  1.
         21   -1    0    0  502  503 -0.00000000000E+00 -0.00000000000E+00 -0.57194626834E+03  0.57194626834E+03  0.00000000000E+00 0.  1.
         -6    2    1    2    0  503 -0.29281037480E+03 -0.19812844428E+03  0.15514130727E+03  0.42249311642E+03  0.17157742327E+03 0.  0.
        -24    2    3    3    0    0 -0.12775655734E+03 -0.15975919953E+03  0.97390922437E+02  0.24340610251E+03  0.88976396815E+02 0.  0.
          6    2    1    2  501    0  0.29281037480E+03  0.19812844428E+03 -0.35013594051E+03  0.52640478702E+03  0.17179646951E+03 0.  0.
         24    2    5    5    0    0  0.20235493076E+03  0.18317943509E+03 -0.19024358248E+03  0.34203202225E+03  0.79316203422E+02 0.  0.
          5    1    5    5  501    0  0.90455444044E+02  0.14949009184E+02 -0.15989235803E+03  0.18437276477E+03  0.47000000000E+01 0. -1.
        -13    1    6    6    0    0  0.10220053786E+03  0.83133851848E+02 -0.45009510004E+02  0.13921940688E+03  0.00000000000E+00 0.  1.
         14    1    6    6    0    0  0.10015439290E+03  0.10004558324E+03 -0.14523407247E+03  0.20281261536E+03  0.00000000000E+00 0. -1.
         -5    1    3    3    0  503 -0.16505381746E+03 -0.38369244752E+02  0.57750384829E+02  0.17908701390E+03  0.47000000000E+01 0.  1.
         13    1    4    4    0    0 -0.86768693323E+02 -0.78749940558E+02  0.97783397761E+02  0.15261701136E+03  0.00000000000E+00 0. -1.
        -14    1    4    4    0    0 -0.40987864019E+02 -0.81009258967E+02 -0.39247532426E+00  0.90789091152E+02  0.00000000000E+00 0.  1.
</event>
<event>
12    1  0.9873238E-001  0.2167898E+03  0.7818608E-02  0.1136313E+00
         21   -1    0    0  503  502  0.00000000000E+00  0.00000000000E+00  0.13945268375E+04  0.13945268375E+04  0.00000000000E+00 0. -1.
         21   -1    0    0  501  503 -0.00000000000E+00 -0.00000000000E+00 -0.12903152876E+03  0.12903152876E+03  0.00000000000E+00 0. -1.
          6    2    1    2  501    0 -0.11747475030E+03  0.59601236881E+02  0.12875965925E+04  0.13057192651E+04  0.17217778561E+03 0.  0.
         24    2    3    3    0    0 -0.93554295689E+02  0.14110324631E+02  0.11788211027E+04  0.11853207251E+04  0.80090709555E+02 0.  0.
         -6    2    1    2    0  502  0.11747475030E+03 -0.59601236881E+02 -0.22101283777E+02  0.21783910113E+03  0.17208365071E+03 0.  0.
        -24    2    5    5    0    0  0.28760445447E+02 -0.88029959498E+02 -0.19023088466E+02  0.12451179836E+03  0.81023904161E+02 0.  0.
          5    1    3    3  501    0 -0.23920454615E+02  0.45490912250E+02  0.10877548979E+03  0.12039853996E+03  0.47000000000E+01 0. -1.
        -11    1    4    4    0    0 -0.78391008793E+02 -0.43937081059E+01  0.50428114685E+03  0.51035666940E+03  0.00000000000E+00 0.  1.
         12    1    4    4    0    0 -0.15163286897E+02  0.18504032737E+02  0.67453995585E+03  0.67496405574E+03  0.00000000000E+00 0. -1.
         -5    1    5    5    0  502  0.88714304857E+02  0.28428722618E+02 -0.30781953106E+01  0.93327302770E+02  0.47000000000E+01 0.  1.
         11    1    6    6    0    0  0.54250377912E+02 -0.67559428753E+02 -0.27196896124E+02  0.90813275879E+02  0.00000000000E+00 0. -1.
        -12    1    6    6    0    0 -0.25489932465E+02 -0.20470530746E+02  0.81738076585E+01  0.33698522486E+02  0.00000000000E+00 0.  1.
</event>
<event>
12    1  0.9873238E-001  0.2378640E+03  0.7818608E-02  0.1121333E+00
         21   -1    0    0  503  502  0.00000000000E+00  0.00000000000E+00  0.10954083759E+04  0.10954083759E+04  0.00000000000E+00 0.  1.
         21   -1    0    0  501  503 -0.00000000000E+00 -0.00000000000E+00 -0.78682513526E+02  0.78682513526E+02  0.00000000000E+00 0.  1.
          6    2    1    2  501    0 -0.13637799954E+03 -0.91628841286E+02  0.16294047441E+03  0.28779028962E+03  0.17111063464E+03 0.  0.
         24    2    3    3    0    0 -0.90529682107E+02  0.68517077736E+01  0.59147086458E+02  0.13747181392E+03  0.84602319976E+02 0.  0.
         -6    2    1    2    0  502  0.13637799954E+03  0.91628841286E+02  0.85378538798E+03  0.88630059982E+03  0.17200134068E+03 0.  0.
        -24    2    5    5    0    0  0.67363174467E+02  0.25038649524E+02  0.22103009594E+03  0.24630165504E+03  0.81519756608E+02 0.  0.
          5    1    3    3  501    0 -0.45848317429E+02 -0.98480549059E+02  0.10379338795E+03  0.15031847570E+03  0.47000000000E+01 0. -1.
        -13    1    4    4    0    0 -0.36058229144E+02  0.32236813221E+02  0.60379111904E+02  0.77363073685E+02  0.00000000000E+00 0.  1.
         14    1    4    4    0    0 -0.54471452963E+02 -0.25385105448E+02 -0.12320254454E+01  0.60108740240E+02  0.00000000000E+00 0. -1.
         -5    1    5    5    0  502  0.69014825070E+02  0.66590191762E+02  0.63275529204E+03  0.63999894478E+03  0.47000000000E+01 0.  1.
         11    1    6    6    0    0  0.54834703482E+01  0.43574026777E+02  0.96094963365E+02  0.10565512879E+03  0.00000000000E+00 0. -1.
        -12    1    6    6    0    0  0.61879704119E+02 -0.18535377253E+02  0.12493513258E+03  0.14064652624E+03  0.00000000000E+00 0.  1.
</event>
<event>
12    1  0.9873238E-001  0.1876240E+03  0.7818608E-02  0.1161058E+00
         21   -1    0    0  501  502  0.00000000000E+00  0.00000000000E+00  0.44255537122E+02  0.44255537122E+02  0.00000000000E+00 0.  1.
         21   -1    0    0  502  503 -0.00000000000E+00 -0.00000000000E+00 -0.84041770122E+03  0.84041770122E+03  0.00000000000E+00 0.  1.
         -6    2    1    2    0  503 -0.65562228473E+02 -0.23377976132E+02 -0.50723964955E+03  0.54017509357E+03  0.17219795023E+03 0.  0.
        -24    2    3    3    0    0 -0.16122377797E+02 -0.43063360280E+02 -0.45065352569E+03  0.46235547780E+03  0.92572153331E+02 0.  0.
          6    2    1    2  501    0  0.65562228473E+02  0.23377976132E+02 -0.28892251455E+03  0.34449814478E+03  0.17423494704E+03 0.  0.
         24    2    5    5    0    0  0.96872925934E+02 -0.35186391400E+01 -0.18457760267E+03  0.23218724449E+03  0.10220215504E+03 0.  0.
          5    1    5    5  501    0 -0.31310697461E+02  0.26896615272E+02 -0.10434491188E+03  0.11231090029E+03  0.47000000000E+01 0. -1.
        -13    1    6    6    0    0  0.14480791029E+02 -0.24233944816E+02 -0.12567999123E+03  0.12881163606E+03  0.00000000000E+00 0.  1.
         14    1    6    6    0    0  0.82392134905E+02  0.20715305676E+02 -0.58897611436E+02  0.10337560842E+03  0.00000000000E+00 0. -1.
         -5    1    3    3    0  503 -0.49439850677E+02  0.19685384148E+02 -0.56586123859E+02  0.77819615762E+02  0.47000000000E+01 0.  1.
         13    1    4    4    0    0  0.26332033381E+02  0.10506243989E+02 -0.21902277545E+03  0.22085002448E+03  0.00000000000E+00 0. -1.
        -14    1    4    4    0    0 -0.42454411178E+02 -0.53569604269E+02 -0.23163075024E+03  0.24150545333E+03  0.00000000000E+00 0.  1.
</event>
<event>
12    1  0.9873238E-001  0.2539386E+03  0.7818608E-02  0.1111784E+00
         21   -1    0    0  501  502  0.00000000000E+00  0.00000000000E+00  0.81972566380E+02  0.81972566380E+02  0.00000000000E+00 0. -1.
         21   -1    0    0  502  503 -0.00000000000E+00 -0.00000000000E+00 -0.92183820694E+03  0.92183820694E+03  0.00000000000E+00 0. -1.
         -6    2    1    2    0  503 -0.10904183852E+02 -0.17757841833E+03 -0.21080644786E+03  0.32543013337E+03  0.17266272719E+03 0.  0.
        -24    2    3    3    0    0 -0.15634445714E+02 -0.12768608123E+02 -0.70251003891E+02  0.10872163850E+03  0.80484271034E+02 0.  0.
          6    2    1    2  501    0  0.10904183852E+02  0.17757841833E+03 -0.62905919270E+03  0.67838063995E+03  0.18119555421E+03 0.  0.
         24    2    5    5    0    0  0.12875834404E+02  0.16272796334E+03 -0.63563617929E+03  0.66135800291E+03  0.81944361757E+02 0.  0.
          5    1    5    5  501    0 -0.19716505510E+01  0.14850454993E+02  0.65769865925E+01  0.17022637047E+02  0.47000000000E+01 0. -1.
        -13    1    6    6    0    0 -0.31797756742E+02  0.10373910016E+03 -0.39101539640E+03  0.40579051056E+03  0.00000000000E+00 0.  1.
         14    1    6    6    0    0  0.44673591145E+02  0.58988863172E+02 -0.24462078289E+03  0.25556749235E+03  0.00000000000E+00 0. -1.
         -5    1    3    3    0  503  0.47302618615E+01 -0.16480981021E+03 -0.14055544397E+03  0.21670849487E+03  0.47000000000E+01 0.  1.
         11    1    4    4    0    0 -0.65986578020E+01 -0.26894213131E+02 -0.83102499254E+02  0.87594899206E+02  0.00000000000E+00 0. -1.
        -12    1    4    4    0    0 -0.90357879120E+01  0.14125605008E+02  0.12851495363E+02  0.21126739292E+02  0.00000000000E+00 0.  1.
</event>
<event>
12    1  0.9873238E-001  0.3138988E+03  0.7818608E-02  0.1078516E+00
         21   -1    0    0  503  502  0.00000000000E+00  0.00000000000E+00  0.98859667769E+03  0.98859667769E+03  0.00000000000E+00 0.  1.
         21   -1    0    0  501  503 -0.00000000000E+00 -0.00000000000E+00 -0.99911558227E+02  0.99911558227E+02  0.00000000000E+00 0.  1.
          6    2    1    2  501    0  0.71831376702E+02 -0.25279614761E+03  0.47467959216E+03  0.56908101166E+03  0.17165909149E+03 0.  0.
         24    2    3    3    0    0  0.11002654425E+03 -0.22867825667E+03  0.37900395022E+03  0.46317321238E+03  0.80534743247E+02 0.  0.
         -6    2    1    2    0  502 -0.71831376702E+02  0.25279614761E+03  0.41400552730E+03  0.51942722425E+03  0.17128463368E+03 0.  0.
        -24    2    5    5    0    0 -0.85328466720E+02  0.26606850640E+03  0.36230421897E+03  0.46416926347E+03  0.78200771955E+02 0.  0.
          5    1    3    3  501    0 -0.38195167553E+02 -0.24117890946E+02  0.95675641945E+02  0.10590779929E+03  0.47000000000E+01 0. -1.
        -13    1    4    4    0    0  0.39307037443E+02 -0.32237108676E+02  0.12120663347E+03  0.13143562062E+03  0.00000000000E+00 0.  1.
         14    1    4    4    0    0  0.70719506812E+02 -0.19644114799E+03  0.25779731674E+03  0.33173759176E+03  0.00000000000E+00 0. -1.
         -5    1    5    5    0  502  0.13497090018E+02 -0.13272358792E+02  0.51701308333E+02  0.55257960785E+02  0.47000000000E+01 0.  1.
         11    1    6    6    0    0 -0.94540907044E+02  0.20316566424E+03  0.30579692644E+03  0.37911216078E+03  0.00000000000E+00 0. -1.
        -12    1    6    6    0    0  0.92124403246E+01  0.62902842162E+02  0.56507292525E+02  0.85057102685E+02  0.00000000000E+00 0.  1.
</event>
<event>
12    1  0.9873238E-001  0.1988491E+03  0.7818608E-02  0.1150810E+00
         21   -1    0    0  501  502  0.00000000000E+00  0.00000000000E+00  0.14389251019E+03  0.14389251019E+03  0.00000000000E+00 0.  1.
         21   -1    0    0  502  503 -0.00000000000E+00 -0.00000000000E+00 -0.83314658192E+03  0.83314658192E+03  0.00000000000E+00 0.  1.
         -6    2    1    2    0  503  0.21519926872E+02  0.98239355281E+02  0.55389696211E+02  0.20641943986E+03  0.17154267261E+03 0.  0.
        -24    2    3    3    0    0  0.74092077777E+02  0.97339657135E+02  0.41625165067E+02  0.15186494577E+03  0.79785102289E+02 0.  0.
          6    2    1    2  501    0 -0.21519926872E+02 -0.98239355281E+02 -0.74464376795E+03  0.77061965225E+03  0.17101528911E+03 0.  0.
         24    2    5    5    0    0 -0.40467319257E+02 -0.46465403156E+02 -0.67235446640E+03  0.67958461001E+03  0.77318018976E+02 0.  0.
          5    1    5    5  501    0  0.18947392385E+02 -0.51773952125E+02 -0.72289301547E+02  0.91035042236E+02  0.47000000000E+01 0. -1.
        -13    1    6    6    0    0  0.11020885384E+02  0.14954633447E+01 -0.16096772190E+02  0.19565336700E+02  0.00000000000E+00 0.  1.
         14    1    6    6    0    0 -0.51488204641E+02 -0.47960866501E+02 -0.65625769421E+03  0.66001927331E+03  0.00000000000E+00 0. -1.
         -5    1    3    3    0  503 -0.52572150906E+02  0.89969814594E+00  0.13764531145E+02  0.54554494088E+02  0.47000000000E+01 0.  1.
         13    1    4    4    0    0  0.40383061090E+02 -0.19621721176E+01  0.18578768732E+02  0.44495082762E+02  0.00000000000E+00 0. -1.
        -14    1    4    4    0    0  0.33709016687E+02  0.99301829252E+02  0.23046396334E+02  0.10736986301E+03  0.00000000000E+00 0.  1.
</event>
<event>
12    1  0.9873238E-001  0.2463539E+03  0.7818608E-02  0.1115785E+00
         21   -1    0    0  501  502  0.00000000000E+00  0.00000000000E+00  0.38157527082E+03  0.38157527082E+03  0.00000000000E+00 0.  1.
         21   -1    0    0  502  503 -0.00000000000E+00 -0.00000000000E+00 -0.27171574198E+03  0.27171574198E+03  0.00000000000E+00 0.  1.
         -6    2    1    2    0  503  0.14923380542E+03  0.90811911793E+02  0.26577715568E+03  0.36174251498E+03  0.17234447672E+03 0.  0.
        -24    2    3    3    0    0  0.69370025416E+02  0.18148437192E+02  0.22100722114E+03  0.24476114493E+03  0.76956221813E+02 0.  0.
          6    2    1    2  501    0 -0.14923380542E+03 -0.90811911793E+02 -0.15591762685E+03  0.29154849783E+03  0.17370287338E+03 0.  0.
         24    2    5    5    0    0 -0.32802554908E+02 -0.36351135084E+02 -0.13018645464E+03  0.16037534692E+03  0.79839378119E+02 0.  0.
          5    1    5    5  501    0 -0.11643125051E+03 -0.54460776710E+02 -0.25731172209E+02  0.13117315091E+03  0.47000000000E+01 0. -1.
        -11    1    6    6    0    0 -0.48923922147E+02 -0.18683641246E+01 -0.10156698116E+03  0.11275146387E+03  0.00000000000E+00 0.  1.
         12    1    6    6    0    0  0.16121367239E+02 -0.34482770959E+02 -0.28619473475E+02  0.47623883049E+02  0.00000000000E+00 0. -1.
         -5    1    3    3    0  503  0.79863780005E+02  0.72663474601E+02  0.44769934545E+02  0.11698137004E+03  0.47000000000E+01 0.  1.
         13    1    4    4    0    0  0.82440980447E+02  0.95685136789E+01  0.20952152837E+03  0.22536047249E+03  0.00000000000E+00 0. -1.
        -14    1    4    4    0    0 -0.13070955031E+02  0.85799235133E+01  0.11485692773E+02  0.19400672447E+02  0.00000000000E+00 0.  1.
</event>
<event>
12    1  0.9873238E-001  0.2848483E+03  0.7818608E-02  0.1093079E+00
         21   -1    0    0  501  502  0.00000000000E+00  0.00000000000E+00  0.22893798811E+03  0.22893798811E+03  0.00000000000E+00 0. -1.
         21   -1    0    0  502  503 -0.00000000000E+00 -0.00000000000E+00 -0.35436622527E+03  0.35436622527E+03  0.00000000000E+00 0. -1.
         -6    2    1    2    0  503  0.49037436213E+02  0.22112797383E+03 -0.59884169852E+02  0.29107498042E+03  0.17273181371E+03 0.  0.
        -24    2    3    3    0    0  0.99029092139E+02  0.15275745797E+03 -0.32685275442E+02  0.20199320362E+03  0.81186975698E+02 0.  0.
          6    2    1    2  501    0 -0.49037436213E+02 -0.22112797383E+03 -0.65544067309E+02  0.29222923296E+03  0.17262574802E+03 0.  0.
         24    2    5    5    0    0 -0.43558079290E+02 -0.14580004472E+03  0.23013766772E+02  0.17574361053E+03  0.84860025161E+02 0.  0.
          5    1    5    5  501    0 -0.54793569229E+01 -0.75327929105E+02 -0.88557834081E+02  0.11648562243E+03  0.47000000000E+01 0. -1.
        -13    1    6    6    0    0 -0.50395832373E+02 -0.13039188187E+03 -0.84515936792E+01  0.14004717853E+03  0.00000000000E+00 0.  1.
         14    1    6    6    0    0  0.68377530832E+01 -0.15408162855E+02  0.31465360451E+02  0.35696432008E+02  0.00000000000E+00 0. -1.
         -5    1    3    3    0  503 -0.49991655926E+02  0.68370515858E+02 -0.27198894409E+02  0.89081776801E+02  0.47000000000E+01 0.  1.
         13    1    4    4    0    0  0.87393898815E+02  0.15913537518E+03 -0.18379970039E+02  0.18248173739E+03  0.00000000000E+00 0. -1.
        -14    1    4    4    0    0  0.11635193324E+02 -0.63779172107E+01 -0.14305305403E+02  0.19511466226E+02  0.00000000000E+00 0.  1.
</event>
<event>
12    1  0.9873238E-001  0.2369057E+03  0.7818608E-02  0.1122037E+00
         21   -1    0    0  503  502  0.00000000000E+00  0.00000000000E+00  0.86609613611E+02  0.86609613611E+02  0.00000000000E+00 0.  1.
         21   -1    0    0  501  503 -0.00000000000E+00 -0.00000000000E+00 -0.69022116604E+03  0.69022116604E+03  0.00000000000E+00 0.  1.
          6    2    1    2  501    0  0.15910306763E+03  0.24459283128E+02 -0.20218305746E+03  0.31070939054E+03  0.17248273532E+03 0.  0.
         24    2    3    3    0    0  0.17720450300E+03  0.52068885828E+02 -0.17644041108E+03  0.26858189398E+03  0.83020541762E+02 0.  0.
         -6    2    1    2    0  502 -0.15910306763E+03 -0.24459283128E+02 -0.40142849497E+03  0.46612138911E+03  0.17381677179E+03 0.  0.
        -24    2    5    5    0    0 -0.30644693689E+02  0.32229307391E+02 -0.20729494046E+03  0.22648608888E+03  0.79667625859E+02 0.  0.
          5    1    3    3  501    0 -0.18101435372E+02 -0.27609602700E+02 -0.25742646375E+02  0.42127496557E+02  0.47000000000E+01 0. -1.
        -13    1    4    4    0    0 -0.78895128294E+00  0.11608457758E+01 -0.36461213948E+02  0.36488219052E+02  0.00000000000E+00 0.  1.
         14    1    4    4    0    0  0.17799345429E+03  0.50908040052E+02 -0.13997919714E+03  0.23209367493E+03  0.00000000000E+00 0. -1.
         -5    1    5    5    0  502 -0.12845837394E+03 -0.56688590520E+02 -0.19413355450E+03  0.23963530023E+03  0.47000000000E+01 0.  1.
         11    1    6    6    0    0 -0.26497000510E+02  0.22942478368E+02 -0.21228360972E+03  0.21515756855E+03  0.00000000000E+00 0. -1.
        -12    1    6    6    0    0 -0.41476931792E+01  0.92868290235E+01  0.49886692544E+01  0.11328520334E+02  0.00000000000E+00 0.  1.
</event>
<event>
12    1  0.9873238E-001  0.4434580E+03  0.7818608E-02  0.1029752E+00
         21   -1    0    0  501  502  0.00000000000E+00  0.00000000000E+00  0.11505238972E+04  0.11505238972E+04  0.00000000000E+00 0. -1.
         21   -1    0    0  502  503 -0.00000000000E+00 -0.00000000000E+00 -0.19566362062E+03  0.19566362062E+03  0.00000000000E+00 0. -1.
         -6    2    1    2    0  503 -0.39706496707E+03 -0.92726101609E+02  0.71786624869E+03  0.84337424128E+03  0.17230624437E+03 0.  0.
        -24    2    3    3    0    0 -0.10555598176E+03  0.94949966243E+00  0.27516668783E+03  0.30508287224E+03  0.78840890468E+02 0.  0.
          6    2    1    2  501    0  0.39706496707E+03  0.92726101609E+02  0.23699402786E+03  0.50281327652E+03  0.17434535786E+03 0.  0.
         24    2    5    5    0    0  0.37961233969E+03  0.74257709798E+02  0.25571292284E+03  0.47090461426E+03  0.82111636870E+02 0.  0.
          5    1    5    5  501    0  0.17452627379E+02  0.18468391811E+02 -0.18718894973E+02  0.31908662264E+02  0.47000000000E+01 0. -1.
        -13    1    6    6    0    0  0.19839988572E+03  0.77148008182E+01  0.96919672520E+02  0.22094219996E+03  0.00000000000E+00 0.  1.
         14    1    6    6    0    0  0.18121245398E+03  0.66542908980E+02  0.15879325032E+03  0.24996241429E+03  0.00000000000E+00 0. -1.
         -5    1    3    3    0  503 -0.29150898532E+03 -0.93675601271E+02  0.44269956086E+03  0.53829136904E+03  0.47000000000E+01 0.  1.
         13    1    4    4    0    0 -0.32393438320E+02 -0.36271717926E+02  0.84459390133E+02  0.97459534932E+02  0.00000000000E+00 0. -1.
        -14    1    4    4    0    0 -0.73162543436E+02  0.37221217588E+02  0.19070729770E+03  0.20762333731E+03  0.00000000000E+00 0.  1.
</event>
<event>
12    1  0.9873238E-001  0.2287201E+03  0.7818608E-02  0.1127749E+00
         21   -1    0    0  501  502  0.00000000000E+00  0.00000000000E+00  0.31276136918E+03  0.31276136918E+03  0.00000000000E+00 0.  1.
         21   -1    0    0  502  503 -0.00000000000E+00 -0.00000000000E+00 -0.16660174887E+03  0.16660174887E+03  0.00000000000E+00 0.  1.
         -6    2    1    2    0  503  0.15078914979E+03  0.11849918227E+02  0.65323314325E+02  0.23786553093E+03  0.17156656770E+03 0.  0.
        -24    2    3    3    0    0  0.15834200466E+03 -0.23621733780E+02  0.83262066822E+02  0.19713258906E+03  0.79363147315E+02 0.  0.
          6    2    1    2  501    0 -0.15078914979E+03 -0.11849918227E+02  0.80836305982E+02  0.24149758712E+03  0.17002584498E+03 0.  0.
         24    2    5    5    0    0 -0.60580680333E+02  0.82297948316E+01 -0.21478584078E+02  0.10354400954E+03  0.80760658645E+02 0.  0.
          5    1    5    5  501    0 -0.90208469461E+02 -0.20079713059E+02  0.10231489006E+03  0.13795357758E+03  0.47000000000E+01 0. -1.
        -13    1    6    6    0    0 -0.40479586363E+01 -0.20428541751E+02 -0.33099105194E+02  0.39105780287E+02  0.00000000000E+00 0.  1.
         14    1    6    6    0    0 -0.56532721697E+02  0.28658336583E+02  0.11620521116E+02  0.64438229252E+02  0.00000000000E+00 0. -1.
         -5    1    3    3    0  503 -0.75528548614E+01  0.35471652008E+02 -0.17938752496E+02  0.40732941875E+02  0.47000000000E+01 0.  1.
         13    1    4    4    0    0  0.10103297409E+03 -0.28801861483E+02  0.91103942217E+02  0.13905803596E+03  0.00000000000E+00 0. -1.
        -14    1    4    4    0    0  0.57309030564E+02  0.51801277027E+01 -0.78418753957E+01  0.58074553093E+02  0.00000000000E+00 0.  1.
</event>
<event>
12    1  0.9873238E-001  0.3436535E+03  0.7818608E-02  0.1065338E+00
         21   -1    0    0  503  502  0.00000000000E+00  0.00000000000E+00  0.27114553265E+04  0.27114553265E+04  0.00000000000E+00 0. -1.
         21   -1    0    0  501  503 -0.00000000000E+00 -0.00000000000E+00 -0.10314198105E+03  0.10314198105E+03  0.00000000000E+00 0. -1.
          6    2    1    2  501    0  0.84445244635E+02  0.28578859948E+03  0.23422313545E+03  0.41588240832E+03  0.17114782334E+03 0.  0.
         24    2    3    3    0    0  0.37774611387E+02  0.27275090191E+03  0.22968231126E+03  0.36698620550E+03  0.78134084505E+02 0.  0.
         -6    2    1    2    0  502 -0.84445244635E+02 -0.28578859948E+03  0.23740902100E+04  0.23987148992E+04  0.16947778507E+03 0.  0.
        -24    2    5    5    0    0 -0.95758086063E+02 -0.28744551153E+03  0.19955983694E+04  0.20200212379E+04  0.79236458931E+02 0.  0.
          5    1    3    3  501    0  0.46670633248E+02  0.13037697571E+02  0.45408241846E+01  0.48896202818E+02  0.47000000000E+01 0. -1.
        -13    1    4    4    0    0  0.47757764835E+02  0.90921819680E+02  0.10068571211E+03  0.14382348215E+03  0.00000000000E+00 0.  1.
         14    1    4    4    0    0 -0.99831534484E+01  0.18182908223E+03  0.12899659915E+03  0.22316272335E+03  0.00000000000E+00 0. -1.
         -5    1    5    5    0  502  0.11312841428E+02  0.16569120487E+01  0.37849184059E+03  0.37869366133E+03  0.47000000000E+01 0.  1.
         13    1    6    6    0    0 -0.73155782821E+01 -0.83721186677E+02  0.37677684474E+03  0.38603567907E+03  0.00000000000E+00 0. -1.
        -14    1    6    6    0    0 -0.88442507781E+02 -0.20372432486E+03  0.16188215247E+04  0.16339855588E+04  0.00000000000E+00 0.  1.
</event>
<event>
12    1  0.9873238E-001  0.2167620E+03  0.7818608E-02  0.1136522E+00
         21   -1    0    0  501  502  0.00000000000E+00  0.00000000000E+00  0.50408363711E+02  0.50408363711E+02  0.00000000000E+00 0. -1.
         21   -1    0    0  502  503 -0.00000000000E+00 -0.00000000000E+00 -0.10907882037E+04  0.10907882037E+04  0.00000000000E+00 0. -1.
         -6    2    1    2    0  503 -0.88526286560E+02 -0.97291066115E+02 -0.30054512937E+03  0.37055784989E+03  0.17228839301E+03 0.  0.
        -24    2    3    3    0    0 -0.75403560624E+02 -0.71944851833E+01 -0.23050516060E+03  0.25559138931E+03  0.80354661688E+02 0.  0.
          6    2    1    2  501    0  0.88526286560E+02  0.97291066115E+02 -0.73983471064E+03  0.77063871754E+03  0.17095665812E+03 0.  0.
         24    2    5    5    0    0  0.10843417622E+03  0.30660218551E+02 -0.39451807167E+03  0.41835805519E+03  0.81736979990E+02 0.  0.
          5    1    5    5  501    0 -0.19907889660E+02  0.66630847565E+02 -0.34531663897E+03  0.35228066235E+03  0.47000000000E+01 0. -1.
        -13    1    6    6    0    0  0.93137455086E+02  0.56259888993E+02 -0.32437601355E+03  0.34213967735E+03  0.00000000000E+00 0.  1.
         14    1    6    6    0    0  0.15296721134E+02 -0.25599670442E+02 -0.70142058116E+02  0.76218377842E+02  0.00000000000E+00 0. -1.
         -5    1    3    3    0  503 -0.13122725936E+02 -0.90096580932E+02 -0.70039968772E+02  0.11496646058E+03  0.47000000000E+01 0.  1.
         13    1    4    4    0    0  0.49129299116E+01  0.10070847336E+02 -0.34627266984E+00  0.11210653466E+02  0.00000000000E+00 0. -1.
        -14    1    4    4    0    0 -0.80316490535E+02 -0.17265332519E+02 -0.23015888793E+03  0.24438073584E+03  0.00000000000E+00 0.  1.
</event>
<event>
12    1  0.9873238E-001  0.1764610E+03  0.7818608E-02  0.1171640E+00
         21   -1    0    0  503  502  0.00000000000E+00  0.00000000000E+00  0.44281227619E+03  0.44281227619E+03  0.00000000000E+00 0.  1.
         21   -1    0    0  501  503 -0.00000000000E+00 -0.00000000000E+00 -0.13304201785E+03  0.13304201785E+03  0.00000000000E+00 0.  1.
          6    2    1    2  501    0  0.21278652035E+02 -0.27960608360E+02  0.35316148616E+03  0.39413667856E+03  0.17142377149E+03 0.  0.
         24    2    3    3    0    0  0.31470705596E+02 -0.82678091973E+02  0.22299700446E+03  0.25249359449E+03  0.78735500626E+02 0.  0.
         -6    2    1    2    0  502 -0.21278652035E+02  0.27960608360E+02 -0.43391227814E+02  0.18171761548E+03  0.17292748906E+03 0.  0.
        -24    2    5    5    0    0  0.26577061113E+02  0.61250014284E+02 -0.69041398950E+02  0.11785545840E+03  0.68302927302E+02 0.  0.
          5    1    3    3  501    0 -0.10192053561E+02  0.54717483614E+02  0.13016448170E+03  0.14164308407E+03  0.47000000000E+01 0. -1.
        -11    1    4    4    0    0 -0.19510713922E+02 -0.26604778731E+02  0.12104103704E+03  0.12545682467E+03  0.00000000000E+00 0.  1.
         12    1    4    4    0    0  0.50981419518E+02 -0.56073313242E+02  0.10195596742E+03  0.12703676982E+03  0.00000000000E+00 0. -1.
         -5    1    5    5    0  502 -0.47855713148E+02 -0.33289405925E+02  0.25650171136E+02  0.63862157081E+02  0.47000000000E+01 0.  1.
         13    1    6    6    0    0  0.46632442367E+02  0.24540895114E+02 -0.46811484310E+02  0.70485142246E+02  0.00000000000E+00 0. -1.
        -14    1    6    6    0    0 -0.20055381254E+02  0.36709119170E+02 -0.22229914639E+02  0.47370316152E+02  0.00000000000E+00 0.  1.
</event>
<event>
12    1  0.9873238E-001  0.1813887E+03  0.7818608E-02  0.1166511E+00
         21   -1    0    0  503  502  0.00000000000E+00  0.00000000000E+00  0.17694814901E+03  0.17694814901E+03  0.00000000000E+00 0. -1.
         21   -1    0    0  501  503 -0.00000000000E+00 -0.00000000000E+00 -0.19574599332E+03  0.19574599332E+03  0.00000000000E+00 0. -1.
          6    2    1    2  501    0 -0.56132532072E+02  0.50981279482E+00  0.32717368164E+02  0.18413199857E+03  0.17228768282E+03 0.  0.
         24    2    3    3    0    0 -0.33810991056E+02  0.37677167689E+02 -0.36982575158E+02  0.10191377941E+03  0.80348960709E+02 0.  0.
         -6    2    1    2    0  502  0.56132532072E+02 -0.50981279482E+00 -0.51515212472E+02  0.18856214375E+03  0.17248403948E+03 0.  0.
        -24    2    5    5    0    0 -0.17687739954E+02  0.15823910193E+01  0.22321454159E+02  0.84026249354E+02  0.79036720319E+02 0.  0.
          5    1    3    3  501    0 -0.22321541017E+02 -0.37167354895E+02  0.69699943323E+02  0.82218219163E+02  0.47000000000E+01 0. -1.
        -11    1    4    4    0    0 -0.36941985883E+02  0.12801172520E+02  0.16815739604E+02  0.42559951096E+02  0.00000000000E+00 0.  1.
         12    1    4    4    0    0  0.31309948274E+01  0.24875995170E+02 -0.53798314762E+02  0.59353828314E+02  0.00000000000E+00 0. -1.
         -5    1    5    5    0  502  0.73820272026E+02 -0.20922038141E+01 -0.73836666631E+02  0.10453589440E+03  0.47000000000E+01 0.  1.
         11    1    6    6    0    0  0.23792320305E+02  0.22790733314E+02  0.17176991335E+02  0.37155632976E+02  0.00000000000E+00 0. -1.
        -12    1    6    6    0    0 -0.41480060258E+02 -0.21208342295E+02  0.51444628235E+01  0.46870616378E+02  0.00000000000E+00 0.  1.
</event>
<event>
12    1  0.9873238E-001  0.3131798E+03  0.7818608E-02  0.1079047E+00
         21   -1    0    0  503  502  0.00000000000E+00  0.00000000000E+00  0.47478429869E+03  0.47478429869E+03  0.00000000000E+00 0. -1.
         21   -1    0    0  501  503 -0.00000000000E+00 -0.00000000000E+00 -0.38236877644E+03  0.38236877644E+03  0.00000000000E+00 0.  1.
          6    2    1    2  501    0 -0.23930463656E+03  0.10062705375E+03  0.33785420277E+03  0.46068110113E+03  0.17518305165E+03 0.  0.
         24    2    3    3    0    0 -0.10485689645E+03 -0.20006140573E+02  0.14965537917E+03  0.19977987538E+03  0.78230759293E+02 0.  0.
         -6    2    1    2    0  502  0.23930463656E+03 -0.10062705375E+03 -0.24543868052E+03  0.39647197399E+03  0.17192256176E+03 0.  0.
        -24    2    5    5    0    0  0.10257764399E+03 -0.10807437397E+03 -0.99383488444E+02  0.19621228707E+03  0.80124530978E+02 0.  0.
          5    1    3    3  501    0 -0.13444774011E+03  0.12063319432E+03  0.18819882360E+03  0.26090122575E+03  0.47000000000E+01 0. -1.
        -13    1    4    4    0    0 -0.43316752449E+02 -0.39039650782E+01  0.76258798349E+01  0.44155815352E+02  0.00000000000E+00 0.  1.
         14    1    4    4    0    0 -0.61540144004E+02 -0.16102175494E+02  0.14202949933E+03  0.15562406003E+03  0.00000000000E+00 0. -1.
         -5    1    5    5    0  502  0.13672699257E+03  0.74473202221E+01 -0.14605519208E+03  0.20025968693E+03  0.47000000000E+01 0.  1.
         11    1    6    6    0    0  0.98304734129E+02 -0.63462003755E+02 -0.44098202756E+02  0.12504358504E+03  0.00000000000E+00 0. -1.
        -12    1    6    6    0    0  0.42729098646E+01 -0.44612370218E+02 -0.55285285688E+02  0.71168702031E+02  0.00000000000E+00 0.  1.
</event>
<event>
12    1  0.9873238E-001  0.2257022E+03  0.7818608E-02  0.1129726E+00
         21   -1    0    0  503  502  0.00000000000E+00  0.00000000000E+00  0.19664967768E+03  0.19664967768E+03  0.00000000000E+00 0. -1.
         21   -1    0    0  501  503 -0.00000000000E+00 -0.00000000000E+00 -0.28924812078E+03  0.28924812078E+03  0.00000000000E+00 0. -1.
          6    2    1    2  501    0  0.14123410574E+03 -0.37047721555E+02 -0.12499390752E+03  0.25788256818E+03  0.17193119483E+03 0.  0.
         24    2    3    3    0    0  0.24381664456E+02 -0.45799345548E+02 -0.10065805069E+03  0.13811025133E+03  0.79059172387E+02 0.  0.
         -6    2    1    2    0  502 -0.14123410574E+03  0.37047721555E+02  0.32395464421E+02  0.22801523029E+03  0.17211006023E+03 0.  0.
        -24    2    5    5    0    0 -0.96624081050E+02 -0.33214331668E+02 -0.30381314462E+01  0.13743686564E+03  0.91870870946E+02 0.  0.
          5    1    3    3  501    0  0.11685244128E+03  0.87516239931E+01 -0.24335856827E+02  0.11977231685E+03  0.47000000000E+01 0. -1.
        -13    1    4    4    0    0  0.13793292499E+02 -0.11351788772E+02  0.10865310168E+02  0.20908682200E+02  0.00000000000E+00 0.  1.
         14    1    4    4    0    0  0.10588371958E+02 -0.34447556777E+02 -0.11152336086E+03  0.11720156913E+03  0.00000000000E+00 0. -1.
         -5    1    5    5    0  502 -0.44610024687E+02  0.70262053223E+02  0.35433595867E+02  0.90578364645E+02  0.47000000000E+01 0.  1.
         13    1    6    6    0    0  0.16553494816E+02 -0.14639218668E+01  0.96343996234E+01  0.19208927975E+02  0.00000000000E+00 0. -1.
        -14    1    6    6    0    0 -0.11317757587E+03 -0.31750409801E+02 -0.12672531070E+02  0.11822793767E+03  0.00000000000E+00 0.  1.
</event>
<event>
12    1  0.9873238E-001  0.1960246E+03  0.7818608E-02  0.1153149E+00
         21   -1    0    0  503  502  0.00000000000E+00  0.00000000000E+00  0.19013972250E+04  0.19013972250E+04  0.00000000000E+00 0.  1.
         21   -1    0    0  501  503 -0.00000000000E+00 -0.00000000000E+00 -0.20524514465E+02  0.20524514465E+02  0.00000000000E+00 0.  1.
          6    2    1    2  501    0 -0.70891625720E+02 -0.60289471105E+02  0.82017006742E+03  0.84325786443E+03  0.17246577488E+03 0.  0.
         24    2    3    3    0    0  0.10130448445E+02 -0.63154283895E+02  0.59548278292E+03  0.60434522460E+03  0.80884585550E+02 0.  0.
         -6    2    1    2    0  502  0.70891625720E+02  0.60289471105E+02  0.10607026431E+04  0.10786638750E+04  0.17252598436E+03 0.  0.
        -24    2    5    5    0    0 -0.20779640823E+02  0.59275751143E+02  0.61250709470E+03  0.62116416098E+03  0.82064399655E+02 0.  0.
          5    1    3    3  501    0 -0.81022074165E+02  0.28648127901E+01  0.22468728450E+03  0.23891263983E+03  0.47000000000E+01 0. -1.
        -11    1    4    4    0    0  0.29843231834E+02 -0.29894068637E+02  0.49309160823E+03  0.49489757317E+03  0.00000000000E+00 0.  1.
         12    1    4    4    0    0 -0.19712783389E+02 -0.33260215258E+02  0.10239117470E+03  0.10944765143E+03  0.00000000000E+00 0. -1.
         -5    1    5    5    0  502  0.91671266543E+02  0.10137199620E+01  0.44819554842E+03  0.45749971405E+03  0.47000000000E+01 0.  1.
         11    1    6    6    0    0  0.93423011070E+01  0.55715194397E+02  0.53434624134E+03  0.53732426626E+03  0.00000000000E+00 0. -1.
        -12    1    6    6    0    0 -0.30121941930E+02  0.35605567456E+01  0.78160853353E+02  0.83839894721E+02  0.00000000000E+00 0.  1.
</event>
<event>
12    1  0.9873238E-001  0.1923088E+03  0.7818608E-02  0.1157005E+00
         21   -1    0    0  503  502  0.00000000000E+00  0.00000000000E+00  0.46088780990E+02  0.46088780990E+02  0.00000000000E+00 0.  1.
         21   -1    0    0  501  503 -0.00000000000E+00 -0.00000000000E+00 -0.88981482425E+03  0.88981482425E+03  0.00000000000E+00 0.  1.
          6    2    1    2  501    0  0.56408112940E+02 -0.56364564012E+02 -0.26331903602E+03  0.32446678781E+03  0.17199692550E+03 0.  0.
         24    2    3    3    0    0  0.71160454916E+02 -0.85040893361E+01 -0.77299569041E+02  0.13176601271E+03  0.79062815861E+02 0.  0.
         -6    2    1    2    0  502 -0.56408112940E+02  0.56364564012E+02 -0.58040700724E+03  0.61143681742E+03  0.17499670960E+03 0.  0.
        -24    2    5    5    0    0 -0.21629555654E+02  0.10003286548E+03 -0.32698958302E+03  0.35190079006E+03  0.80234448912E+02 0.  0.
          5    1    3    3  501    0 -0.14752341976E+02 -0.47860474676E+02 -0.18601946698E+03  0.19270077510E+03  0.47000000000E+01 0. -1.
        -11    1    4    4    0    0 -0.93488709283E+00  0.25274560590E+02 -0.89284751495E+01  0.26821541629E+02  0.00000000000E+00 0.  1.
         12    1    4    4    0    0  0.72095342009E+02 -0.33778649926E+02 -0.68371093891E+02  0.10494447108E+03  0.00000000000E+00 0. -1.
         -5    1    5    5    0  502 -0.34778557286E+02 -0.43668301468E+02 -0.25341742422E+03  0.25953602736E+03  0.47000000000E+01 0.  1.
         11    1    6    6    0    0 -0.15880585887E+02  0.10580962183E+03 -0.32666869227E+03  0.34374453245E+03  0.00000000000E+00 0. -1.
        -12    1    6    6    0    0 -0.57489697670E+01 -0.57767563538E+01 -0.32089074535E+00  0.81562576114E+01  0.00000000000E+00 0.  1.
</event>
<event>
12    1  0.9873238E-001  0.1785810E+03  0.7818608E-02  0.1169380E+00
         21   -1    0    0  503  502  0.00000000000E+00  0.00000000000E+00  0.29241929992E+03  0.29241929992E+03  0.00000000000E+00 0. -1.
         21   -1    0    0  501  503 -0.00000000000E+00 -0.00000000000E+00 -0.15179595373E+03  0.15179595373E+03  0.00000000000E+00 0. -1.
          6    2    1    2  501    0  0.41917953375E+02 -0.21940984624E+02  0.18872058362E+03  0.25927060545E+03  0.17136880272E+03 0.  0.
         24    2    3    3    0    0  0.22675158650E+02 -0.60631614027E+02  0.51311313354E+02  0.11515035181E+03  0.80227160025E+02 0.  0.
         -6    2    1    2    0  502 -0.41917953375E+02  0.21940984624E+02 -0.48097237430E+02  0.18494464820E+03  0.17219946872E+03 0.  0.
        -24    2    5    5    0    0 -0.26584635480E+02 -0.25499203748E+02  0.25399078135E+02  0.96009387973E+02  0.84945495311E+02 0.  0.
          5    1    3    3  501    0  0.19242794725E+02  0.38690629403E+02  0.13740927027E+03  0.14412025364E+03  0.47000000000E+01 0. -1.
        -13    1    4    4    0    0 -0.82291777559E+01 -0.36793469143E+02  0.63854509336E+02  0.74154413898E+02  0.00000000000E+00 0.  1.
         14    1    4    4    0    0  0.30904336406E+02 -0.23838144884E+02 -0.12543195982E+02  0.40995937916E+02  0.00000000000E+00 0. -1.
         -5    1    5    5    0  502 -0.15333317895E+02  0.47440188371E+02 -0.73496315565E+02  0.88935260229E+02  0.47000000000E+01 0.  1.
         11    1    6    6    0    0 -0.37515065206E+02 -0.43114581493E+02 -0.69660041796E+01  0.57574060730E+02  0.00000000000E+00 0. -1.
        -12    1    6    6    0    0  0.10930429726E+02  0.17615377745E+02  0.32365082315E+02  0.38435327244E+02  0.00000000000E+00 0.  1.
</event>
<event>
12    1  0.9873238E-001  0.2037173E+03  0.7818608E-02  0.1146685E+00
         21   -1    0    0  503  502  0.00000000000E+00  0.00000000000E+00  0.28285347225E+03  0.28285347225E+03  0.00000000000E+00 0. -1.
         21   -1    0    0  501  503 -0.00000000000E+00 -0.00000000000E+00 -0.18268908310E+03  0.18268908310E+03  0.00000000000E+00 0.  1.
          6    2    1    2  501    0  0.10903541596E+03  0.22571159746E+02  0.15361246092E+03  0.25514220823E+03  0.17059478035E+03 0.  0.
         24    2    3    3    0    0  0.13999653828E+03 -0.24077575987E+01  0.10590950476E+03  0.19285096139E+03  0.79811290443E+02 0.  0.
         -6    2    1    2    0  502 -0.10903541596E+03 -0.22571159746E+02 -0.53448071767E+02  0.21040034712E+03  0.17033329242E+03 0.  0.
        -24    2    5    5    0    0 -0.69348673292E+02 -0.77414309818E+02 -0.85475214967E+01  0.12903107732E+03  0.75985162615E+02 0.  0.
          5    1    3    3  501    0 -0.30961122313E+02  0.24978917344E+02  0.47702956160E+02  0.62291246841E+02  0.47000000000E+01 0. -1.
        -11    1    4    4    0    0  0.11690619307E+02 -0.23917316047E+02  0.26448899896E+01  0.26752645285E+02  0.00000000000E+00 0.  1.
         12    1    4    4    0    0  0.12830591897E+03  0.21509558448E+02  0.10326461477E+03  0.16609831610E+03  0.00000000000E+00 0. -1.
         -5    1    5    5    0  502 -0.39686742672E+02  0.54843150073E+02 -0.44900550271E+02  0.81369269804E+02  0.47000000000E+01 0.  1.
         13    1    6    6    0    0 -0.24970329903E+02 -0.43170458413E+02  0.32524351689E+02  0.59540232682E+02  0.00000000000E+00 0. -1.
        -14    1    6    6    0    0 -0.44378343389E+02 -0.34243851406E+02 -0.41071873185E+02  0.69490844635E+02  0.00000000000E+00 0.  1.
</event>
<event>
12    1  0.9873238E-001  0.2366004E+03  0.7818608E-02  0.1122195E+00
         21   -1    0    0  503  502  0.00000000000E+00  0.00000000000E+00  0.44660487793E+03  0.44660487793E+03  0.00000000000E+00 0.  1.
         21   -1    0    0  501  503 -0.00000000000E+00 -0.00000000000E+00 -0.13059830640E+03  0.13059830640E+03  0.00000000000E+00 0.  1.
          6    2    1    2  501    0 -0.16202002234E+03 -0.10579543369E+02  0.97941539603E+02  0.25543914303E+03  0.17115547387E+03 0.  0.
         24    2    3    3    0    0 -0.37993159237E+02  0.33781922802E+02 -0.30816746192E+00  0.91044199710E+02  0.75526504464E+02 0.  0.
         -6    2    1    2    0  502  0.16202002234E+03  0.10579543369E+02  0.21806503192E+03  0.32176404129E+03  0.17209684989E+03 0.  0.
        -24    2    5    5    0    0  0.14438132015E+03  0.49751875297E+02  0.10745047846E+03  0.20300687376E+03  0.79655324784E+02 0.  0.
          5    1    3    3  501    0 -0.12402686310E+03 -0.44361466172E+02  0.98249707065E+02  0.16439494332E+03  0.47000000000E+01 0. -1.
        -11    1    4    4    0    0 -0.51877938142E+02  0.47120139262E+02  0.70410138599E+01  0.70435813803E+02  0.00000000000E+00 0.  1.
         12    1    4    4    0    0  0.13884778905E+02 -0.13338216460E+02 -0.73491813218E+01  0.20608385906E+02  0.00000000000E+00 0. -1.
         -5    1    5    5    0  502  0.17638702191E+02 -0.39172331928E+02  0.11061455346E+03  0.11875716753E+03  0.47000000000E+01 0.  1.
         11    1    6    6    0    0  0.15276181300E+03  0.41112584144E+02  0.90615468209E+02  0.18231176365E+03  0.00000000000E+00 0. -1.
        -12    1    6    6    0    0 -0.83804928510E+01  0.86392911528E+01  0.16835010256E+02  0.20695110107E+02  0.00000000000E+00 0.  1.
</event>
<event>
12    1  0.9873238E-001  0.2161875E+03  0.7818608E-02  0.1136867E+00
         21   -1    0    0  501  502  0.00000000000E+00  0.00000000000E+00  0.15076606608E+03  0.15076606608E+03  0.00000000000E+00 0. -1.
         21   -1    0    0  502  503 -0.00000000000E+00 -0.00000000000E+00 -0.31131049049E+03  0.31131049049E+03  0.00000000000E+00 0. -1.
         -6    2    1    2    0  503  0.11404225526E+03  0.67180318324E+02 -0.99503456694E+02  0.23798736679E+03  0.17093337211E+03 0.  0.
        -24    2    3    3    0    0  0.39119660846E+02 -0.28347113884E+02 -0.30870917912E+02  0.98447405353E+02  0.80031064704E+02 0.  0.
          6    2    1    2  501    0 -0.11404225526E+03 -0.67180318324E+02 -0.61040967718E+02  0.22408918979E+03  0.17020908931E+03 0.  0.
         24    2    5    5    0    0 -0.21521671170E+00 -0.50005583542E+02 -0.37471329121E+02  0.10649163843E+03  0.86230875252E+02 0.  0.
          5    1    5    5  501    0 -0.11382703855E+03 -0.17174734782E+02 -0.23569638596E+02  0.11759755135E+03  0.47000000000E+01 0. -1.
        -13    1    6    6    0    0 -0.31144762518E+02 -0.57519389101E+02 -0.35921944696E+02  0.74624811327E+02  0.00000000000E+00 0.  1.
         14    1    6    6    0    0  0.30929545807E+02  0.75138055594E+01 -0.15493844253E+01  0.31866827107E+02  0.00000000000E+00 0. -1.
         -5    1    3    3    0  503  0.74922594417E+02  0.95527432208E+02 -0.68632538782E+02  0.13953996144E+03  0.47000000000E+01 0.  1.
         13    1    4    4    0    0 -0.23733671188E+02 -0.34131837580E+01  0.32438090619E+00  0.23980037415E+02  0.00000000000E+00 0. -1.
        -14    1    4    4    0    0  0.62853332034E+02 -0.24933930126E+02 -0.31195298818E+02  0.74467367938E+02  0.00000000000E+00 0.  1.
</event>
<event>
12    1  0.9873238E-001  0.2885181E+03  0.7818608E-02  0.1091426E+00
         21   -1    0    0  503  502  0.00000000000E+00  0.00000000000E+00  0.15978099258E+03  0.15978099258E+03  0.00000000000E+00 0. -1.
         21   -1    0    0  501  503 -0.00000000000E+00 -0.00000000000E+00 -0.52333232552E+03  0.52333232552E+03  0.00000000000E+00 0.  1.
          6    2    1    2  501    0 -0.16675041543E+03 -0.15578867791E+03 -0.14314314971E+03  0.32003967458E+03  0.17279935990E+03 0.  0.
         24    2    3    3    0    0 -0.18113813459E+03 -0.94280549780E+02 -0.12216774142E+03  0.25331401204E+03  0.86851515712E+02 0.  0.
         -6    2    1    2    0  502  0.16675041543E+03  0.15578867791E+03 -0.22040818322E+03  0.36307364352E+03  0.17654146872E+03 0.  0.
        -24    2    5    5    0    0  0.13224737541E+03  0.18274894946E+03 -0.21110017797E+03  0.31806203419E+03  0.75588528380E+02 0.  0.
          5    1    3    3  501    0  0.14387719154E+02 -0.61508128133E+02 -0.20975408297E+02  0.66725662546E+02  0.47000000000E+01 0. -1.
        -11    1    4    4    0    0 -0.12514691155E+03 -0.56263508235E+02 -0.12494876178E+03  0.18557889131E+03  0.00000000000E+00 0.  1.
         12    1    4    4    0    0 -0.55991223036E+02 -0.38017041546E+02  0.27810203655E+01  0.67735120722E+02  0.00000000000E+00 0. -1.
         -5    1    5    5    0  502  0.34503040028E+02 -0.26960271548E+02 -0.93080052535E+01  0.45011609335E+02  0.47000000000E+01 0.  1.
         13    1    6    6    0    0  0.56082316786E+02  0.22415296556E+02 -0.54659293398E+02  0.81457412987E+02  0.00000000000E+00 0. -1.
        -14    1    6    6    0    0  0.76165058620E+02  0.16033365291E+03 -0.15644088457E+03  0.23660462120E+03  0.00000000000E+00 0.  1.
</event>
<event>
12    1  0.9873238E-001  0.2130461E+03  0.7818608E-02  0.1140660E+00
         21   -1    0    0  501  502  0.00000000000E+00  0.00000000000E+00  0.67944460282E+03  0.67944460282E+03  0.00000000000E+00 0. -1.
         21   -1    0    0  502  503 -0.00000000000E+00 -0.00000000000E+00 -0.10791158453E+03  0.10791158453E+03  0.00000000000E+00 0. -1.
         -6    2    1    2    0  503  0.48552816585E+02  0.10141122166E+03  0.53856446316E+03  0.57917211283E+03  0.18096144179E+03 0.  0.
        -24    2    3    3    0    0  0.66899835357E+01  0.10015754002E+03  0.19733212882E+03  0.23534706355E+03  0.79824698896E+02 0.  0.
          6    2    1    2  501    0 -0.48552816585E+02 -0.10141122166E+03  0.32968555134E+02  0.20818407452E+03  0.17208158350E+03 0.  0.
         24    2    5    5    0    0  0.75878544130E+01 -0.11748719830E+03  0.27579674485E+01  0.14226760030E+03  0.79822593378E+02 0.  0.
          5    1    5    5  501    0 -0.56140670998E+02  0.16075976634E+02  0.30210587685E+02  0.65916474217E+02  0.47000000000E+01 0. -1.
        -13    1    6    6    0    0  0.32364071376E+02 -0.37622736190E+02  0.25241994215E+02  0.55678197406E+02  0.00000000000E+00 0.  1.
         14    1    6    6    0    0 -0.24776216963E+02 -0.79864462108E+02 -0.22484026766E+02  0.86589402899E+02  0.00000000000E+00 0. -1.
         -5    1    3    3    0  503  0.41862833050E+02  0.12536816398E+01  0.34123233434E+03  0.34382504927E+03  0.47000000000E+01 0.  1.
         11    1    4    4    0    0 -0.15892041967E+02  0.73935932244E+02  0.18277929640E+03  0.19780634537E+03  0.00000000000E+00 0. -1.
        -12    1    4    4    0    0  0.22582025503E+02  0.26221607780E+02  0.14552832421E+02  0.37540718185E+02  0.00000000000E+00 0.  1.
</event>
<event>
12    1  0.9873238E-001  0.2271188E+03  0.7818608E-02  0.1129105E+00
         21   -1    0    0  503  502  0.00000000000E+00  0.00000000000E+00  0.21390308527E+03  0.21390308527E+03  0.00000000000E+00 0.  1.
         21   -1    0    0  501  503 -0.00000000000E+00 -0.00000000000E+00 -0.33734913194E+03  0.33734913194E+03  0.00000000000E+00 0.  1.
          6    2    1    2  501    0  0.31243394722E+02 -0.14462073840E+03 -0.21101381258E+03  0.31001574314E+03  0.17231257704E+03 0.  0.
         24    2    3    3    0    0  0.22453542124E+01 -0.13866012564E+02 -0.11157669860E+03  0.14313999799E+03  0.88557277705E+02 0.  0.
         -6    2    1    2    0  502 -0.31243394722E+02  0.14462073840E+03  0.87567765904E+02  0.24123647407E+03  0.16922061077E+03 0.  0.
        -24    2    5    5    0    0 -0.73718132762E+02  0.75273922077E+02  0.88578813618E+02  0.15977362043E+03  0.81122605494E+02 0.  0.
          5    1    3    3  501    0  0.28998040509E+02 -0.13075472583E+03 -0.99437113978E+02  0.16687574514E+03  0.47000000000E+01 0. -1.
        -11    1    4    4    0    0  0.40535666779E+02  0.62384606032E+01 -0.78945261440E+02  0.88962986549E+02  0.00000000000E+00 0.  1.
         12    1    4    4    0    0 -0.38290312566E+02 -0.20104473167E+02 -0.32631437162E+02  0.54177011444E+02  0.00000000000E+00 0. -1.
         -5    1    5    5    0  502  0.42474738041E+02  0.69346816319E+02 -0.10110477133E+01  0.81462853637E+02  0.47000000000E+01 0.  1.
         13    1    6    6    0    0 -0.77054429414E+02  0.80189161923E+02  0.52090988210E+02  0.12280536566E+03  0.00000000000E+00 0. -1.
        -14    1    6    6    0    0  0.33362966517E+01 -0.49152398462E+01  0.36487825407E+02  0.36968254774E+02  0.00000000000E+00 0.  1.
</event>
<event>
12    1  0.9873238E-001  0.2165837E+03  0.7818608E-02  0.1136975E+00
         21   -1    0    0  501  502  0.00000000000E+00  0.00000000000E+00  0.21128840373E+03  0.21128840373E+03  0.00000000000E+00 0. -1.
         21   -1    0    0  502  503 -0.00000000000E+00 -0.00000000000E+00 -0.42036500244E+03  0.42036500244E+03  0.00000000000E+00 0. -1.
         -6    2    1    2    0  503 -0.62792560014E+02  0.10915276191E+03 -0.32265086468E+03  0.38709746791E+03  0.17286884670E+03 0.  0.
        -24    2    3    3    0    0 -0.88727524723E+02  0.34635224933E+02 -0.13544844917E+03  0.18389234966E+03  0.79987132905E+02 0.  0.
          6    2    1    2  501    0  0.62792560014E+02 -0.10915276191E+03  0.11357426596E+03  0.24455593826E+03  0.17621368285E+03 0.  0.
         24    2    5    5    0    0  0.43192020036E+02 -0.13143689263E+03  0.39805284112E+02  0.16490221058E+03  0.80418101651E+02 0.  0.
          5    1    5    5  501    0  0.19600539978E+02  0.22284130720E+02  0.73768981851E+02  0.79653727676E+02  0.47000000000E+01 0. -1.
        -13    1    6    6    0    0  0.24603611582E+01 -0.11018887480E+03  0.44206393877E+02  0.11875119690E+03  0.00000000000E+00 0.  1.
         14    1    6    6    0    0  0.40731658878E+02 -0.21248017836E+02 -0.44011097650E+01  0.46151013684E+02  0.00000000000E+00 0. -1.
         -5    1    3    3    0  503  0.25934964709E+02  0.74517536978E+02 -0.18720241551E+03  0.20320511826E+03  0.47000000000E+01 0.  1.
         13    1    4    4    0    0 -0.56628456346E+01 -0.21746138702E+02 -0.14660529291E+02  0.26830830927E+02  0.00000000000E+00 0. -1.
        -14    1    4    4    0    0 -0.83064679089E+02  0.56381363635E+02 -0.12078791988E+03  0.15706151873E+03  0.00000000000E+00 0.  1.
</event>
<event>
12    1  0.9873238E-001  0.3585364E+03  0.7818608E-02  0.1059281E+00
         21   -1    0    0  503  502  0.00000000000E+00  0.00000000000E+00  0.11600016114E+04  0.11600016114E+04  0.00000000000E+00 0.  1.
         21   -1    0    0  501  503 -0.00000000000E+00 -0.00000000000E+00 -0.18728991346E+03  0.18728991346E+03  0.00000000000E+00 0.  1.
          6    2    1    2  501    0  0.26329689524E+03  0.17015821951E+03  0.91828453868E+03  0.98579653850E+03  0.17398059269E+03 0.  0.
         24    2    3    3    0    0  0.19515241515E+03  0.47803895771E+02  0.50463761585E+03  0.54905849634E+03  0.80227373655E+02 0.  0.
         -6    2    1    2    0  502 -0.26329689524E+03 -0.17015821951E+03  0.54427159295E+02  0.36149498639E+03  0.17157282655E+03 0.  0.
        -24    2    5    5    0    0 -0.25625675744E+03 -0.10045881063E+03  0.36368688970E+02  0.28899830034E+03  0.80236137071E+02 0.  0.
          5    1    3    3  501    0  0.68144480087E+02  0.12235432373E+03  0.41364692283E+03  0.43673804216E+03  0.47000000000E+01 0. -1.
        -13    1    4    4    0    0  0.36217477038E+02 -0.22371677852E+02  0.10352432112E+03  0.11193517176E+03  0.00000000000E+00 0.  1.
         14    1    4    4    0    0  0.15893493811E+03  0.70175573623E+02  0.40111329473E+03  0.43712332459E+03  0.00000000000E+00 0. -1.
         -5    1    5    5    0  502 -0.70401377933E+01 -0.69699408880E+02  0.18058470326E+02  0.72496686054E+02  0.47000000000E+01 0.  1.
         11    1    6    6    0    0 -0.14542228461E+03 -0.97219648373E+02  0.11129351018E+02  0.17528024231E+03  0.00000000000E+00 0. -1.
        -12    1    6    6    0    0 -0.11083447284E+03 -0.32391622519E+01  0.25239337951E+02  0.11371805803E+03  0.00000000000E+00 0.  1.
</event>
<event>
12    1  0.9873238E-001  0.2252509E+03  0.7818608E-02  0.1130030E+00
         21   -1    0    0  503  502  0.00000000000E+00  0.00000000000E+00  0.21089266149E+03  0.21089266149E+03  0.00000000000E+00 0.  1.
         21   -1    0    0  501  503 -0.00000000000E+00 -0.00000000000E+00 -0.25438259832E+03  0.25438259832E+03  0.00000000000E+00 0.  1.
          6    2    1    2  501    0  0.14591084314E+03  0.12248601191E+02 -0.75947571493E+02  0.23769792026E+03  0.17114983291E+03 0.  0.
         24    2    3    3    0    0  0.10340424996E+03  0.39520216680E+02 -0.10315791699E+03  0.18013886904E+03  0.97745433992E+02 0.  0.
         -6    2    1    2    0  502 -0.14591084314E+03 -0.12248601191E+02  0.32457634665E+02  0.22757733955E+03  0.17116642502E+03 0.  0.
        -24    2    5    5    0    0 -0.15887461334E+03  0.94083781831E+01  0.61362716063E+02  0.18891627614E+03  0.81205394671E+02 0.  0.
          5    1    3    3  501    0  0.42506593185E+02 -0.27271615489E+02  0.27210345496E+02  0.57559051222E+02  0.47000000000E+01 0. -1.
        -13    1    4    4    0    0  0.70374193097E+02 -0.22621167248E+02 -0.71949478562E+02  0.10315508580E+03  0.00000000000E+00 0.  1.
         14    1    4    4    0    0  0.33030056859E+02  0.62141383927E+02 -0.31208438427E+02  0.76983783238E+02  0.00000000000E+00 0. -1.
         -5    1    5    5    0  502  0.12963770204E+02 -0.21656979374E+02 -0.28905081397E+02  0.38661063411E+02  0.47000000000E+01 0.  1.
         11    1    6    6    0    0 -0.60623037240E+02 -0.24874911742E+01 -0.16627192962E+02  0.62911078534E+02  0.00000000000E+00 0. -1.
        -12    1    6    6    0    0 -0.98251576105E+02  0.11895869357E+02  0.77989909025E+02  0.12600519761E+03  0.00000000000E+00 0.  1.
</event>
<event>
12    1  0.9873238E-001  0.1974345E+03  0.7818608E-02  0.1152073E+00
         21   -1    0    0  503  502  0.00000000000E+00  0.00000000000E+00  0.56839474713E+02  0.56839474713E+02  0.00000000000E+00 0. -1.
         21   -1    0    0  501  503 -0.00000000000E+00 -0.00000000000E+00 -0.86762513915E+03  0.86762513915E+03  0.00000000000E+00 0. -1.
          6    2    1    2  501    0 -0.89233344586E+02  0.38154643182E+02 -0.19180230344E+03  0.27475638811E+03  0.17112738712E+03 0.  0.
         24    2    3    3    0    0 -0.93406757329E+02  0.79703918527E+02 -0.17806518707E+03  0.23054600447E+03  0.79791681197E+02 0.  0.
         -6    2    1    2    0  502  0.89233344586E+02 -0.38154643182E+02 -0.61898336100E+03  0.64970822575E+03  0.17193606612E+03 0.  0.
        -24    2    5    5    0    0 -0.19907544129E+02 -0.31368454250E+02 -0.21294006754E+03  0.22917162555E+03  0.76130620358E+02 0.  0.
          5    1    3    3  501    0  0.41734127429E+01 -0.41549275345E+02 -0.13737116368E+02  0.44210383641E+02  0.47000000000E+01 0. -1.
        -11    1    4    4    0    0 -0.10083613551E+03  0.61555507422E+02 -0.11644565311E+03  0.16588127335E+03  0.00000000000E+00 0.  1.
         12    1    4    4    0    0  0.74293781837E+01  0.18148411105E+02 -0.61619533964E+02  0.64664731127E+02  0.00000000000E+00 0. -1.
         -5    1    5    5    0  502  0.10914088872E+03 -0.67861889327E+01 -0.40604329346E+03  0.42053660021E+03  0.47000000000E+01 0.  1.
         11    1    6    6    0    0 -0.93379181744E+01 -0.11850683529E+01  0.37514857625E+01  0.10132854892E+02  0.00000000000E+00 0. -1.
        -12    1    6    6    0    0 -0.10569625955E+02 -0.30183385897E+02 -0.21669155330E+03  0.21903877066E+03  0.00000000000E+00 0.  1.
</event>
<event>
12    1  0.9873238E-001  0.2127322E+03  0.7818608E-02  0.1139550E+00
         21   -1    0    0  501  502  0.00000000000E+00  0.00000000000E+00  0.11017408895E+04  0.11017408895E+04  0.00000000000E+00 0.  1.
         21   -1    0    0  502  503 -0.00000000000E+00 -0.00000000000E+00 -0.59014631467E+02  0.59014631467E+02  0.00000000000E+00 0. -1.
         -6    2    1    2    0  503  0.15557564417E+02  0.12192150791E+03  0.20080500644E+03  0.29253653089E+03  0.17363202295E+03 0.  0.
        -24    2    3    3    0    0 -0.27985914053E+02  0.80735865403E+01  0.11747104916E+03  0.14480697341E+03  0.79506087642E+02 0.  0.
          6    2    1    2  501    0 -0.15557564417E+02 -0.12192150791E+03  0.84192125156E+03  0.86821899004E+03  0.17281761756E+03 0.  0.
         24    2    5    5    0    0  0.19174243127E+02 -0.59512355772E+02  0.71930261953E+03  0.72623793621E+03  0.78204280193E+02 0.  0.
          5    1    5    5  501    0 -0.34731807545E+02 -0.62409152140E+02  0.12261863203E+03  0.14198105383E+03  0.47000000000E+01 0. -1.
        -13    1    6    6    0    0 -0.30813355168E+01 -0.68810863663E+02  0.38863344283E+03  0.39469023610E+03  0.00000000000E+00 0.  1.
         14    1    6    6    0    0  0.22255578644E+02  0.92985078907E+01  0.33066917669E+03  0.33154770011E+03  0.00000000000E+00 0. -1.
         -5    1    3    3    0  503  0.43543478471E+02  0.11384792137E+03  0.83333957283E+02  0.14772955748E+03  0.47000000000E+01 0.  1.
         11    1    4    4    0    0 -0.16428931522E+02  0.35174994297E+02  0.10652123944E+03  0.11337532566E+03  0.00000000000E+00 0. -1.
        -12    1    4    4    0    0 -0.11556982532E+02 -0.27101407757E+02  0.10949809714E+02  0.31431647752E+02  0.00000000000E+00 0.  1.
</event>
<event>
12    1  0.9873238E-001  0.3223934E+03  0.7818608E-02  0.1075143E+00
         21   -1    0    0  501  502  0.00000000000E+00  0.00000000000E+00  0.20950038175E+03  0.20950038175E+03  0.00000000000E+00 0.  1.
         21   -1    0    0  502  503 -0.00000000000E+00 -0.00000000000E+00 -0.15567287807E+04  0.15567287807E+04  0.00000000000E+00 0.  1.
         -6    2    1    2    0  503 -0.19975176253E+03 -0.17623676617E+03  0.56314998580E+02  0.32727491220E+03  0.18159659884E+03 0.  0.
        -24    2    3    3    0    0 -0.17023474943E+03 -0.20198779863E+03  0.71525580145E+02  0.28499227361E+03  0.79534562892E+02 0.  0.
          6    2    1    2  501    0  0.19975176253E+03  0.17623676617E+03 -0.14035433975E+04  0.14389542502E+04  0.17232266585E+03 0.  0.
         24    2    5    5    0    0  0.16333058579E+03  0.88652592076E+02 -0.71910967564E+03  0.74796286149E+03  0.88281109202E+02 0.  0.
          5    1    5    5  501    0  0.36421176740E+02  0.87584174091E+02 -0.68443372185E+03  0.69099138871E+03  0.47000000000E+01 0. -1.
        -11    1    6    6    0    0  0.31121423702E+01  0.26379657612E+02 -0.18437928222E+03  0.18628282658E+03  0.00000000000E+00 0.  1.
         12    1    6    6    0    0  0.16021844342E+03  0.62272934464E+02 -0.53473039342E+03  0.56168003492E+03  0.00000000000E+00 0. -1.
         -5    1    3    3    0  503 -0.29517013094E+02  0.25751032458E+02 -0.15210581565E+02  0.42282638590E+02  0.47000000000E+01 0.  1.
         13    1    4    4    0    0 -0.41659368582E+02 -0.21402018657E+02 -0.11578423763E+02  0.48245303295E+02  0.00000000000E+00 0. -1.
        -14    1    4    4    0    0 -0.12857538085E+03 -0.18058577997E+03  0.83104003908E+02  0.23674697032E+03  0.00000000000E+00 0.  1.
</event>
<event>
12    1  0.9873238E-001  0.1958407E+03  0.7818608E-02  0.1153584E+00
         21   -1    0    0  503  502  0.00000000000E+00  0.00000000000E+00  0.26508487341E+04  0.26508487341E+04  0.00000000000E+00 0. -1.
         21   -1    0    0  501  503 -0.00000000000E+00 -0.00000000000E+00 -0.14584316050E+02  0.14584316050E+02  0.00000000000E+00 0. -1.
          6    2    1    2  501    0  0.12646082704E+02  0.88301875557E+02  0.14749681533E+04  0.14877392829E+04  0.17285825487E+03 0.  0.
         24    2    3    3    0    0  0.31298487871E+02  0.12444704343E+03  0.12365152985E+04  0.12457966465E+04  0.81071197774E+02 0.  0.
         -6    2    1    2    0  502 -0.12646082704E+02 -0.88301875557E+02  0.11612962648E+04  0.11776937672E+04  0.17434577725E+03 0.  0.
        -24    2    5    5    0    0  0.59275696545E+02 -0.76112200062E+02  0.61107393287E+03  0.62263698175E+03  0.70418636871E+02 0.  0.
          5    1    3    3  501    0 -0.18652405167E+02 -0.36145167870E+02  0.23845285480E+03  0.24194263647E+03  0.47000000000E+01 0. -1.
        -11    1    4    4    0    0  0.46483103418E+02  0.41973286332E+02  0.37327670247E+03  0.37849429622E+03  0.00000000000E+00 0.  1.
         12    1    4    4    0    0 -0.15184615548E+02  0.82473757095E+02  0.86323859598E+03  0.86730235025E+03  0.00000000000E+00 0. -1.
         -5    1    5    5    0  502 -0.71921779248E+02 -0.12189675495E+02  0.55022233195E+03  0.55505678547E+03  0.47000000000E+01 0.  1.
         13    1    6    6    0    0  0.51637544294E+02 -0.58230138818E+02  0.26957418753E+03  0.28058408299E+03  0.00000000000E+00 0. -1.
        -14    1    6    6    0    0  0.76381522506E+01 -0.17882061244E+02  0.34149974534E+03  0.34205289876E+03  0.00000000000E+00 0.  1.
</event>
<event>
12    1  0.9873238E-001  0.1973903E+03  0.7818608E-02  0.1152064E+00
         21   -1    0    0  503  502  0.00000000000E+00  0.00000000000E+00  0.14244079328E+04  0.14244079328E+04  0.00000000000E+00 0.  1.
         21   -1    0    0  501  503 -0.00000000000E+00 -0.00000000000E+00 -0.35718599570E+02  0.35718599570E+02  0.00000000000E+00 0.  1.
          6    2    1    2  501    0  0.74972766836E+02 -0.59980430282E+02  0.10484070374E+04  0.10667374349E+04  0.17190948567E+03 0.  0.
         24    2    3    3    0    0  0.10180680542E+03 -0.94230017353E+00  0.65934402184E+03  0.67227870896E+03  0.82816724272E+02 0.  0.
         -6    2    1    2    0  502 -0.74972766836E+02  0.59980430282E+02  0.34028229582E+03  0.39338909742E+03  0.17246557144E+03 0.  0.
        -24    2    5    5    0    0 -0.36775023903E+02  0.99154557756E+02  0.17763093872E+03  0.22171721912E+03  0.80135798237E+02 0.  0.
          5    1    3    3  501    0 -0.26834038588E+02 -0.59038130109E+02  0.38906301554E+03  0.39445872597E+03  0.47000000000E+01 0. -1.
        -11    1    4    4    0    0  0.50887229399E+02 -0.11280249644E+02  0.53475867860E+03  0.53729284239E+03  0.00000000000E+00 0.  1.
         12    1    4    4    0    0  0.50919576025E+02  0.10337949470E+02  0.12458534324E+03  0.13498586657E+03  0.00000000000E+00 0. -1.
         -5    1    5    5    0  502 -0.38197742934E+02 -0.39174127474E+02  0.16265135710E+03  0.17167187829E+03  0.47000000000E+01 0.  1.
         13    1    6    6    0    0 -0.24230114568E+02  0.68149368342E+02  0.17355441389E+03  0.18802278968E+03  0.00000000000E+00 0. -1.
        -14    1    6    6    0    0 -0.12544909335E+02  0.31005189414E+02  0.40765248241E+01  0.33694429442E+02  0.00000000000E+00 0.  1.
</event>
<event>
12    1  0.9873238E-001  0.1845992E+03  0.7818608E-02  0.1163427E+00
         21   -1    0    0  501  502  0.00000000000E+00  0.00000000000E+00  0.10444616229E+03  0.10444616229E+03  0.00000000000E+00 0.  1.
         21   -1    0    0  502  503 -0.00000000000E+00 -0.00000000000E+00 -0.33148036282E+03  0.33148036282E+03  0.00000000000E+00 0.  1.
         -6    2    1    2    0  503  0.65014248158E+02  0.13371341191E+02 -0.86119205217E+02  0.20368979847E+03  0.17224218783E+03 0.  0.
        -24    2    3    3    0    0  0.34734503400E+02 -0.49728539273E+02 -0.96719252943E+01  0.99936560142E+02  0.78831190334E+02 0.  0.
          6    2    1    2  501    0 -0.65014248158E+02 -0.13371341191E+02 -0.14091499532E+03  0.23223672663E+03  0.17225334848E+03 0.  0.
         24    2    5    5    0    0 -0.30858594476E+02  0.56606205103E+02 -0.10283499474E+03  0.14542865035E+03  0.80112052097E+02 0.  0.
          5    1    5    5  501    0 -0.34155653682E+02 -0.69977546294E+02 -0.38080000577E+02  0.86808076282E+02  0.47000000000E+01 0. -1.
        -13    1    6    6    0    0 -0.64361799124E+01 -0.20293229637E+02 -0.29620395640E+02  0.36477491948E+02  0.00000000000E+00 0.  1.
         14    1    6    6    0    0 -0.24422414563E+02  0.76899434740E+02 -0.73214599099E+02  0.10895115840E+03  0.00000000000E+00 0. -1.
         -5    1    3    3    0  503  0.30279744758E+02  0.63099880463E+02 -0.76447279922E+02  0.10375323833E+03  0.47000000000E+01 0.  1.
         13    1    4    4    0    0  0.27049467015E+02 -0.18145706283E+02  0.32951847911E+02  0.46333191160E+02  0.00000000000E+00 0. -1.
        -14    1    4    4    0    0  0.76850363852E+01 -0.31582832990E+02 -0.42623773206E+02  0.53603368982E+02  0.00000000000E+00 0.  1.
</event>
<event>
12    1  0.9873238E-001  0.1865980E+03  0.7818608E-02  0.1164723E+00
         21   -1    0    0  501  502  0.00000000000E+00  0.00000000000E+00  0.67692019103E+03  0.67692019103E+03  0.00000000000E+00 0.  1.
         21   -1    0    0  502  503 -0.00000000000E+00 -0.00000000000E+00 -0.51805829575E+02  0.51805829575E+02  0.00000000000E+00 0.  1.
         -6    2    1    2    0  503  0.83998567994E+01 -0.63333347554E+01  0.42340802184E+03  0.46270204770E+03  0.18630127017E+03 0.  0.
        -24    2    3    3    0    0 -0.27023335179E+02 -0.34909848590E+02  0.12984136515E+03  0.16559113980E+03  0.92804565105E+02 0.  0.
          6    2    1    2  501    0 -0.83998567994E+01  0.63333347554E+01  0.20170633962E+03  0.26602397291E+03  0.17312607543E+03 0.  0.
         24    2    5    5    0    0 -0.36813613436E+02 -0.47174242062E+02  0.17057235077E+03  0.19774646852E+03  0.80175356052E+02 0.  0.
          5    1    5    5  501    0  0.28413756636E+02  0.53507576818E+02  0.31133988848E+02  0.68277504383E+02  0.47000000000E+01 0. -1.
        -11    1    6    6    0    0 -0.89613231763E+01  0.22565300821E+02  0.32426361431E+02  0.40508851253E+02  0.00000000000E+00 0.  1.
         12    1    6    6    0    0 -0.27852290259E+02 -0.69739542884E+02  0.13814598934E+03  0.15723761727E+03  0.00000000000E+00 0. -1.
         -5    1    3    3    0  503  0.35423191978E+02  0.28576513834E+02  0.29356665669E+03  0.29711090790E+03  0.47000000000E+01 0.  1.
         13    1    4    4    0    0 -0.58131508568E+02 -0.35655487748E+02  0.10741653214E+03  0.12723559829E+03  0.00000000000E+00 0. -1.
        -14    1    4    4    0    0  0.31108173389E+02  0.74563915793E+00  0.22424833011E+02  0.38355541515E+02  0.00000000000E+00 0.  1.
</event>
<event>
12    1  0.9873238E-001  0.1725003E+03  0.7818608E-02  0.1175310E+00
         21   -1    0    0  501  502  0.00000000000E+00  0.00000000000E+00  0.55368518711E+02  0.55368518711E+02  0.00000000000E+00 0.  1.
         21   -1    0    0  502  503 -0.00000000000E+00 -0.00000000000E+00 -0.55692166329E+03  0.55692166329E+03  0.00000000000E+00 0.  1.
         -6    2    1    2    0  503  0.46289142537E+01  0.58714977168E+01 -0.30873516898E+03  0.35357196925E+03  0.17216222449E+03 0.  0.
        -24    2    3    3    0    0 -0.22591340091E+02 -0.50271841121E+01 -0.31404371723E+03  0.32340585918E+03  0.73703813988E+02 0.  0.
          6    2    1    2  501    0 -0.46289142537E+01 -0.58714977168E+01 -0.19281797560E+03  0.25871821275E+03  0.17233815759E+03 0.  0.
         24    2    5    5    0    0 -0.62817345631E+02  0.24952571131E+02 -0.10552927300E+03  0.14927679295E+03  0.81107852488E+02 0.  0.
          5    1    5    5  501    0  0.58188431378E+02 -0.30824068848E+02 -0.87288702598E+02  0.10944141980E+03  0.47000000000E+01 0. -1.
        -13    1    6    6    0    0 -0.47092994127E+02  0.53067633582E+02 -0.56911002313E+02  0.90954857012E+02  0.00000000000E+00 0.  1.
         14    1    6    6    0    0 -0.15724351505E+02 -0.28115062451E+02 -0.48618270692E+02  0.58321935941E+02  0.00000000000E+00 0. -1.
         -5    1    3    3    0  503  0.27220254345E+02  0.10898681829E+02  0.53085482472E+01  0.30166110069E+02  0.47000000000E+01 0.  1.
         13    1    4    4    0    0  0.16758842842E+02 -0.17331661941E+02 -0.21171958659E+03  0.21308784260E+03  0.00000000000E+00 0. -1.
        -14    1    4    4    0    0 -0.39350182933E+02  0.12304477829E+02 -0.10232413064E+03  0.11031801658E+03  0.00000000000E+00 0.  1.
</event>
<event>
12    1  0.9873238E-001  0.2067203E+03  0.7818608E-02  0.1144202E+00
         21   -1    0    0  501  502  0.00000000000E+00  0.00000000000E+00  0.12214168052E+03  0.12214168052E+03  0.00000000000E+00 0.  1.
         21   -1    0    0  502  503 -0.00000000000E+00 -0.00000000000E+00 -0.42249580357E+03  0.42249580357E+03  0.00000000000E+00 0.  1.
         -6    2    1    2    0  503  0.11173263955E+03  0.22247907296E+02 -0.37173365373E+02  0.20997737424E+03  0.17242240712E+03 0.  0.
        -24    2    3    3    0    0  0.44867779180E+02  0.18331889076E+02  0.44345074673E+02  0.10436681218E+03  0.81097287691E+02 0.  0.
          6    2    1    2  501    0 -0.11173263955E+03 -0.22247907296E+02 -0.26318075768E+03  0.33466010986E+03  0.17249384278E+03 0.  0.
         24    2    5    5    0    0  0.10772234230E+02 -0.79481982597E+01 -0.86395012187E+02  0.11905116851E+03  0.80807596845E+02 0.  0.
          5    1    5    5  501    0 -0.12250487378E+03 -0.14299709036E+02 -0.17678574549E+03  0.21560894134E+03  0.47000000000E+01 0. -1.
        -13    1    6    6    0    0 -0.22187477428E+02 -0.26271194007E+02 -0.13428337009E+02  0.36915850579E+02  0.00000000000E+00 0.  1.
         14    1    6    6    0    0  0.32959711658E+02  0.18322995747E+02 -0.72966675178E+02  0.82135317934E+02  0.00000000000E+00 0. -1.
         -5    1    3    3    0  503  0.66864860366E+02  0.39160182199E+01 -0.81518440047E+02  0.10561056206E+03  0.47000000000E+01 0.  1.
         13    1    4    4    0    0  0.43958056216E+02 -0.20914645928E+01 -0.11004188791E+02  0.45362728108E+02  0.00000000000E+00 0. -1.
        -14    1    4    4    0    0  0.90972296366E+00  0.20423353669E+02  0.55349263464E+02  0.59004084070E+02  0.00000000000E+00 0.  1.
</event>
<event>
12    1  0.9873238E-001  0.2447165E+03  0.7818608E-02  0.1116824E+00
         21   -1    0    0  503  502  0.00000000000E+00  0.00000000000E+00  0.52519087799E+03  0.52519087799E+03  0.00000000000E+00 0.  1.
         21   -1    0    0  501  503 -0.00000000000E+00 -0.00000000000E+00 -0.13028503549E+03  0.13028503549E+03  0.00000000000E+00 0. -1.
          6    2    1    2  501    0 -0.81646449459E+02  0.15321530982E+03  0.80616483112E+02  0.25765322765E+03  0.17246766217E+03 0.  0.
         24    2    3    3    0    0 -0.96577849245E+02  0.17582625292E+03  0.79678009788E+02  0.23013646585E+03  0.79825155738E+02 0.  0.
         -6    2    1    2    0  502  0.81646449459E+02 -0.15321530982E+03  0.31428935940E+03  0.39782268583E+03  0.17130094588E+03 0.  0.
        -24    2    5    5    0    0  0.23836712336E+02 -0.84965202873E+01  0.47069718899E+02  0.88446022171E+02  0.70475248766E+02 0.  0.
          5    1    3    3  501    0  0.14931399786E+02 -0.22610943102E+02  0.93847332371E+00  0.27516761795E+02  0.47000000000E+01 0. -1.
        -13    1    4    4    0    0 -0.18372872212E+02  0.98870750065E+02  0.64256561435E+02  0.11933940397E+03  0.00000000000E+00 0.  1.
         14    1    4    4    0    0 -0.78204977033E+02  0.76955502860E+02  0.15421448354E+02  0.11079706189E+03  0.00000000000E+00 0. -1.
         -5    1    5    5    0  502  0.57809737123E+02 -0.14471878954E+03  0.26721964050E+03  0.30937666366E+03  0.47000000000E+01 0.  1.
         11    1    6    6    0    0  0.36004689244E+02  0.19385650824E+02  0.40023445412E+02  0.57219029073E+02  0.00000000000E+00 0. -1.
        -12    1    6    6    0    0 -0.12167976908E+02 -0.27882171111E+02  0.70462734870E+01  0.31226993098E+02  0.00000000000E+00 0.  1.
</event>
<event>
12    1  0.9873238E-001  0.1996002E+03  0.7818608E-02  0.1150259E+00
         21   -1    0    0  503  502  0.00000000000E+00  0.00000000000E+00  0.44863832690E+03  0.44863832690E+03  0.00000000000E+00 0. -1.
         21   -1    0    0  501  503 -0.00000000000E+00 -0.00000000000E+00 -0.95571911740E+02  0.95571911740E+02  0.00000000000E+00 0. -1.
          6    2    1    2  501    0  0.97746019866E+02  0.25316646189E+02  0.10174335680E+03  0.22326864669E+03  0.17117815563E+03 0.  0.
         24    2    3    3    0    0 -0.12084738939E+02 -0.68719174046E+01  0.22636452687E+02  0.84060559692E+02  0.79752771371E+02 0.  0.
         -6    2    1    2    0  502 -0.97746019866E+02 -0.25316646189E+02  0.25132305836E+03  0.32094159195E+03  0.17217725985E+03 0.  0.
        -24    2    5    5    0    0 -0.72441892350E+02  0.33184617486E+02  0.22524549342E+03  0.25191387206E+03  0.79849984497E+02 0.  0.
          5    1    3    3  501    0  0.10983075880E+03  0.32188563593E+02  0.79106904115E+02  0.13920808699E+03  0.47000000000E+01 0. -1.
        -13    1    4    4    0    0  0.23739348661E+01 -0.91340730555E+01  0.51148585614E+02  0.52011966581E+02  0.00000000000E+00 0.  1.
         14    1    4    4    0    0 -0.14458673805E+02  0.22621556509E+01 -0.28512132926E+02  0.32048593111E+02  0.00000000000E+00 0. -1.
         -5    1    5    5    0  502 -0.25304127516E+02 -0.58501263674E+02  0.26077564934E+02  0.69027719894E+02  0.47000000000E+01 0.  1.
         13    1    6    6    0    0  0.20760411238E+01  0.12461696418E+02  0.12331285025E+03  0.12395831098E+03  0.00000000000E+00 0. -1.
        -14    1    6    6    0    0 -0.74517933474E+02  0.20722921068E+02  0.10193264317E+03  0.12795556107E+03  0.00000000000E+00 0.  1.
</event>
<event>
12    1  0.9873238E-001  0.1949979E+03  0.7818608E-02  0.1155530E+00
         21   -1    0    0  503  502  0.00000000000E+00  0.00000000000E+00  0.13445008468E+03  0.13445008468E+03  0.00000000000E+00 0.  1.
         21   -1    0    0  501  503 -0.00000000000E+00 -0.00000000000E+00 -0.27310351194E+03  0.27310351194E+03  0.00000000000E+00 0.  1.
          6    2    1    2  501    0 -0.18113558418E+02  0.98804490781E+02 -0.71067343760E+02  0.20754456547E+03  0.16713393106E+03 0.  0.
         24    2    3    3    0    0 -0.20870866790E+02  0.55740657546E+02 -0.11080995168E+03  0.14869168647E+03  0.79295386046E+02 0.  0.
         -6    2    1    2    0  502  0.18113558418E+02 -0.98804490781E+02 -0.67586083494E+02  0.20000903115E+03  0.15920209000E+03 0.  0.
        -24    2    5    5    0    0  0.68886008526E+02 -0.81820713733E+02 -0.37655328600E+02  0.13849293194E+03  0.79513879667E+02 0.  0.
          5    1    3    3  501    0  0.27573083728E+01  0.43063833236E+02  0.39742607923E+02  0.58852879003E+02  0.47000000000E+01 0. -1.
        -11    1    4    4    0    0  0.24507067935E+02  0.37274858224E+02 -0.77589115813E+02  0.89499063274E+02  0.00000000000E+00 0.  1.
         12    1    4    4    0    0 -0.45377934725E+02  0.18465799322E+02 -0.33220835871E+02  0.59192623193E+02  0.00000000000E+00 0. -1.
         -5    1    5    5    0  502 -0.50772450109E+02 -0.16983777048E+02 -0.29930754894E+02  0.61516099205E+02  0.47000000000E+01 0.  1.
         11    1    6    6    0    0  0.60154992130E+02 -0.10651801111E+02 -0.11467050630E+02  0.62157680099E+02  0.00000000000E+00 0. -1.
        -12    1    6    6    0    0  0.87310163960E+01 -0.71168912622E+02 -0.26188277970E+02  0.76335251844E+02  0.00000000000E+00 0.  1.
</event>
<event>
12    1  0.9873238E-001  0.2116892E+03  0.7818608E-02  0.1140447E+00
         21   -1    0    0  503  502  0.00000000000E+00  0.00000000000E+00  0.15358874741E+03  0.15358874741E+03  0.00000000000E+00 0. -1.
         21   -1    0    0  501  503 -0.00000000000E+00 -0.00000000000E+00 -0.29547652503E+03  0.29547652503E+03  0.00000000000E+00 0. -1.
          6    2    1    2  501    0  0.45900754615E+02  0.11376682631E+03 -0.41352417854E+02  0.21569041368E+03  0.17251829482E+03 0.  0.
         24    2    3    3    0    0  0.58671318701E+02  0.13257175675E+03 -0.69372983383E+02  0.17930422387E+03  0.79497166933E+02 0.  0.
         -6    2    1    2    0  502 -0.45900754615E+02 -0.11376682631E+03 -0.10053535976E+03  0.23337485876E+03  0.17119198607E+03 0.  0.
        -24    2    5    5    0    0 -0.59876896847E+01 -0.13428700671E+03 -0.10539494985E+03  0.18798944071E+03  0.78505297695E+02 0.  0.
          5    1    3    3  501    0 -0.12770564086E+02 -0.18804930435E+02  0.28020565530E+02  0.36386189802E+02  0.47000000000E+01 0. -1.
        -11    1    4    4    0    0  0.12034950998E+02  0.71007916565E+02  0.48542851563E+01  0.72183989533E+02  0.00000000000E+00 0.  1.
         12    1    4    4    0    0  0.46636367704E+02  0.61563840184E+02 -0.74227268540E+02  0.10712023434E+03  0.00000000000E+00 0. -1.
         -5    1    5    5    0  502 -0.39913064930E+02  0.20520180395E+02  0.48595900926E+01  0.45385418049E+02  0.47000000000E+01 0.  1.
         13    1    6    6    0    0 -0.13582125784E+02  0.43643162850E+01 -0.10682429711E+01  0.14306031613E+02  0.00000000000E+00 0. -1.
        -14    1    6    6    0    0  0.75944360996E+01 -0.13865132299E+03 -0.10432670688E+03  0.17368340910E+03  0.00000000000E+00 0.  1.
</event>
<event>
12    1  0.9873238E-001  0.2056516E+03  0.7818608E-02  0.1145356E+00
         21   -1    0    0  503  502  0.00000000000E+00  0.00000000000E+00  0.11651654451E+04  0.11651654451E+04  0.00000000000E+00 0.  1.
         21   -1    0    0  501  503 -0.00000000000E+00 -0.00000000000E+00 -0.36347631611E+02  0.36347631611E+02  0.00000000000E+00 0.  1.
          6    2    1    2  501    0  0.11049421644E+03  0.20168670474E+02  0.61778933136E+03  0.65065673840E+03  0.17051330199E+03 0.  0.
         24    2    3    3    0    0  0.62336125568E+02 -0.51856564160E+02  0.41566536088E+03  0.43069532001E+03  0.78395603485E+02 0.  0.
         -6    2    1    2    0  502 -0.11049421644E+03 -0.20168670474E+02  0.51102848211E+03  0.55085633828E+03  0.17226969776E+03 0.  0.
        -24    2    5    5    0    0  0.13323833382E+02 -0.21358200564E+02  0.19280862098E+03  0.20936212975E+03  0.77612111055E+02 0.  0.
          5    1    3    3  501    0  0.48158090876E+02  0.72025234634E+02  0.20212397048E+03  0.21996141840E+03  0.47000000000E+01 0. -1.
        -13    1    4    4    0    0  0.78873218308E+02 -0.43176659186E+02  0.37932318765E+03  0.38983495117E+03  0.00000000000E+00 0.  1.
         14    1    4    4    0    0 -0.16537092740E+02 -0.86799049737E+01  0.36342173228E+02  0.40860368838E+02  0.00000000000E+00 0. -1.
         -5    1    5    5    0  502 -0.12381804983E+03  0.11895300899E+01  0.31821986113E+03  0.34149420853E+03  0.47000000000E+01 0.  1.
         13    1    6    6    0    0  0.21011836284E+02 -0.35325221379E+02  0.18838500107E+03  0.19281669316E+03  0.00000000000E+00 0. -1.
        -14    1    6    6    0    0 -0.76880029019E+01  0.13967020814E+02  0.44236199038E+01  0.16545436594E+02  0.00000000000E+00 0.  1.
</event>
<event>
12    1  0.9873238E-001  0.1983991E+03  0.7818608E-02  0.1151192E+00
         21   -1    0    0  501  502  0.00000000000E+00  0.00000000000E+00  0.13695965468E+03  0.13695965468E+03  0.00000000000E+00 0. -1.
         21   -1    0    0  502  503 -0.00000000000E+00 -0.00000000000E+00 -0.29672816202E+03  0.29672816202E+03  0.00000000000E+00 0. -1.
         -6    2    1    2    0  503 -0.92306895607E+02  0.36407894147E+02 -0.40046550323E+02  0.20196477364E+03  0.17128907106E+03 0.  0.
        -24    2    3    3    0    0 -0.16117190921E+02 -0.37444110185E+02 -0.38557698706E+02  0.95741912052E+02  0.77575720191E+02 0.  0.
          6    2    1    2  501    0  0.92306895607E+02 -0.36407894147E+02 -0.11972195702E+03  0.23172304305E+03  0.17180257262E+03 0.  0.
         24    2    5    5    0    0  0.79518260595E+02  0.26599847364E+01 -0.14636417524E+03  0.18251180310E+03  0.74551037485E+02 0.  0.
          5    1    5    5  501    0  0.12788635011E+02 -0.39067878883E+02  0.26642218225E+02  0.49211239954E+02  0.47000000000E+01 0. -1.
        -13    1    6    6    0    0  0.80716543075E+02 -0.20436296465E+01 -0.72582108341E+02  0.10857025007E+03  0.00000000000E+00 0.  1.
         14    1    6    6    0    0 -0.11982824797E+01  0.47036143828E+01 -0.73782066900E+02  0.73941553034E+02  0.00000000000E+00 0. -1.
         -5    1    3    3    0  503 -0.76189704686E+02  0.73852004332E+02 -0.14888516170E+01  0.10622286158E+03  0.47000000000E+01 0.  1.
         13    1    4    4    0    0 -0.39055648292E+02 -0.27431090193E+02 -0.49199463162E+02  0.68544843337E+02  0.00000000000E+00 0. -1.
        -14    1    4    4    0    0  0.22938457371E+02 -0.10013019992E+02  0.10641764456E+02  0.27197068715E+02  0.00000000000E+00 0.  1.
</event>
<event>
12    1  0.9873238E-001  0.2146069E+03  0.7818608E-02  0.1138206E+00
         21   -1    0    0  503  502  0.00000000000E+00  0.00000000000E+00  0.33656270183E+03  0.33656270183E+03  0.00000000000E+00 0.  1.
         21   -1    0    0  501  503 -0.00000000000E+00 -0.00000000000E+00 -0.13805467228E+03  0.13805467228E+03  0.00000000000E+00 0.  1.
          6    2    1    2  501    0 -0.11455444936E+03  0.54121065499E+02  0.12750390434E+03  0.24856937511E+03  0.17169064337E+03 0.  0.
         24    2    3    3    0    0 -0.25984732313E+02 -0.15175876203E+02  0.98694669549E+01  0.85760862536E+02  0.79699470720E+02 0.  0.
         -6    2    1    2    0  502  0.11455444936E+03 -0.54121065499E+02  0.71004125212E+02  0.22604799900E+03  0.17321749466E+03 0.  0.
        -24    2    5    5    0    0  0.67855021787E+02  0.14228537272E+02 -0.15088817440E+02  0.10652147680E+03  0.79450596937E+02 0.  0.
          5    1    3    3  501    0 -0.88569717043E+02  0.69296941702E+02  0.11763443739E+03  0.16280851257E+03  0.47000000000E+01 0. -1.
        -11    1    4    4    0    0 -0.35137036592E+02  0.22729616751E+02 -0.84255810364E+01  0.42687670749E+02  0.00000000000E+00 0.  1.
         12    1    4    4    0    0  0.91523042797E+01 -0.37905492954E+02  0.18295047991E+02  0.43073191787E+02  0.00000000000E+00 0. -1.
         -5    1    5    5    0  502  0.46699427569E+02 -0.68349602771E+02  0.86092942652E+02  0.11952652220E+03  0.47000000000E+01 0.  1.
         13    1    6    6    0    0 -0.11201343503E+02 -0.24163546555E+01 -0.22645052263E+02  0.25379268273E+02  0.00000000000E+00 0. -1.
        -14    1    6    6    0    0  0.79056365290E+02  0.16644891927E+02  0.75562348228E+01  0.81142208528E+02  0.00000000000E+00 0.  1.
</event>
<event>
12    1  0.9873238E-001  0.2112955E+03  0.7818608E-02  0.1140856E+00
         21   -1    0    0  501  502  0.00000000000E+00  0.00000000000E+00  0.44637574725E+03  0.44637574725E+03  0.00000000000E+00 0.  1.
         21   -1    0    0  502  503 -0.00000000000E+00 -0.00000000000E+00 -0.10036441365E+03  0.10036441365E+03  0.00000000000E+00 0.  1.
         -6    2    1    2    0  503  0.33226471583E+02 -0.11633193134E+03  0.20218373939E+03  0.29244496596E+03  0.17323012723E+03 0.  0.
        -24    2    3    3    0    0 -0.15612624557E+02 -0.11739197500E+03  0.86433477408E+02  0.16672068766E+03  0.79375133630E+02 0.  0.
          6    2    1    2  501    0 -0.33226471583E+02  0.11633193134E+03  0.14382759420E+03  0.25429519494E+03  0.17129668021E+03 0.  0.
         24    2    5    5    0    0 -0.37814960045E+02  0.66872807357E+02  0.89251286748E+01  0.11046187343E+03  0.78868396664E+02 0.  0.
          5    1    5    5  501    0  0.45884884620E+01  0.49459123979E+02  0.13490246553E+03  0.14383332151E+03  0.47000000000E+01 0. -1.
        -11    1    6    6    0    0 -0.53523980017E+02  0.65837253600E+02  0.24501009653E+02  0.88315683049E+02  0.00000000000E+00 0.  1.
         12    1    6    6    0    0  0.15709019972E+02  0.10355537576E+01 -0.15575880978E+02  0.22146190379E+02  0.00000000000E+00 0. -1.
         -5    1    3    3    0  503  0.48839096140E+02  0.10600436617E+01  0.11575026198E+03  0.12572427830E+03  0.47000000000E+01 0.  1.
         13    1    4    4    0    0 -0.30791818945E+02 -0.65547475210E+02  0.86351696140E+02  0.11269970296E+03  0.00000000000E+00 0. -1.
        -14    1    4    4    0    0  0.15179194388E+02 -0.51844499788E+02  0.81781268239E-01  0.54020984707E+02  0.00000000000E+00 0.  1.
</event>
<event>
12    1  0.9873238E-001  0.1888765E+03  0.7818608E-02  0.1160420E+00
         21   -1    0    0  503  502  0.00000000000E+00  0.00000000000E+00  0.30706067657E+02  0.30706067657E+02  0.00000000000E+00 0.  1.
         21   -1    0    0  501  503 -0.00000000000E+00 -0.00000000000E+00 -0.14187352638E+04  0.14187352638E+04  0.00000000000E+00 0.  1.
          6    2    1    2  501    0 -0.62497956664E+01 -0.76518385662E+02 -0.10231814561E+04  0.10404684583E+04  0.17256939876E+03 0.  0.
         24    2    3    3    0    0 -0.12191391483E+02 -0.11481467942E+03 -0.90801094187E+03  0.91886152586E+03  0.80570419630E+02 0.  0.
         -6    2    1    2    0  502  0.62497956664E+01  0.76518385662E+02 -0.36484774001E+03  0.40897287309E+03  0.16807978535E+03 0.  0.
        -24    2    5    5    0    0 -0.24591500570E+02 -0.17969514188E+02 -0.17661911283E+03  0.19606149514E+03  0.79486813490E+02 0.  0.
          5    1    3    3  501    0  0.59415958166E+01  0.38296293759E+02 -0.11517051422E+03  0.12160693246E+03  0.47000000000E+01 0. -1.
        -13    1    4    4    0    0  0.21281705226E+02 -0.57846303441E+01 -0.78234925297E+02  0.81283924990E+02  0.00000000000E+00 0.  1.
         14    1    4    4    0    0 -0.33473096709E+02 -0.10903004908E+03 -0.82977601657E+03  0.83757760087E+03  0.00000000000E+00 0. -1.
         -5    1    5    5    0  502  0.30841296236E+02  0.94487899850E+02 -0.18822862718E+03  0.21291137795E+03  0.47000000000E+01 0.  1.
         11    1    6    6    0    0 -0.29948555423E+02  0.16432929582E+02 -0.14519850106E+03  0.14916287023E+03  0.00000000000E+00 0. -1.
        -12    1    6    6    0    0  0.53570548530E+01 -0.34402443770E+02 -0.31420611774E+02  0.46898624908E+02  0.00000000000E+00 0.  1.
</event>
<event>
12    1  0.9873238E-001  0.2102864E+03  0.7818608E-02  0.1141619E+00
         21   -1    0    0  501  502  0.00000000000E+00  0.00000000000E+00  0.23123663340E+02  0.23123663340E+02  0.00000000000E+00 0. -1.
         21   -1    0    0  502  503 -0.00000000000E+00 -0.00000000000E+00 -0.23006339608E+04  0.23006339608E+04  0.00000000000E+00 0. -1.
         -6    2    1    2    0  503 -0.85339861623E+02  0.82092129561E+02 -0.65679399974E+03  0.68963664948E+03  0.17377669723E+03 0.  0.
        -24    2    3    3    0    0  0.60503494329E+01  0.80350534853E+02 -0.28524455647E+03  0.30697977626E+03  0.79870588206E+02 0.  0.
          6    2    1    2  501    0  0.85339861623E+02 -0.82092129561E+02 -0.16207162977E+04  0.16341209747E+04  0.17206984742E+03 0.  0.
         24    2    5    5    0    0  0.95672376231E+02 -0.95737893239E+00 -0.83362380457E+03  0.84277636490E+03  0.78671681922E+02 0.  0.
          5    1    5    5  501    0 -0.10332514608E+02 -0.81134750628E+02 -0.78709249315E+03  0.79134460976E+03  0.47000000000E+01 0. -1.
        -13    1    6    6    0    0  0.30355475984E+02  0.35651360930E+02 -0.40052054790E+03  0.40324829044E+03  0.00000000000E+00 0.  1.
         14    1    6    6    0    0  0.65316900246E+02 -0.36608739862E+02 -0.43310325667E+03  0.43952807445E+03  0.00000000000E+00 0. -1.
         -5    1    3    3    0  503 -0.91390211056E+02  0.17415947084E+01 -0.37154944327E+03  0.38265687322E+03  0.47000000000E+01 0.  1.
         13    1    4    4    0    0 -0.10568700903E+02  0.29281244146E+02 -0.22127971702E+03  0.22345872519E+03  0.00000000000E+00 0. -1.
        -14    1    4    4    0    0  0.16619050335E+02  0.51069290707E+02 -0.63964839449E+02  0.83521051077E+02  0.00000000000E+00 0.  1.
</event>
<event>
12    1  0.9873238E-001  0.2846518E+03  0.7818608E-02  0.1093199E+00
         21   -1    0    0  503  502  0.00000000000E+00  0.00000000000E+00  0.20195384993E+03  0.20195384993E+03  0.00000000000E+00 0. -1.
         21   -1    0    0  501  503 -0.00000000000E+00 -0.00000000000E+00 -0.99464610241E+03  0.99464610241E+03  0.00000000000E+00 0.  1.
          6    2    1    2  501    0 -0.20081792189E+03  0.10494281939E+03 -0.85853146680E+03  0.90443312491E+03  0.17199466521E+03 0.  0.
         24    2    3    3    0    0 -0.14846004128E+03  0.66741441789E+01 -0.57393803012E+03  0.59879674882E+03  0.84069946614E+02 0.  0.
         -6    2    1    2    0  502  0.20081792189E+03 -0.10494281939E+03  0.65839214320E+02  0.29216682743E+03  0.17229573358E+03 0.  0.
        -24    2    5    5    0    0  0.13893507376E+03 -0.27818081781E+02  0.95385077445E+02  0.18885777617E+03  0.80573855712E+02 0.  0.
          5    1    3    3  501    0 -0.52357880617E+02  0.98268675210E+02 -0.28459343668E+03  0.30563637609E+03  0.47000000000E+01 0. -1.
        -11    1    4    4    0    0 -0.15336093455E+03  0.19566497838E+02 -0.49241623868E+03  0.51611643667E+03  0.00000000000E+00 0.  1.
         12    1    4    4    0    0  0.49008932770E+01 -0.12892353659E+02 -0.81521791442E+02  0.82680312153E+02  0.00000000000E+00 0. -1.
         -5    1    5    5    0  502  0.61882848132E+02 -0.77124737608E+02 -0.29545863125E+02  0.10330905126E+03  0.47000000000E+01 0.  1.
         13    1    6    6    0    0  0.12595026628E+03 -0.50994440633E+02  0.85328753387E+02  0.16045216953E+03  0.00000000000E+00 0. -1.
        -14    1    6    6    0    0  0.12984807482E+02  0.23176358852E+02  0.10056324059E+02  0.28405606640E+02  0.00000000000E+00 0.  1.
</event>
<event>
12    1  0.9873238E-001  0.1992151E+03  0.7818608E-02  0.1151210E+00
         21   -1    0    0  501  502  0.00000000000E+00  0.00000000000E+00  0.17083007607E+04  0.17083007607E+04  0.00000000000E+00 0.  1.
         21   -1    0    0  502  503 -0.00000000000E+00 -0.00000000000E+00 -0.29015923841E+02  0.29015923841E+02  0.00000000000E+00 0.  1.
         -6    2    1    2    0  503 -0.66649399080E+02  0.67067641016E+02  0.12481575686E+04  0.12639556823E+04  0.17534662780E+03 0.  0.
        -24    2    3    3    0    0 -0.46016050050E+02  0.80016172686E+02  0.12217396031E+04  0.12277148426E+04  0.78204936323E+02 0.  0.
          6    2    1    2  501    0  0.66649399080E+02 -0.67067641016E+02  0.43112726818E+03  0.47336100217E+03  0.17105468756E+03 0.  0.
         24    2    5    5    0    0  0.10704391401E+02  0.23646527578E+02  0.24273984204E+03  0.25686431260E+03  0.79893065472E+02 0.  0.
          5    1    5    5  501    0  0.55945007679E+02 -0.90714168594E+02  0.18838742614E+03  0.21649668957E+03  0.47000000000E+01 0. -1.
        -13    1    6    6    0    0  0.23160439853E+02  0.29256249492E+01  0.22659103415E+03  0.22779039052E+03  0.00000000000E+00 0.  1.
         14    1    6    6    0    0 -0.12456048452E+02  0.20720902629E+02  0.16148807892E+02  0.29073922080E+02  0.00000000000E+00 0. -1.
         -5    1    3    3    0  503 -0.20633349030E+02 -0.12948531670E+02  0.26417965500E+02  0.36240839750E+02  0.47000000000E+01 0.  1.
         13    1    4    4    0    0 -0.86232468734E+01  0.82968219182E+02  0.82537931382E+03  0.82958368925E+03  0.00000000000E+00 0. -1.
        -14    1    4    4    0    0 -0.37392803176E+02 -0.29520464967E+01  0.39636028933E+03  0.39813115335E+03  0.00000000000E+00 0.  1.
</event>
<event>
12    1  0.9873238E-001  0.2129062E+03  0.7818608E-02  0.1139442E+00
         21   -1    0    0  501  502  0.00000000000E+00  0.00000000000E+00  0.61610550249E+03  0.61610550249E+03  0.00000000000E+00 0.  1.
         21   -1    0    0  502  503 -0.00000000000E+00 -0.00000000000E+00 -0.88838494178E+02  0.88838494178E+02  0.00000000000E+00 0.  1.
         -6    2    1    2    0  503 -0.12384450871E+03  0.16921796981E+02  0.41065523351E+03  0.46219445538E+03  0.17135397348E+03 0.  0.
        -24    2    3    3    0    0 -0.49158722850E+02  0.70095711049E+02  0.27368618820E+03  0.29730649002E+03  0.78466748765E+02 0.  0.
          6    2    1    2  501    0  0.12384450871E+03 -0.16921796981E+02  0.11661177480E+03  0.24274954128E+03  0.17235203573E+03 0.  0.
         24    2    5    5    0    0  0.41252007041E+02  0.17341417540E+02 -0.69903386600E+01  0.90122343010E+02  0.77914819051E+02 0.  0.
          5    1    5    5  501    0  0.82592501666E+02 -0.34263214521E+02  0.12360211346E+03  0.15262719827E+03  0.47000000000E+01 0. -1.
        -11    1    6    6    0    0 -0.16278092440E+02  0.43496237854E+01 -0.23463207428E+02  0.28886287808E+02  0.00000000000E+00 0.  1.
         12    1    6    6    0    0  0.57530099481E+02  0.12991793754E+02  0.16472868768E+02  0.61236055201E+02  0.00000000000E+00 0. -1.
         -5    1    3    3    0  503 -0.74685785857E+02 -0.53173914068E+02  0.13696904531E+03  0.16488796536E+03  0.47000000000E+01 0.  1.
         13    1    4    4    0    0 -0.70154373391E+02  0.50242050751E+02  0.18744167301E+03  0.20634989836E+03  0.00000000000E+00 0. -1.
        -14    1    4    4    0    0  0.20995650541E+02  0.19853660297E+02  0.86244515182E+02  0.90956591667E+02  0.00000000000E+00 0.  1.
</event>
<event>
12    1  0.9873238E-001  0.2264368E+03  0.7818608E-02  0.1129626E+00
         21   -1    0    0  501  502  0.00000000000E+00  0.00000000000E+00  0.42011480541E+03  0.42011480541E+03  0.00000000000E+00 0.  1.
         21   -1    0    0  502  503 -0.00000000000E+00 -0.00000000000E+00 -0.12075790406E+03  0.12075790406E+03  0.00000000000E+00 0.  1.
         -6    2    1    2    0  503 -0.67634880616E+02 -0.12596351097E+03  0.15480325751E+03  0.27222915794E+03  0.17234669340E+03 0.  0.
        -24    2    3    3    0    0 -0.78759379273E+01 -0.13979131430E+03  0.97151168679E+02  0.18791905936E+03  0.79193316284E+02 0.  0.
          6    2    1    2  501    0  0.67634880616E+02  0.12596351097E+03  0.14455364385E+03  0.26864355153E+03  0.17559133992E+03 0.  0.
         24    2    5    5    0    0  0.96463096251E+02  0.11031963196E+03  0.15495213699E+03  0.23391581583E+03  0.96077541624E+02 0.  0.
          5    1    5    5  501    0 -0.28828215635E+02  0.15643879012E+02 -0.10398493139E+02  0.34727735699E+02  0.47000000000E+01 0. -1.
        -11    1    6    6    0    0  0.99805731774E+02  0.44493839774E+02  0.94002962963E+02  0.14414382720E+03  0.00000000000E+00 0.  1.
         12    1    6    6    0    0 -0.33426355240E+01  0.65825792185E+02  0.60949174026E+02  0.89771988634E+02  0.00000000000E+00 0. -1.
         -5    1    3    3    0  503 -0.59758942688E+02  0.13827803330E+02  0.57652088828E+02  0.84310098579E+02  0.47000000000E+01 0.  1.
         11    1    4    4    0    0  0.85279419711E+00 -0.47178643761E+02 -0.76345979600E+01  0.47799987145E+02  0.00000000000E+00 0. -1.
        -12    1    4    4    0    0 -0.87287321244E+01 -0.92612670540E+02  0.10478576664E+03  0.14011907222E+03  0.00000000000E+00 0.  1.
</event>
<event>
12    1  0.9873238E-001  0.2477254E+03  0.7818608E-02  0.1115152E+00
         21   -1    0    0  503  502  0.00000000000E+00  0.00000000000E+00  0.32445510642E+02  0.32445510642E+02  0.00000000000E+00 0.  1.
         21   -1    0    0  501  503 -0.00000000000E+00 -0.00000000000E+00 -0.21688698881E+04  0.21688698881E+04  0.00000000000E+00 0. -1.
          6    2    1    2  501    0 -0.14328767872E+03  0.10056332362E+03 -0.14798317879E+04  0.15004232735E+04  0.17528131216E+03 0.  0.
         24    2    3    3    0    0 -0.14529264435E+03  0.89687019688E+02 -0.14756840634E+04  0.14877107799E+04  0.80536922473E+02 0.  0.
         -6    2    1    2    0  502  0.14328767872E+03 -0.10056332362E+03 -0.65659258956E+03  0.70089212520E+03  0.17173118984E+03 0.  0.
        -24    2    5    5    0    0  0.12422979058E+03 -0.13911425291E+03 -0.54883751515E+03  0.58477742625E+03  0.77176447105E+02 0.  0.
          5    1    3    3  501    0  0.20049656291E+01  0.10876303928E+02 -0.41477245015E+01  0.12712493573E+02  0.47000000000E+01 0. -1.
        -13    1    4    4    0    0 -0.79892313562E+02  0.58560991535E+02 -0.52441799133E+03  0.53369129760E+03  0.00000000000E+00 0.  1.
         14    1    4    4    0    0 -0.65400330791E+02  0.31126028153E+02 -0.95126607202E+03  0.95401948233E+03  0.00000000000E+00 0. -1.
         -5    1    5    5    0  502  0.19057888141E+02  0.38550929292E+02 -0.10775507441E+03  0.11611469895E+03  0.47000000000E+01 0.  1.
         13    1    6    6    0    0  0.72678289234E+01 -0.53898462597E+02 -0.11029285765E+03  0.12297308671E+03  0.00000000000E+00 0. -1.
        -14    1    6    6    0    0  0.11696196166E+03 -0.85215790310E+02 -0.43854465750E+03  0.46180433954E+03  0.00000000000E+00 0.  1.
</event>
<event>
12    1  0.9873238E-001  0.4150957E+03  0.7818608E-02  0.1038709E+00
         21   -1    0    0  501  502  0.00000000000E+00  0.00000000000E+00  0.76692217020E+03  0.76692217020E+03  0.00000000000E+00 0.  1.
         21   -1    0    0  502  503 -0.00000000000E+00 -0.00000000000E+00 -0.32010271055E+03  0.32010271055E+03  0.00000000000E+00 0. -1.
         -6    2    1    2    0  503  0.24125653399E+03  0.29052456266E+03  0.52044543698E+03  0.66545021583E+03  0.17132221158E+03 0.  0.
        -24    2    3    3    0    0  0.20286500839E+03  0.17841166003E+03  0.43880485289E+03  0.52146935897E+03  0.79972878861E+02 0.  0.
          6    2    1    2  501    0 -0.24125653399E+03 -0.29052456266E+03 -0.73625977332E+02  0.42157466492E+03  0.17232288549E+03 0.  0.
         24    2    5    5    0    0 -0.15127405224E+03 -0.27492062437E+03 -0.59486869393E+02  0.32904178274E+03  0.79149343487E+02 0.  0.
          5    1    5    5  501    0 -0.89982481741E+02 -0.15603938291E+02 -0.14139107939E+02  0.92532882176E+02  0.47000000000E+01 0. -1.
        -13    1    6    6    0    0 -0.91500499152E+02 -0.88202018281E+02 -0.32136338830E+02  0.13109035681E+03  0.00000000000E+00 0.  1.
         14    1    6    6    0    0 -0.59773553092E+02 -0.18671860608E+03 -0.27350530562E+02  0.19795142593E+03  0.00000000000E+00 0. -1.
         -5    1    3    3    0  503  0.38391525594E+02  0.11211290263E+03  0.81640584084E+02  0.14398085686E+03  0.47000000000E+01 0.  1.
         11    1    4    4    0    0  0.93817780896E+01 -0.77186500810E+01  0.10949311549E+02  0.16354899651E+02  0.00000000000E+00 0. -1.
        -12    1    4    4    0    0  0.19348323030E+03  0.18613031011E+03  0.42785554135E+03  0.50511445932E+03  0.00000000000E+00 0.  1.
</event>
<event>
12    1  0.9873238E-001  0.3252475E+03  0.7818608E-02  0.1073495E+00
         21   -1    0    0  501  502  0.00000000000E+00  0.00000000000E+00  0.10483863693E+04  0.10483863693E+04  0.00000000000E+00 0.  1.
         21   -1    0    0  502  503 -0.00000000000E+00 -0.00000000000E+00 -0.10233140812E+03  0.10233140812E+03  0.00000000000E+00 0.  1.
         -6    2    1    2    0  503  0.49867905432E+02 -0.27142197095E+03  0.55342727863E+03  0.64087229699E+03  0.16816317671E+03 0.  0.
        -24    2    3    3    0    0  0.80641032030E+02 -0.21964349049E+03  0.34986357404E+03  0.42853231444E+03  0.80555478516E+02 0.  0.
          6    2    1    2  501    0 -0.49867905432E+02  0.27142197095E+03  0.39262768251E+03  0.50984548039E+03  0.17213141054E+03 0.  0.
         24    2    5    5    0    0  0.90018344291E+01  0.64152374149E+02  0.87472246571E+02  0.13625712121E+03  0.81963705561E+02 0.  0.
          5    1    5    5  501    0 -0.58869739861E+02  0.20726959681E+03  0.30515543594E+03  0.37358835918E+03  0.47000000000E+01 0. -1.
        -11    1    6    6    0    0 -0.27861385463E+02  0.32052933879E+02  0.74385480089E+02  0.85655396901E+02  0.00000000000E+00 0.  1.
         12    1    6    6    0    0  0.36863219892E+02  0.32099440270E+02  0.13086766482E+02  0.50601724313E+02  0.00000000000E+00 0. -1.
         -5    1    3    3    0  503 -0.30773126598E+02 -0.51778480462E+02  0.20356370459E+03  0.21233998254E+03  0.47000000000E+01 0.  1.
         11    1    4    4    0    0 -0.13306605930E+02 -0.60943119041E+02  0.75325561093E+02  0.97801174194E+02  0.00000000000E+00 0. -1.
        -12    1    4    4    0    0  0.93947637960E+02 -0.15870037145E+03  0.27453801295E+03  0.33073114025E+03  0.00000000000E+00 0.  1.
</event>
<event>
12    1  0.9873238E-001  0.2215108E+03  0.7818608E-02  0.1132827E+00
         21   -1    0    0  501  502  0.00000000000E+00  0.00000000000E+00  0.33646171693E+02  0.33646171693E+02  0.00000000000E+00 0.  1.
         21   -1    0    0  502  503 -0.00000000000E+00 -0.00000000000E+00 -0.19021774214E+04  0.19021774214E+04  0.00000000000E+00 0.  1.
         -6    2    1    2    0  503  0.20024314428E+02  0.13893082297E+03 -0.46606181659E+03  0.51602386701E+03  0.17136005283E+03 0.  0.
        -24    2    3    3    0    0  0.74062610601E+02  0.10926517691E+03 -0.27977599148E+03  0.31974680099E+03  0.80865704487E+02 0.  0.
          6    2    1    2  501    0 -0.20024314428E+02 -0.13893082297E+03 -0.14024694332E+04  0.14197997261E+04  0.17090349500E+03 0.  0.
         24    2    5    5    0    0 -0.23636383825E+01 -0.14444212928E+02 -0.34441277204E+03  0.35428820404E+03  0.81766447275E+02 0.  0.
          5    1    5    5  501    0 -0.17660676046E+02 -0.12448661004E+03 -0.10580566611E+04  0.10655115221E+04  0.47000000000E+01 0. -1.
        -13    1    6    6    0    0 -0.34249679052E+02 -0.34476979158E+01 -0.72114003479E+02  0.79908426551E+02  0.00000000000E+00 0.  1.
         14    1    6    6    0    0  0.31886040669E+02 -0.10996515012E+02 -0.27229876857E+03  0.27437977749E+03  0.00000000000E+00 0. -1.
         -5    1    3    3    0  503 -0.54038296173E+02  0.29665646057E+02 -0.18628582511E+03  0.19627706602E+03  0.47000000000E+01 0.  1.
         11    1    4    4    0    0  0.80355558019E+02  0.89208166661E+02 -0.27202416077E+03  0.29734198618E+03  0.00000000000E+00 0. -1.
        -12    1    4    4    0    0 -0.62929474176E+01  0.20057010251E+02 -0.77518307091E+01  0.22404814811E+02  0.00000000000E+00 0.  1.
</event>
<event>
12    1  0.9873238E-001  0.2836734E+03  0.7818608E-02  0.1093759E+00
         21   -1    0    0  503  502  0.00000000000E+00  0.00000000000E+00  0.10118379125E+04  0.10118379125E+04  0.00000000000E+00 0.  1.
         21   -1    0    0  501  503 -0.00000000000E+00 -0.00000000000E+00 -0.12790273351E+03  0.12790273351E+03  0.00000000000E+00 0. -1.
          6    2    1    2  501    0 -0.15316717264E+03 -0.16648745213E+03  0.91270568810E+02  0.29799483536E+03  0.17115008232E+03 0.  0.
         24    2    3    3    0    0 -0.10258121390E+02 -0.30743873980E+02  0.35404661811E+02  0.93074349552E+02  0.79742897018E+02 0.  0.
         -6    2    1    2    0  502  0.15316717264E+03  0.16648745213E+03  0.79266461018E+03  0.84174581065E+03  0.17041294264E+03 0.  0.
        -24    2    5    5    0    0  0.85693864714E+02  0.49893320079E+02  0.24202783582E+03  0.27485094721E+03  0.84455834813E+02 0.  0.
          5    1    3    3  501    0 -0.14290905125E+03 -0.13574357815E+03  0.55865906999E+02  0.20492048581E+03  0.47000000000E+01 0. -1.
        -11    1    4    4    0    0 -0.28608241403E+02 -0.15126564166E+02  0.53783766405E+02  0.62768925021E+02  0.00000000000E+00 0.  1.
         12    1    4    4    0    0  0.18350120013E+02 -0.15617309814E+02 -0.18379104594E+02  0.30305424531E+02  0.00000000000E+00 0. -1.
         -5    1    5    5    0  502  0.67473307926E+02  0.11659413205E+03  0.55063677437E+03  0.56689486344E+03  0.47000000000E+01 0.  1.
         11    1    6    6    0    0  0.81897272343E+02  0.70868838460E+02  0.21150703438E+03  0.23762319137E+03  0.00000000000E+00 0. -1.
        -12    1    6    6    0    0  0.37965923710E+01 -0.20975518381E+02  0.30520801435E+02  0.37227755845E+02  0.00000000000E+00 0.  1.
</event>
<event>
12    1  0.9873238E-001  0.2422796E+03  0.7818608E-02  0.1118456E+00
         21   -1    0    0  503  502  0.00000000000E+00  0.00000000000E+00  0.71302017499E+02  0.71302017499E+02  0.00000000000E+00 0. -1.
         21   -1    0    0  501  503 -0.00000000000E+00 -0.00000000000E+00 -0.84305477680E+03  0.84305477680E+03  0.00000000000E+00 0. -1.
          6    2    1    2  501    0  0.16932139403E+03  0.14858417284E+01 -0.46277875730E+03  0.52236345630E+03  0.17328433301E+03 0.  0.
         24    2    3    3    0    0  0.97515791794E+02 -0.64679890462E+02 -0.30146584873E+03  0.33374242593E+03  0.82519882638E+02 0.  0.
         -6    2    1    2    0  502 -0.16932139403E+03 -0.14858417284E+01 -0.30897400199E+03  0.39199333799E+03  0.17181938459E+03 0.  0.
        -24    2    5    5    0    0 -0.15404354393E+03 -0.36398787129E+01 -0.32537477778E+03  0.36899055500E+03  0.80886473033E+02 0.  0.
          5    1    3    3  501    0  0.71805602241E+02  0.66165732190E+02 -0.16131290857E+03  0.18862103038E+03  0.47000000000E+01 0. -1.
        -11    1    4    4    0    0  0.10140973016E+03 -0.29238015946E+02 -0.24748107372E+03  0.26904586374E+03  0.00000000000E+00 0.  1.
         12    1    4    4    0    0 -0.38939383616E+01 -0.35441874516E+02 -0.53984775011E+02  0.64696562182E+02  0.00000000000E+00 0. -1.
         -5    1    5    5    0  502 -0.15277850103E+02  0.21540369845E+01  0.16400775785E+02  0.23002782994E+02  0.47000000000E+01 0.  1.
         11    1    6    6    0    0 -0.13578127077E+03  0.17781132068E+01 -0.19734349253E+03  0.23954993054E+03  0.00000000000E+00 0. -1.
        -12    1    6    6    0    0 -0.18262273162E+02 -0.54179919197E+01 -0.12803128525E+03  0.12944062446E+03  0.00000000000E+00 0.  1.
</event>
<event>
12    1  0.9873238E-001  0.3590373E+03  0.7818608E-02  0.1059201E+00
         21   -1    0    0  501  502  0.00000000000E+00  0.00000000000E+00  0.47965849596E+03  0.47965849596E+03  0.00000000000E+00 0.  1.
         21   -1    0    0  502  503 -0.00000000000E+00 -0.00000000000E+00 -0.95940369345E+03  0.95940369345E+03  0.00000000000E+00 0.  1.
         -6    2    1    2    0  503  0.51161702742E+02  0.30862826812E+03 -0.85136035932E+03  0.92397092642E+03  0.17617855639E+03 0.  0.
        -24    2    3    3    0    0 -0.14747715562E+02  0.22451090188E+03 -0.45994027258E+03  0.51819813651E+03  0.79759727710E+02 0.  0.
          6    2    1    2  501    0 -0.51161702742E+02 -0.30862826812E+03  0.37161516183E+03  0.51509126299E+03  0.17132499233E+03 0.  0.
         24    2    5    5    0    0 -0.17342635943E+02 -0.62386907262E+02  0.74189787056E+02  0.12745421544E+03  0.80916990243E+02 0.  0.
          5    1    5    5  501    0 -0.33819066799E+02 -0.24624136085E+03  0.29742537477E+03  0.38763704755E+03  0.47000000000E+01 0. -1.
        -11    1    6    6    0    0 -0.48207607369E+02 -0.23296308003E+02  0.33684850843E+02  0.63256308390E+02  0.00000000000E+00 0.  1.
         12    1    6    6    0    0  0.30864971426E+02 -0.39090599260E+02  0.40504936214E+02  0.64197907048E+02  0.00000000000E+00 0. -1.
         -5    1    3    3    0  503  0.65909418304E+02  0.84117366232E+02 -0.39142008674E+03  0.40577278991E+03  0.47000000000E+01 0.  1.
         11    1    4    4    0    0 -0.23756764195E+02  0.14768247033E+03 -0.37273086807E+03  0.40162519331E+03  0.00000000000E+00 0. -1.
        -12    1    4    4    0    0  0.90090486331E+01  0.76828431550E+02 -0.87209404508E+02  0.11657294320E+03  0.00000000000E+00 0.  1.
</event>
<event>
12    1  0.9873238E-001  0.2283457E+03  0.7818608E-02  0.1129993E+00
         21   -1    0    0  501  502  0.00000000000E+00  0.00000000000E+00  0.28619886453E+03  0.28619886453E+03  0.00000000000E+00 0.  1.
         21   -1    0    0  502  503 -0.00000000000E+00 -0.00000000000E+00 -0.19557490046E+03  0.19557490046E+03  0.00000000000E+00 0.  1.
         -6    2    1    2    0  503 -0.64456326685E+02 -0.13018622901E+03  0.12644793950E+03  0.25063503632E+03  0.16039254270E+03 0.  0.
        -24    2    3    3    0    0 -0.40081663591E+02 -0.14535251979E+02  0.21177407609E+02  0.92289693560E+02  0.79063845328E+02 0.  0.
          6    2    1    2  501    0  0.64456326685E+02  0.13018622901E+03 -0.35823975432E+02  0.23113872866E+03  0.17617798499E+03 0.  0.
         24    2    5    5    0    0  0.93732309828E+02  0.10051821139E+03  0.22198958518E+02  0.15954246254E+03  0.77918847956E+02 0.  0.
          5    1    5    5  501    0 -0.29275983142E+02  0.29668017624E+02 -0.58022933950E+02  0.71596266123E+02  0.47000000000E+01 0. -1.
        -13    1    6    6    0    0  0.18043999512E+02  0.28218322445E+01  0.30639131383E+02  0.35669385017E+02  0.00000000000E+00 0.  1.
         14    1    6    6    0    0  0.75688310316E+02  0.97696379142E+02 -0.84401728651E+01  0.12387307752E+03  0.00000000000E+00 0. -1.
         -5    1    3    3    0  503 -0.24374663094E+02 -0.11565097703E+03  0.10527053189E+03  0.15834534276E+03  0.47000000000E+01 0.  1.
         13    1    4    4    0    0 -0.51038284645E+02 -0.24022060916E+02  0.39547361808E+02  0.68890926370E+02  0.00000000000E+00 0. -1.
        -14    1    4    4    0    0  0.10956621054E+02  0.94868089377E+01 -0.18369954198E+02  0.23398767190E+02  0.00000000000E+00 0.  1.
</event>
<event>
12    1  0.9873238E-001  0.1759902E+03  0.7818608E-02  0.1171990E+00
         21   -1    0    0  501  502  0.00000000000E+00  0.00000000000E+00  0.68357521684E+03  0.68357521684E+03  0.00000000000E+00 0. -1.
         21   -1    0    0  502  503 -0.00000000000E+00 -0.00000000000E+00 -0.45292355889E+02  0.45292355889E+02  0.00000000000E+00 0. -1.
         -6    2    1    2    0  503  0.14392714203E+02  0.33217127446E+02  0.34652206753E+03  0.38865164883E+03  0.17222669095E+03 0.  0.
        -24    2    3    3    0    0 -0.49971081399E+02 -0.79322945897E+00  0.11654147724E+03  0.14737884789E+03  0.75105730140E+02 0.  0.
          6    2    1    2  501    0 -0.14392714203E+02 -0.33217127446E+02  0.29176079342E+03  0.34021592390E+03  0.17120743710E+03 0.  0.
         24    2    5    5    0    0  0.50747635498E+02 -0.22191612173E+02  0.23167504179E+03  0.25078877648E+03  0.78446767058E+02 0.  0.
          5    1    5    5  501    0 -0.65140349700E+02 -0.11025515273E+02  0.60085751630E+02  0.89427147417E+02  0.47000000000E+01 0. -1.
        -11    1    6    6    0    0  0.10697026052E+02 -0.47048552672E+02  0.10268320021E+03  0.11345409768E+03  0.00000000000E+00 0.  1.
         12    1    6    6    0    0  0.40050609446E+02  0.24856940498E+02  0.12899184158E+03  0.13733467880E+03  0.00000000000E+00 0. -1.
         -5    1    3    3    0  503  0.64363795602E+02  0.34010356905E+02  0.22998059029E+03  0.24127280094E+03  0.47000000000E+01 0.  1.
         13    1    4    4    0    0 -0.78394000448E+01  0.30430086798E+02  0.19240376934E+02  0.36846146069E+02  0.00000000000E+00 0. -1.
        -14    1    4    4    0    0 -0.42131681355E+02 -0.31223316257E+02  0.97301100305E+02  0.11053270182E+03  0.00000000000E+00 0.  1.
</event>
<event>
12    1  0.9873238E-001  0.3402298E+03  0.7818608E-02  0.1066707E+00
         21   -1    0    0  503  502  0.00000000000E+00  0.00000000000E+00  0.45406355139E+03  0.45406355139E+03  0.00000000000E+00 0.  1.
         21   -1    0    0  501  503 -0.00000000000E+00 -0.00000000000E+00 -0.27046203236E+03  0.27046203236E+03  0.00000000000E+00 0. -1.
          6    2    1    2  501    0  0.11795691176E+03  0.26895569746E+03  0.17879271470E+03  0.38434773178E+03  0.17177119625E+03 0.  0.
         24    2    3    3    0    0  0.56852572711E+02  0.22338921245E+03  0.75700723037E+02  0.25605083566E+03  0.81831996871E+02 0.  0.
         -6    2    1    2    0  502 -0.11795691176E+03 -0.26895569746E+03  0.48088043251E+01  0.34017785198E+03  0.17160083376E+03 0.  0.
        -24    2    5    5    0    0 -0.10769348945E+03 -0.23532070003E+03 -0.49167285552E+02  0.27558559882E+03  0.80970863727E+02 0.  0.
          5    1    3    3  501    0  0.61104339050E+02  0.45566485014E+02  0.10309199167E+03  0.12829689612E+03  0.47000000000E+01 0. -1.
        -11    1    4    4    0    0  0.63860191335E+02  0.86509369229E+02  0.31704359684E+02  0.11210335153E+03  0.00000000000E+00 0.  1.
         12    1    4    4    0    0 -0.70076186244E+01  0.13687984322E+03  0.43996363352E+02  0.14394748413E+03  0.00000000000E+00 0. -1.
         -5    1    5    5    0  502 -0.10263422307E+02 -0.33634997432E+02  0.53976089877E+02  0.64592253159E+02  0.47000000000E+01 0.  1.
         13    1    6    6    0    0 -0.58879324895E+02 -0.20544073540E+03 -0.43283888225E+02  0.21805083270E+03  0.00000000000E+00 0. -1.
        -14    1    6    6    0    0 -0.48814164559E+02 -0.29879964632E+02 -0.58833973270E+01  0.57534766117E+02  0.00000000000E+00 0.  1.
</event>
<event>
12    1  0.9873238E-001  0.1878882E+03  0.7818608E-02  0.1162309E+00
         21   -1    0    0  503  502  0.00000000000E+00  0.00000000000E+00  0.28725090918E+03  0.28725090918E+03  0.00000000000E+00 0.  1.
         21   -1    0    0  501  503 -0.00000000000E+00 -0.00000000000E+00 -0.12695391562E+03  0.12695391562E+03  0.00000000000E+00 0.  1.
          6    2    1    2  501    0  0.31954928017E+01 -0.53683126826E+02  0.22197808014E+02  0.18102383454E+03  0.17141994257E+03 0.  0.
         24    2    3    3    0    0 -0.12200952126E+02 -0.92340506150E+01  0.74131677081E+02  0.11079572302E+03  0.80907699068E+02 0.  0.
         -6    2    1    2    0  502 -0.31954928017E+01  0.53683126826E+02  0.13809918554E+03  0.23318099026E+03  0.18002749759E+03 0.  0.
        -24    2    5    5    0    0  0.25822400766E+02  0.85823597381E+02  0.14660144274E+03  0.18880277069E+03  0.78243318935E+02 0.  0.
          5    1    3    3  501    0  0.15396444927E+02 -0.44449076211E+02 -0.51933869067E+02  0.70228111527E+02  0.47000000000E+01 0. -1.
        -11    1    4    4    0    0 -0.32943303382E+02 -0.11111277013E+02  0.10266657051E+01  0.34781830847E+02  0.00000000000E+00 0.  1.
         12    1    4    4    0    0  0.20742351256E+02  0.18772263978E+01  0.73105011376E+02  0.76013892170E+02  0.00000000000E+00 0. -1.
         -5    1    5    5    0  502 -0.29017893568E+02 -0.32140470554E+02 -0.85022571990E+01  0.44378219568E+02  0.47000000000E+01 0.  1.
         13    1    6    6    0    0  0.11282614197E+02  0.36464289108E+02  0.54403813717E+01  0.38555667712E+02  0.00000000000E+00 0. -1.
        -14    1    6    6    0    0  0.14539786569E+02  0.49359308273E+02  0.14116106137E+03  0.15024710298E+03  0.00000000000E+00 0.  1.
</event>
<event>
12    1  0.9873238E-001  0.1820201E+03  0.7818608E-02  0.1166020E+00
         21   -1    0    0  501  502  0.00000000000E+00  0.00000000000E+00  0.13627329287E+03  0.13627329287E+03  0.00000000000E+00 0.  1.
         21   -1    0    0  502  503 -0.00000000000E+00 -0.00000000000E+00 -0.24310336708E+03  0.24310336708E+03  0.00000000000E+00 0.  1.
         -6    2    1    2    0  503  0.55635198208E+02 -0.19777031029E+02 -0.64814815765E+02  0.19321559055E+03  0.17217693763E+03 0.  0.
        -24    2    3    3    0    0  0.90667123063E+02 -0.16542153584E+02 -0.40150155693E+01  0.12281384416E+03  0.81073731363E+02 0.  0.
          6    2    1    2  501    0 -0.55635198208E+02  0.19777031029E+02 -0.42015258445E+02  0.18616106940E+03  0.17147669108E+03 0.  0.
         24    2    5    5    0    0 -0.46429577862E+01 -0.34432524549E+02 -0.64965117600E+02  0.10813754388E+03  0.79158739808E+02 0.  0.
          5    1    5    5  501    0 -0.50992240421E+02  0.54209555578E+02  0.22949859155E+02  0.78023525519E+02  0.47000000000E+01 0. -1.
        -13    1    6    6    0    0  0.28587324325E+02 -0.31633825878E+02 -0.61185468339E+02  0.74576106010E+02  0.00000000000E+00 0.  1.
         14    1    6    6    0    0 -0.33230282111E+02 -0.27986986716E+01 -0.37796492609E+01  0.33561437871E+02  0.00000000000E+00 0. -1.
         -5    1    3    3    0  503 -0.35031924855E+02 -0.32348774450E+01 -0.60799800196E+02  0.70401746392E+02  0.47000000000E+01 0.  1.
         13    1    4    4    0    0 -0.64774272948E+01  0.18397494509E+02 -0.16256186929E+00  0.19505160726E+02  0.00000000000E+00 0. -1.
        -14    1    4    4    0    0  0.97144550358E+02 -0.34939648093E+02 -0.38524537000E+01  0.10330868343E+03  0.00000000000E+00 0.  1.
</event>
<event>
12    1  0.9873238E-001  0.1815295E+03  0.7818608E-02  0.1168830E+00
         21   -1    0    0  501  502  0.00000000000E+00  0.00000000000E+00  0.44297111720E+03  0.44297111720E+03  0.00000000000E+00 0.  1.
         21   -1    0    0  502  503 -0.00000000000E+00 -0.00000000000E+00 -0.13409641696E+03  0.13409641696E+03  0.00000000000E+00 0.  1.
         -6    2    1    2    0  503  0.47873504043E+02  0.31946579196E+02  0.35573456887E+03  0.39937454680E+03  0.17216413341E+03 0.  0.
        -24    2    3    3    0    0  0.14224722817E+02  0.17795922314E+02  0.35272595448E+03  0.36244727600E+03  0.80208424297E+02 0.  0.
          6    2    1    2  501    0 -0.47873504043E+02 -0.31946579196E+02 -0.46859868637E+02  0.17769298736E+03  0.16145121293E+03 0.  0.
         24    2    5    5    0    0 -0.49068674918E+02  0.18664007292E+02 -0.72950265018E+02  0.12054704541E+03  0.80335353138E+02 0.  0.
          5    1    5    5  501    0  0.11951708754E+01 -0.50610586488E+02  0.26090396381E+02  0.57145941950E+02  0.47000000000E+01 0. -1.
        -13    1    6    6    0    0 -0.51149550917E+02 -0.88136381665E+01 -0.11444097958E+02  0.53150015567E+02  0.00000000000E+00 0.  1.
         14    1    6    6    0    0  0.20808759985E+01  0.27477645458E+02 -0.61506167060E+02  0.67397029840E+02  0.00000000000E+00 0. -1.
         -5    1    3    3    0  503  0.33648781226E+02  0.14150656882E+02  0.30086143919E+01  0.36927270800E+02  0.47000000000E+01 0.  1.
         11    1    4    4    0    0 -0.35946610984E+01  0.39233854626E+02  0.30206054751E+03  0.30461909214E+03  0.00000000000E+00 0. -1.
        -12    1    4    4    0    0  0.17819383916E+02 -0.21437932312E+02  0.50665406971E+02  0.57828183859E+02  0.00000000000E+00 0.  1.
</event>
<event>
12    1  0.9873238E-001  0.2719222E+03  0.7818608E-02  0.1100269E+00
         21   -1    0    0  501  502  0.00000000000E+00  0.00000000000E+00  0.84256677030E+02  0.84256677030E+02  0.00000000000E+00 0.  1.
         21   -1    0    0  502  503 -0.00000000000E+00 -0.00000000000E+00 -0.95524129180E+03  0.95524129180E+03  0.00000000000E+00 0.  1.
         -6    2    1    2    0  503 -0.20494552352E+03  0.45350538201E+02 -0.28503171209E+03  0.39352391031E+03  0.17192629863E+03 0.  0.
        -24    2    3    3    0    0 -0.12540136603E+03  0.93592915871E+02 -0.17048423455E+03  0.24588308057E+03  0.83117258002E+02 0.  0.
          6    2    1    2  501    0  0.20494552352E+03 -0.45350538201E+02 -0.58595290267E+03  0.64597405851E+03  0.17286509536E+03 0.  0.
         24    2    5    5    0    0  0.17826959687E+03 -0.51215049853E+02 -0.58411586683E+03  0.61819884905E+03  0.81089090454E+02 0.  0.
          5    1    5    5  501    0  0.26675926658E+02  0.58645116529E+01 -0.18370358451E+01  0.27775209463E+02  0.47000000000E+01 0. -1.
        -11    1    6    6    0    0  0.67716005359E+01 -0.27959971108E+02 -0.10110001060E+03  0.10511339925E+03  0.00000000000E+00 0.  1.
         12    1    6    6    0    0  0.17149799633E+03 -0.23255078746E+02 -0.48301585622E+03  0.51308544980E+03  0.00000000000E+00 0. -1.
         -5    1    3    3    0  503 -0.79544157491E+02 -0.48242377670E+02 -0.11454747755E+03  0.14764082974E+03  0.47000000000E+01 0.  1.
         11    1    4    4    0    0 -0.45205264308E+02  0.59382308650E+01 -0.94314678344E+02  0.10475703823E+03  0.00000000000E+00 0. -1.
        -12    1    4    4    0    0 -0.80196101725E+02  0.87654685006E+02 -0.76169556201E+02  0.14112604234E+03  0.00000000000E+00 0.  1.
</event>
<event>
12    1  0.9873238E-001  0.2921924E+03  0.7818608E-02  0.1089211E+00
         21   -1    0    0  503  502  0.00000000000E+00  0.00000000000E+00  0.13642320721E+04  0.13642320721E+04  0.00000000000E+00 0.  1.
         21   -1    0    0  501  503 -0.00000000000E+00 -0.00000000000E+00 -0.64173014899E+02  0.64173014899E+02  0.00000000000E+00 0.  1.
          6    2    1    2  501    0 -0.22154725589E+03 -0.81702846392E+02  0.53750136157E+03  0.61178359158E+03  0.17208401300E+03 0.  0.
         24    2    3    3    0    0 -0.26304461326E+02 -0.32582967845E+02  0.13544005535E+03  0.16210826953E+03  0.78622566588E+02 0.  0.
         -6    2    1    2    0  502  0.22154725589E+03  0.81702846392E+02  0.76255769562E+03  0.81662149541E+03  0.17209847738E+03 0.  0.
        -24    2    5    5    0    0  0.19329721708E+03  0.12248409773E+03  0.61590553629E+03  0.66173404921E+03  0.78652106943E+02 0.  0.
          5    1    3    3  501    0 -0.19524279457E+03 -0.49119878548E+02  0.40206130622E+03  0.44967532205E+03  0.47000000000E+01 0. -1.
        -13    1    4    4    0    0  0.14002398497E+02  0.18895130659E+02  0.40510891284E+02  0.46842560123E+02  0.00000000000E+00 0.  1.
         14    1    4    4    0    0 -0.40306859822E+02 -0.51478098504E+02  0.94929164065E+02  0.11526570940E+03  0.00000000000E+00 0. -1.
         -5    1    5    5    0  502  0.28250038810E+02 -0.40781251342E+02  0.14665215933E+03  0.15488744620E+03  0.47000000000E+01 0.  1.
         11    1    6    6    0    0  0.10616993987E+03  0.24905099959E+02  0.32389709818E+03  0.34176256428E+03  0.00000000000E+00 0. -1.
        -12    1    6    6    0    0  0.87127277210E+02  0.97578997775E+02  0.29200843811E+03  0.31997148493E+03  0.00000000000E+00 0.  1.
</event>
<event>
12    1  0.9873238E-001  0.6242321E+03  0.7818608E-02  0.9856925E-01
         21   -1    0    0  503  502  0.00000000000E+00  0.00000000000E+00  0.66283129279E+03  0.66283129279E+03  0.00000000000E+00 0.  1.
         21   -1    0    0  501  503 -0.00000000000E+00 -0.00000000000E+00 -0.58812307783E+03  0.58812307783E+03  0.00000000000E+00 0.  1.
          6    2    1    2  501    0 -0.59355489349E+03 -0.81915408554E+02  0.79625450650E+01  0.62428283893E+03  0.17506603076E+03 0.  0.
         24    2    3    3    0    0 -0.41870766358E+03 -0.12196869662E+03 -0.10715875517E+02  0.44387554117E+03  0.81964599464E+02 0.  0.
         -6    2    1    2    0  502  0.59355489349E+03  0.81915408554E+02  0.66745669893E+02  0.62667153168E+03  0.17101075529E+03 0.  0.
        -24    2    5    5    0    0  0.18151769258E+03  0.57900131997E+02  0.45909905358E+02  0.21338276154E+03  0.84400151109E+02 0.  0.
          5    1    3    3  501    0 -0.17484722991E+03  0.40053288070E+02  0.18678420582E+02  0.18040729777E+03  0.47000000000E+01 0. -1.
        -11    1    4    4    0    0 -0.35253984189E+03 -0.72230023005E+02 -0.20923937340E+02  0.36047098011E+03  0.00000000000E+00 0.  1.
         12    1    4    4    0    0 -0.66167821684E+02 -0.49738673618E+02  0.10208061823E+02  0.83404561061E+02  0.00000000000E+00 0. -1.
         -5    1    5    5    0  502  0.41203720091E+03  0.24015276556E+02  0.20835764536E+02  0.41328877014E+03  0.47000000000E+01 0.  1.
         13    1    6    6    0    0  0.11987019076E+03  0.36922107878E+02 -0.12312997731E+02  0.12603060976E+03  0.00000000000E+00 0. -1.
        -14    1    6    6    0    0  0.61647501818E+02  0.20978024119E+02  0.58222903089E+02  0.87352151779E+02  0.00000000000E+00 0.  1.
</event>
<event>
12    1  0.9873238E-001  0.1793712E+03  0.7818608E-02  0.1169119E+00
         21   -1    0    0  501  502  0.00000000000E+00  0.00000000000E+00  0.54820503980E+03  0.54820503980E+03  0.00000000000E+00 0. -1.
         21   -1    0    0  502  503 -0.00000000000E+00 -0.00000000000E+00 -0.58321667874E+02  0.58321667874E+02  0.00000000000E+00 0. -1.
         -6    2    1    2    0  503  0.95839911014E+01 -0.37549103901E+02  0.27688570897E+03  0.32990866494E+03  0.17513492879E+03 0.  0.
        -24    2    3    3    0    0  0.63086640220E+01 -0.29723051231E+02  0.29573284172E+03  0.30871245582E+03  0.83199805843E+02 0.  0.
          6    2    1    2  501    0 -0.95839911014E+01  0.37549103901E+02  0.21299766296E+03  0.27661804274E+03  0.17218521729E+03 0.  0.
         24    2    5    5    0    0  0.56924726533E+02  0.15761215799E+02  0.93068366572E+02  0.13768191453E+03  0.82496959448E+02 0.  0.
          5    1    5    5  501    0 -0.66508717635E+02  0.21787888102E+02  0.11992929639E+03  0.13893612821E+03  0.47000000000E+01 0. -1.
        -13    1    6    6    0    0  0.16223053102E+02  0.25631044180E+02  0.90807184208E+02  0.95739660442E+02  0.00000000000E+00 0.  1.
         14    1    6    6    0    0  0.40701673431E+02 -0.98698283810E+01  0.22611823640E+01  0.41942254089E+02  0.00000000000E+00 0. -1.
         -5    1    3    3    0  503  0.32753270794E+01 -0.78260526701E+01 -0.18847132752E+02  0.21196209114E+02  0.47000000000E+01 0.  1.
         13    1    4    4    0    0  0.44743687131E+02 -0.16722621910E+02  0.14866782531E+03  0.15615302080E+03  0.00000000000E+00 0. -1.
        -14    1    4    4    0    0 -0.38435023109E+02 -0.13000429321E+02  0.14706501641E+03  0.15255943502E+03  0.00000000000E+00 0.  1.
</event>
<event>
12    1  0.9873238E-001  0.2578176E+03  0.7818608E-02  0.1108566E+00
         21   -1    0    0  503  502  0.00000000000E+00  0.00000000000E+00  0.18923295087E+04  0.18923295087E+04  0.00000000000E+00 0.  1.
         21   -1    0    0  501  503 -0.00000000000E+00 -0.00000000000E+00 -0.43137885255E+02  0.43137885255E+02  0.00000000000E+00 0. -1.
          6    2    1    2  501    0 -0.10228626572E+03  0.16163090863E+03  0.13430812451E+04  0.13674730128E+04  0.17183765333E+03 0.  0.
         24    2    3    3    0    0 -0.13844886903E+03  0.12386684829E+03  0.11373611402E+04  0.11551602490E+04  0.79333171881E+02 0.  0.
         -6    2    1    2    0  502  0.10228626572E+03 -0.16163090863E+03  0.50611037840E+03  0.56799438117E+03  0.17286662820E+03 0.  0.
        -24    2    5    5    0    0  0.71110192237E+02 -0.13938739418E+03  0.49893779691E+03  0.52874826776E+03  0.78423850817E+02 0.  0.
          5    1    3    3  501    0  0.36162603307E+02  0.37764060341E+02  0.20572010486E+03  0.21231276380E+03  0.47000000000E+01 0. -1.
        -13    1    4    4    0    0 -0.11671235119E+03  0.13114797581E+03  0.10612007546E+04  0.10756247515E+04  0.00000000000E+00 0.  1.
         14    1    4    4    0    0 -0.21736517839E+02 -0.72811275165E+01  0.76160385647E+02  0.79535497532E+02  0.00000000000E+00 0. -1.
         -5    1    5    5    0  502  0.31176073482E+02 -0.22243514450E+02  0.71725814847E+01  0.39246113413E+02  0.47000000000E+01 0.  1.
         13    1    6    6    0    0 -0.45472385019E+01 -0.65340980705E+02  0.24554168811E+03  0.25412760916E+03  0.00000000000E+00 0. -1.
        -14    1    6    6    0    0  0.75657430739E+02 -0.74046413476E+02  0.25339610880E+03  0.27462065860E+03  0.00000000000E+00 0.  1.
</event>
<event>
12    1  0.9873238E-001  0.2032468E+03  0.7818608E-02  0.1147171E+00
         21   -1    0    0  501  502  0.00000000000E+00  0.00000000000E+00  0.18632160412E+03  0.18632160412E+03  0.00000000000E+00 0. -1.
         21   -1    0    0  502  503 -0.00000000000E+00 -0.00000000000E+00 -0.29718923040E+03  0.29718923040E+03  0.00000000000E+00 0. -1.
         -6    2    1    2    0  503 -0.10365957265E+03  0.30189446961E+02  0.66937132361E+02  0.21398565304E+03  0.17219921693E+03 0.  0.
        -24    2    3    3    0    0 -0.13702864895E+03  0.46609563831E+01  0.42808867777E+02  0.16530853073E+03  0.81827477185E+02 0.  0.
          6    2    1    2  501    0  0.10365957265E+03 -0.30189446961E+02 -0.17780475865E+03  0.26952518148E+03  0.17138430950E+03 0.  0.
         24    2    5    5    0    0  0.15596859042E+02 -0.24196117702E+02 -0.25500561391E+02  0.93429695943E+02  0.85147609062E+02 0.  0.
          5    1    5    5  501    0  0.88062713603E+02 -0.59933292591E+01 -0.15230419726E+03  0.17609548553E+03  0.47000000000E+01 0. -1.
        -13    1    6    6    0    0  0.50212251665E+02 -0.21257304816E+02 -0.10212645971E+02  0.55474691194E+02  0.00000000000E+00 0.  1.
         14    1    6    6    0    0 -0.34615392623E+02 -0.29388128859E+01 -0.15287915420E+02  0.37955004749E+02  0.00000000000E+00 0. -1.
         -5    1    3    3    0  503  0.33369076309E+02  0.25528490578E+02  0.24128264584E+02  0.48677122313E+02  0.47000000000E+01 0.  1.
         11    1    4    4    0    0 -0.54517490688E+02 -0.13220018994E+02 -0.20559584675E+02  0.59746315494E+02  0.00000000000E+00 0. -1.
        -12    1    4    4    0    0 -0.82511158266E+02  0.17880975377E+02  0.63368452453E+02  0.10556221523E+03  0.00000000000E+00 0.  1.
</event>
<event>
12    1  0.9873238E-001  0.2074629E+03  0.7818608E-02  0.1143640E+00
         21   -1    0    0  501  502  0.00000000000E+00  0.00000000000E+00  0.20232879647E+03  0.20232879647E+03  0.00000000000E+00 0. -1.
         21   -1    0    0  502  503 -0.00000000000E+00 -0.00000000000E+00 -0.32031982091E+03  0.32031982091E+03  0.00000000000E+00 0. -1.
         -6    2    1    2    0  503  0.95383164736E+02  0.65388118390E+02  0.92657478256E+02  0.22699064670E+03  0.17194705950E+03 0.  0.
        -24    2    3    3    0    0  0.32428315051E+02  0.90207439718E+01 -0.17556923639E+02  0.88030586313E+02  0.79423983280E+02 0.  0.
          6    2    1    2  501    0 -0.95383164736E+02 -0.65388118390E+02 -0.21064850269E+03  0.29565797067E+03  0.17224195132E+03 0.  0.
         24    2    5    5    0    0 -0.36534086908E+02 -0.10155683565E+03 -0.11269888132E+03  0.17570961347E+03  0.80773139350E+02 0.  0.
          5    1    5    5  501    0 -0.58849077828E+02  0.36168717258E+02 -0.97949621371E+02  0.11994835720E+03  0.47000000000E+01 0. -1.
        -13    1    6    6    0    0 -0.54864469417E+02 -0.10270172135E+03 -0.97729325236E+02  0.15201570506E+03  0.00000000000E+00 0.  1.
         14    1    6    6    0    0  0.18330382509E+02  0.11448857064E+01 -0.14969556086E+02  0.23693908408E+02  0.00000000000E+00 0. -1.
         -5    1    3    3    0  503  0.62954849686E+02  0.56367374419E+02  0.11021440189E+03  0.13896006039E+03  0.47000000000E+01 0.  1.
         13    1    4    4    0    0  0.55365426675E+02  0.15020133270E+02  0.18430169285E+01  0.57396268047E+02  0.00000000000E+00 0. -1.
        -14    1    4    4    0    0 -0.22937111624E+02 -0.59993892980E+01 -0.19399940567E+02  0.30634318266E+02  0.00000000000E+00 0.  1.
</event>
<event>
12    1  0.9873238E-001  0.2516115E+03  0.7818608E-02  0.1112482E+00
         21   -1    0    0  501  502  0.00000000000E+00  0.00000000000E+00  0.77221603855E+03  0.77221603855E+03  0.00000000000E+00 0. -1.
         21   -1    0    0  502  503 -0.00000000000E+00 -0.00000000000E+00 -0.88269037214E+02  0.88269037214E+02  0.00000000000E+00 0. -1.
         -6    2    1    2    0  503 -0.17909866088E+03  0.33007474308E+02  0.22436408028E+03  0.33711659182E+03  0.17361604843E+03 0.  0.
        -24    2    3    3    0    0 -0.12992761710E+03  0.50160945291E+02  0.71850879493E+02  0.17588880412E+03  0.79856223373E+02 0.  0.
          6    2    1    2  501    0  0.17909866088E+03 -0.33007474308E+02  0.45958292105E+03  0.52336848394E+03  0.17184959986E+03 0.  0.
         24    2    5    5    0    0  0.16261090915E+03  0.26326229388E+02  0.31617864066E+03  0.36723004541E+03  0.88054501955E+02 0.  0.
          5    1    5    5  501    0  0.16487751725E+02 -0.59333703695E+02  0.14340428040E+03  0.15613843853E+03  0.47000000000E+01 0. -1.
        -13    1    6    6    0    0  0.16916433264E+03  0.32296349213E+02  0.27029659231E+03  0.32049941252E+03  0.00000000000E+00 0.  1.
         14    1    6    6    0    0 -0.65534234840E+01 -0.59701198255E+01  0.45882048345E+02  0.46730632892E+02  0.00000000000E+00 0. -1.
         -5    1    3    3    0  503 -0.49171043776E+02 -0.17153470983E+02  0.15251320079E+03  0.16122778771E+03  0.47000000000E+01 0.  1.
         13    1    4    4    0    0 -0.78516111488E+01  0.33745424175E+02  0.29979498892E+01  0.34776272859E+02  0.00000000000E+00 0. -1.
        -14    1    4    4    0    0 -0.12207600595E+03  0.16415521115E+02  0.68852929604E+02  0.14111253126E+03  0.00000000000E+00 0.  1.
</event>
<event>
12    1  0.9873238E-001  0.2802113E+03  0.7818608E-02  0.1095681E+00
         21   -1    0    0  503  502  0.00000000000E+00  0.00000000000E+00  0.29305113466E+03  0.29305113466E+03  0.00000000000E+00 0.  1.
         21   -1    0    0  501  503 -0.00000000000E+00 -0.00000000000E+00 -0.34965892498E+03  0.34965892498E+03  0.00000000000E+00 0. -1.
          6    2    1    2  501    0 -0.21824283988E+03  0.29969695493E+02 -0.18440987327E+03  0.33544806032E+03  0.17317701927E+03 0.  0.
         24    2    3    3    0    0 -0.87737994493E+02 -0.25985972676E+02 -0.29007562503E+02  0.12489042055E+03  0.79893379014E+02 0.  0.
         -6    2    1    2    0  502  0.21824283988E+03 -0.29969695493E+02  0.12780208294E+03  0.30726199932E+03  0.17189660851E+03 0.  0.
        -24    2    5    5    0    0  0.21563155437E+03  0.14317294708E+02  0.12864136648E+03  0.26264192862E+03  0.75698278241E+02 0.  0.
          5    1    3    3  501    0 -0.13050484539E+03  0.55955668170E+02 -0.15540231077E+03  0.21055763976E+03  0.47000000000E+01 0. -1.
        -11    1    4    4    0    0 -0.99790919813E+02 -0.30887656304E+02 -0.35525863209E+02  0.11033749112E+03  0.00000000000E+00 0.  1.
         12    1    4    4    0    0  0.12052925320E+02  0.49016836272E+01  0.65183007055E+01  0.14552929438E+02  0.00000000000E+00 0. -1.
         -5    1    5    5    0  502  0.26112855068E+01 -0.44286990201E+02 -0.83928353441E+00  0.44620070708E+02  0.47000000000E+01 0.  1.
         13    1    6    6    0    0  0.21907553495E+03  0.63955889084E+01  0.12837829162E+03  0.25399995932E+03  0.00000000000E+00 0. -1.
        -14    1    6    6    0    0 -0.34439805804E+01  0.79217057997E+01  0.26307485759E+00  0.86419693008E+01  0.00000000000E+00 0.  1.
</event>
<event>
12    1  0.9873238E-001  0.3677181E+03  0.7818608E-02  0.1056524E+00
         21   -1    0    0  501  502  0.00000000000E+00  0.00000000000E+00  0.11940474421E+03  0.11940474421E+03  0.00000000000E+00 0. -1.
         21   -1    0    0  502  503 -0.00000000000E+00 -0.00000000000E+00 -0.12582919015E+04  0.12582919015E+04  0.00000000000E+00 0. -1.
         -6    2    1    2    0  503 -0.55105612207E+02 -0.30897537774E+03 -0.33381547024E+03  0.49663804337E+03  0.19160940843E+03 0.  0.
        -24    2    3    3    0    0 -0.27067057663E+02 -0.27336785259E+03 -0.34597209655E+03  0.44947948156E+03  0.82900568824E+02 0.  0.
          6    2    1    2  501    0  0.55105612207E+02  0.30897537774E+03 -0.80507168705E+03  0.88105860235E+03  0.17210876485E+03 0.  0.
         24    2    5    5    0    0 -0.36495502728E+02  0.17622378725E+03 -0.43800450323E+03  0.48009207448E+03  0.79080403491E+02 0.  0.
          5    1    5    5  501    0  0.91601114934E+02  0.13275159048E+03 -0.36706718382E+03  0.40096652787E+03  0.47000000000E+01 0. -1.
        -11    1    6    6    0    0  0.18961297625E+02  0.74474423784E+02 -0.13008915789E+03  0.15109321495E+03  0.00000000000E+00 0.  1.
         12    1    6    6    0    0 -0.55456800353E+02  0.10174936347E+03 -0.30791534534E+03  0.32899885953E+03  0.00000000000E+00 0. -1.
         -5    1    3    3    0  503 -0.28038554544E+02 -0.35607525152E+02  0.12156626312E+02  0.47158561807E+02  0.47000000000E+01 0.  1.
         11    1    4    4    0    0  0.18902856848E+02 -0.21961433159E+02 -0.19757870498E+02  0.35071298665E+02  0.00000000000E+00 0. -1.
        -12    1    4    4    0    0 -0.45969914511E+02 -0.25140641943E+03 -0.32621422606E+03  0.41440818290E+03  0.00000000000E+00 0.  1.
</event>
<event>
12    1  0.9873238E-001  0.2663126E+03  0.7818608E-02  0.1103478E+00
         21   -1    0    0  503  502  0.00000000000E+00  0.00000000000E+00  0.11438682689E+04  0.11438682689E+04  0.00000000000E+00 0.  1.
         21   -1    0    0  501  503 -0.00000000000E+00 -0.00000000000E+00 -0.62324084486E+02  0.62324084486E+02  0.00000000000E+00 0. -1.
          6    2    1    2  501    0 -0.30776768022E+02 -0.20006571344E+03  0.49104926732E+03  0.55861596988E+03  0.17305756188E+03 0.  0.
         24    2    3    3    0    0 -0.30848188037E+02 -0.44649102026E+02  0.11140760573E+03  0.14836700959E+03  0.81584078734E+02 0.  0.
         -6    2    1    2    0  502  0.30776768022E+02  0.20006571344E+03  0.59049491708E+03  0.64757638349E+03  0.17232941192E+03 0.  0.
        -24    2    5    5    0    0 -0.33005729571E+02  0.16421506819E+03  0.48161520039E+03  0.51631192345E+03  0.81048345089E+02 0.  0.
          5    1    3    3  501    0  0.71420015514E-01 -0.15541661142E+03  0.37964166159E+03  0.41024896029E+03  0.47000000000E+01 0. -1.
        -11    1    4    4    0    0  0.27898691507E+02 -0.16164788764E+02  0.43717524994E+02  0.54321813070E+02  0.00000000000E+00 0.  1.
         12    1    4    4    0    0 -0.58746879545E+02 -0.28484313261E+02  0.67690080737E+02  0.94045196519E+02  0.00000000000E+00 0. -1.
         -5    1    5    5    0  502  0.63782497593E+02  0.35850645256E+02  0.10887971669E+03  0.13126446005E+03  0.47000000000E+01 0.  1.
         13    1    6    6    0    0 -0.11266934652E+02 -0.53506169735E+01  0.15880949329E+02  0.20193500688E+02  0.00000000000E+00 0. -1.
        -14    1    6    6    0    0 -0.21738794919E+02  0.16956568516E+03  0.46573425106E+03  0.49611842276E+03  0.00000000000E+00 0.  1.
</event>
<event>
12    1  0.9873238E-001  0.2197566E+03  0.7818608E-02  0.1135153E+00
         21   -1    0    0  501  502  0.00000000000E+00  0.00000000000E+00  0.28822486420E+03  0.28822486420E+03  0.00000000000E+00 0.  1.
         21   -1    0    0  502  503 -0.00000000000E+00 -0.00000000000E+00 -0.16341573091E+03  0.16341573091E+03  0.00000000000E+00 0.  1.
         -6    2    1    2    0  503 -0.66751389940E+01  0.12789750519E+03  0.55020797054E+02  0.22653974277E+03  0.17857949947E+03 0.  0.
        -24    2    3    3    0    0 -0.99340924303E+00  0.14304391066E+03 -0.24743152246E+01  0.16662752709E+03  0.85416996602E+02 0.  0.
          6    2    1    2  501    0  0.66751389940E+01 -0.12789750519E+03  0.69788336238E+02  0.22510085234E+03  0.17145743651E+03 0.  0.
         24    2    5    5    0    0  0.13032932432E+02 -0.15657269982E+03  0.80900895563E+02  0.19334762733E+03  0.78444135743E+02 0.  0.
          5    1    5    5  501    0 -0.63577934381E+01  0.28675194627E+02 -0.11112559325E+02  0.31753225018E+02  0.47000000000E+01 0. -1.
        -11    1    6    6    0    0 -0.18655187770E+02 -0.66381519076E+02  0.68074393542E+02  0.96895021346E+02  0.00000000000E+00 0.  1.
         12    1    6    6    0    0  0.31688120202E+02 -0.90191180744E+02  0.12826502021E+02  0.96452605979E+02  0.00000000000E+00 0. -1.
         -5    1    3    3    0  503 -0.56817297509E+01 -0.15146405470E+02  0.57495112278E+02  0.59912215679E+02  0.47000000000E+01 0.  1.
         13    1    4    4    0    0 -0.40733828122E+02  0.72339908831E+02  0.13075525478E+02  0.84043301516E+02  0.00000000000E+00 0. -1.
        -14    1    4    4    0    0  0.39740418879E+02  0.70704001832E+02 -0.15549840702E+02  0.82584225574E+02  0.00000000000E+00 0.  1.
</event>
<event>
12    1  0.9873238E-001  0.1928062E+03  0.7818608E-02  0.1155973E+00
         21   -1    0    0  503  502  0.00000000000E+00  0.00000000000E+00  0.21305565272E+03  0.21305565272E+03  0.00000000000E+00 0. -1.
         21   -1    0    0  501  503 -0.00000000000E+00 -0.00000000000E+00 -0.17509345123E+03  0.17509345123E+03  0.00000000000E+00 0. -1.
          6    2    1    2  501    0 -0.87147929432E+02 -0.65811497047E+01  0.31156227789E+02  0.19530725245E+03  0.17186081343E+03 0.  0.
         24    2    3    3    0    0 -0.10317712692E+03  0.33474162077E+02  0.56916016261E+02  0.14483924400E+03  0.77284763377E+02 0.  0.
         -6    2    1    2    0  502  0.87147929432E+02  0.65811497047E+01  0.68059737049E+01  0.19284185150E+03  0.17176607720E+03 0.  0.
        -24    2    5    5    0    0 -0.80675308428E+01 -0.32555072867E+02  0.23280615776E+02  0.88481266875E+02  0.78498596761E+02 0.  0.
          5    1    3    3  501    0  0.16029197490E+02 -0.40055311782E+02 -0.25759788472E+02  0.50468008444E+02  0.47000000000E+01 0. -1.
        -13    1    4    4    0    0 -0.88086593660E+02 -0.70657640545E+00  0.16180199903E+02  0.89563084481E+02  0.00000000000E+00 0.  1.
         14    1    4    4    0    0 -0.15090533262E+02  0.34180738483E+02  0.40735816358E+02  0.55276159524E+02  0.00000000000E+00 0. -1.
         -5    1    5    5    0  502  0.95215460274E+02  0.39136222572E+02 -0.16474642071E+02  0.10436058463E+03  0.47000000000E+01 0.  1.
         11    1    6    6    0    0 -0.69357177188E+00 -0.11474988594E+02  0.51344583768E+02  0.52615802639E+02  0.00000000000E+00 0. -1.
        -12    1    6    6    0    0 -0.73739590710E+01 -0.21080084274E+02 -0.28063967992E+02  0.35865464235E+02  0.00000000000E+00 0.  1.
</event>
<event>
12    1  0.9873238E-001  0.3366467E+03  0.7818608E-02  0.1068417E+00
         21   -1    0    0  503  502  0.00000000000E+00  0.00000000000E+00  0.38878447783E+03  0.38878447783E+03  0.00000000000E+00 0. -1.
         21   -1    0    0  501  503 -0.00000000000E+00 -0.00000000000E+00 -0.29695574242E+03  0.29695574242E+03  0.00000000000E+00 0. -1.
          6    2    1    2  501    0  0.28044629394E+03 -0.67689072587E+02  0.98152945414E+02  0.34903416222E+03  0.17017318053E+03 0.  0.
         24    2    3    3    0    0  0.25615860871E+03 -0.12223237001E+02  0.72417849318E+02  0.28307405502E+03  0.95498352796E+02 0.  0.
         -6    2    1    2    0  502 -0.28044629394E+03  0.67689072587E+02 -0.63242100036E+01  0.33670605802E+03  0.17349074773E+03 0.  0.
        -24    2    5    5    0    0 -0.77102831258E+02 -0.24210962347E+02 -0.55419873687E+01  0.11350909992E+03  0.79514683267E+02 0.  0.
          5    1    3    3  501    0  0.24287685228E+02 -0.55465835586E+02  0.25735096096E+02  0.65960107201E+02  0.47000000000E+01 0. -1.
        -11    1    4    4    0    0  0.21955518556E+02 -0.31489623058E+02  0.14607905181E+02  0.41073495701E+02  0.00000000000E+00 0.  1.
         12    1    4    4    0    0  0.23420309015E+03  0.19266386057E+02  0.57809944137E+02  0.24200055932E+03  0.00000000000E+00 0. -1.
         -5    1    5    5    0  502 -0.20334346268E+03  0.91900034934E+02 -0.78222263494E+00  0.22319695810E+03  0.47000000000E+01 0.  1.
         13    1    6    6    0    0 -0.28775208329E+02 -0.34681153590E+01 -0.40906355995E+02  0.50133525702E+02  0.00000000000E+00 0. -1.
        -14    1    6    6    0    0 -0.48327622929E+02 -0.20742846988E+02  0.35364368627E+02  0.63375574218E+02  0.00000000000E+00 0.  1.
</event>
<event>
12    1  0.9873238E-001  0.1858796E+03  0.7818608E-02  0.1162756E+00
         21   -1    0    0  501  502  0.00000000000E+00  0.00000000000E+00  0.17848140108E+03  0.17848140108E+03  0.00000000000E+00 0. -1.
         21   -1    0    0  502  503 -0.00000000000E+00 -0.00000000000E+00 -0.37698162159E+03  0.37698162159E+03  0.00000000000E+00 0. -1.
         -6    2    1    2    0  503  0.39981727222E+02  0.15655386729E+02  0.95997133604E+02  0.20721036228E+03  0.17854146558E+03 0.  0.
        -24    2    3    3    0    0  0.67129321904E+02  0.60704950672E+02  0.97397239252E+02  0.15438512774E+03  0.78467245130E+02 0.  0.
          6    2    1    2  501    0 -0.39981727222E+02 -0.15655386729E+02 -0.29449735411E+03  0.34825266039E+03  0.18085241012E+03 0.  0.
         24    2    5    5    0    0 -0.54220130872E+02 -0.45132888182E+02 -0.29646948513E+03  0.31512209246E+03  0.80193374761E+02 0.  0.
          5    1    5    5  501    0  0.14238403650E+02  0.29477501452E+02  0.19721310252E+01  0.33130567927E+02  0.47000000000E+01 0. -1.
        -11    1    6    6    0    0 -0.43010538473E+01 -0.55551406991E+02 -0.14815215658E+03  0.15828303568E+03  0.00000000000E+00 0.  1.
         12    1    6    6    0    0 -0.49919077024E+02  0.10418518810E+02 -0.14831732855E+03  0.15683905678E+03  0.00000000000E+00 0. -1.
         -5    1    3    3    0  503 -0.27147594682E+02 -0.45049563942E+02 -0.14001056472E+01  0.52825234540E+02  0.47000000000E+01 0.  1.
         13    1    4    4    0    0  0.34121765195E+02  0.65864645210E+02  0.31673371963E+02  0.80657602495E+02  0.00000000000E+00 0. -1.
        -14    1    4    4    0    0  0.33007556708E+02 -0.51596945378E+01  0.65723867288E+02  0.73727525246E+02  0.00000000000E+00 0.  1.
</event>
<event>
12    1  0.9873238E-001  0.2503115E+03  0.7818608E-02  0.1113443E+00
         21   -1    0    0  501  502  0.00000000000E+00  0.00000000000E+00  0.80116742493E+03  0.80116742493E+03  0.00000000000E+00 0.  1.
         21   -1    0    0  502  503 -0.00000000000E+00 -0.00000000000E+00 -0.87230838603E+02  0.87230838603E+02  0.00000000000E+00 0.  1.
         -6    2    1    2    0  503 -0.38905658957E+02 -0.17460124859E+03  0.50362644048E+03  0.56146371187E+03  0.17205424111E+03 0.  0.
        -24    2    3    3    0    0 -0.62862956488E+02 -0.73427992249E+02  0.38023179951E+03  0.40003785481E+03  0.78170599228E+02 0.  0.
          6    2    1    2  501    0  0.38905658957E+02  0.17460124859E+03  0.21031014584E+03  0.32693455166E+03  0.17509025477E+03 0.  0.
         24    2    5    5    0    0 -0.21983595719E+02  0.22980538045E+02  0.81944793408E+02  0.11909784916E+03  0.80361464008E+02 0.  0.
          5    1    5    5  501    0  0.60889254676E+02  0.15162071055E+03  0.12836535243E+03  0.20783670250E+03  0.47000000000E+01 0. -1.
        -13    1    6    6    0    0 -0.17409615296E+00 -0.18211983477E+02 -0.63233480291E+01  0.19279299311E+02  0.00000000000E+00 0.  1.
         14    1    6    6    0    0 -0.21809499566E+02  0.41192521522E+02  0.88268141437E+02  0.99818549846E+02  0.00000000000E+00 0. -1.
         -5    1    3    3    0  503  0.23957297531E+02 -0.10117325635E+03  0.12339464098E+03  0.16142585706E+03  0.47000000000E+01 0.  1.
         11    1    4    4    0    0 -0.19381769296E+02 -0.18948863440E+02  0.25726724915E+03  0.25869122500E+03  0.00000000000E+00 0. -1.
        -12    1    4    4    0    0 -0.43481187192E+02 -0.54479128810E+02  0.12296455036E+03  0.14134662982E+03  0.00000000000E+00 0.  1.
</event>
<event>
12    1  0.9873238E-001  0.2076382E+03  0.7818608E-02  0.1143819E+00
         21   -1    0    0  501  502  0.00000000000E+00  0.00000000000E+00  0.19194320428E+03  0.19194320428E+03  0.00000000000E+00 0.  1.
         21   -1    0    0  502  503 -0.00000000000E+00 -0.00000000000E+00 -0.37883030581E+03  0.37883030581E+03  0.00000000000E+00 0.  1.
         -6    2    1    2    0  503 -0.11463880036E+03  0.18631840622E+02  0.89557758664E+02  0.22612877146E+03  0.17211748637E+03 0.  0.
        -24    2    3    3    0    0 -0.65436237824E+02  0.39320684352E+02 -0.11778569737E+02  0.11149866255E+03  0.80406464959E+02 0.  0.
          6    2    1    2  501    0  0.11463880036E+03 -0.18631840622E+02 -0.27644486019E+03  0.34464473863E+03  0.16990890237E+03 0.  0.
         24    2    5    5    0    0  0.70313031616E+02  0.43557630918E+02 -0.10211903421E+03  0.15426646321E+03  0.80800092196E+02 0.  0.
          5    1    5    5  501    0  0.44325768748E+02 -0.62189471540E+02 -0.17432582598E+03  0.19037827542E+03  0.47000000000E+01 0. -1.
        -13    1    6    6    0    0  0.59818239755E+01  0.47279529553E+02 -0.62595719680E+02  0.78672487282E+02  0.00000000000E+00 0.  1.
         14    1    6    6    0    0  0.64331207640E+02 -0.37218986358E+01 -0.39523314526E+02  0.75593975931E+02  0.00000000000E+00 0. -1.
         -5    1    3    3    0  503 -0.49202562539E+02 -0.20688843729E+02  0.10133632840E+03  0.11463010891E+03  0.47000000000E+01 0.  1.
         13    1    4    4    0    0 -0.14056932198E+02  0.52626389856E+02  0.75963890276E+01  0.54998539784E+02  0.00000000000E+00 0. -1.
        -14    1    4    4    0    0 -0.51379305626E+02 -0.13305705505E+02 -0.19374958765E+02  0.56500122767E+02  0.00000000000E+00 0.  1.
</event>
<event>
12    1  0.9873238E-001  0.3251877E+03  0.7818608E-02  0.1073329E+00
         21   -1    0    0  503  502  0.00000000000E+00  0.00000000000E+00  0.47459652720E+03  0.47459652720E+03  0.00000000000E+00 0. -1.
         21   -1    0    0  501  503 -0.00000000000E+00 -0.00000000000E+00 -0.25782449010E+03  0.25782449010E+03  0.00000000000E+00 0. -1.
          6    2    1    2  501    0 -0.93026372003E+02  0.25939338047E+03  0.24377973661E+03  0.40611370326E+03  0.17193297610E+03 0.  0.
         24    2    3    3    0    0 -0.11684696314E+03  0.18875592898E+03  0.12786746948E+03  0.26821949095E+03  0.79432940629E+02 0.  0.
         -6    2    1    2    0  502  0.93026372003E+02 -0.25939338047E+03 -0.27007699513E+02  0.32630731404E+03  0.17265055935E+03 0.  0.
        -24    2    5    5    0    0 -0.18988214412E+02 -0.13090746993E+03 -0.20263665704E+02  0.15565131863E+03  0.79494646826E+02 0.  0.
          5    1    3    3  501    0  0.23820591138E+02  0.70637451497E+02  0.11591226713E+03  0.13789421231E+03  0.47000000000E+01 0. -1.
        -11    1    4    4    0    0 -0.14188131326E+02  0.60313076739E+02  0.71005261751E+02  0.94237558821E+02  0.00000000000E+00 0.  1.
         12    1    4    4    0    0 -0.10265883182E+03  0.12844285224E+03  0.56862207729E+02  0.17398193213E+03  0.00000000000E+00 0. -1.
         -5    1    5    5    0  502  0.11201458641E+03 -0.12848591054E+03 -0.67440338093E+01  0.17065599541E+03  0.47000000000E+01 0.  1.
         11    1    6    6    0    0 -0.17105592219E+02 -0.40049750890E+01 -0.22708983430E+02  0.28711305074E+02  0.00000000000E+00 0. -1.
        -12    1    6    6    0    0 -0.18826221930E+01 -0.12690249484E+03  0.24453177266E+01  0.12694001356E+03  0.00000000000E+00 0.  1.
</event>
<event>
12    1  0.9873238E-001  0.2244752E+03  0.7818608E-02  0.1130746E+00
         21   -1    0    0  501  502  0.00000000000E+00  0.00000000000E+00  0.24869674622E+04  0.24869674622E+04  0.00000000000E+00 0.  1.
         21   -1    0    0  502  503 -0.00000000000E+00 -0.00000000000E+00 -0.46488990875E+02  0.46488990875E+02  0.00000000000E+00 0.  1.
         -6    2    1    2    0  503  0.84248965781E+02 -0.11690441191E+03  0.21720813692E+04  0.21835619890E+04  0.17099987000E+03 0.  0.
        -24    2    3    3    0    0  0.49535770044E+02 -0.47419231587E+02  0.56834457169E+03  0.57793843350E+03  0.79340435491E+02 0.  0.
          6    2    1    2  501    0 -0.84248965781E+02  0.11690441191E+03  0.26839710214E+03  0.34989446411E+03  0.17211798807E+03 0.  0.
         24    2    5    5    0    0 -0.48294915094E+01  0.11871968241E+03  0.15557147094E+03  0.21182759206E+03  0.80936760563E+02 0.  0.
          5    1    5    5  501    0 -0.79419474271E+02 -0.18152704934E+01  0.11282563120E+03  0.13806687205E+03  0.47000000000E+01 0. -1.
        -13    1    6    6    0    0  0.13473170883E+02  0.10169497231E+03  0.15614101082E+03  0.18682454064E+03  0.00000000000E+00 0.  1.
         14    1    6    6    0    0 -0.18302662393E+02  0.17024710100E+02 -0.56953988346E+00  0.25003051420E+02  0.00000000000E+00 0. -1.
         -5    1    3    3    0  503  0.34713195737E+02 -0.69485180325E+02  0.16037367975E+04  0.16056235555E+04  0.47000000000E+01 0.  1.
         13    1    4    4    0    0  0.67508635540E+02 -0.17974996130E+02  0.40636070678E+03  0.41232213181E+03  0.00000000000E+00 0. -1.
        -14    1    4    4    0    0 -0.17972865496E+02 -0.29444235456E+02  0.16198386491E+03  0.16561630169E+03  0.00000000000E+00 0.  1.
</event>
<event>
12    1  0.9873238E-001  0.2760548E+03  0.7818608E-02  0.1097915E+00
         21   -1    0    0  501  502  0.00000000000E+00  0.00000000000E+00  0.11598305246E+04  0.11598305246E+04  0.00000000000E+00 0. -1.
         21   -1    0    0  502  503 -0.00000000000E+00 -0.00000000000E+00 -0.69315669346E+02  0.69315669346E+02  0.00000000000E+00 0. -1.
         -6    2    1    2    0  503 -0.16464558670E+03  0.13868381187E+03  0.68687580300E+03  0.74013624047E+03  0.17222635342E+03 0.  0.
        -24    2    3    3    0    0 -0.68986862429E+02  0.50429870328E+02  0.48935809393E+03  0.50354654263E+03  0.82373645600E+02 0.  0.
          6    2    1    2  501    0  0.16464558670E+03 -0.13868381187E+03  0.40363905222E+03  0.48900995344E+03  0.17281458617E+03 0.  0.
         24    2    5    5    0    0  0.16843530337E+03 -0.96901575249E+02  0.23705863030E+03  0.31716338171E+03  0.81458270234E+02 0.  0.
          5    1    5    5  501    0 -0.37897166711E+01 -0.41782236624E+02  0.16658042191E+03  0.17184657173E+03  0.47000000000E+01 0. -1.
        -11    1    6    6    0    0  0.17234170866E+03 -0.97081016647E+02  0.24088509345E+03  0.31169218242E+03  0.00000000000E+00 0.  1.
         12    1    6    6    0    0 -0.39064052856E+01  0.17944139843E+00 -0.38264631457E+01  0.54711992905E+01  0.00000000000E+00 0. -1.
         -5    1    3    3    0  503 -0.95658724275E+02  0.88253941545E+02  0.19751770907E+03  0.23658969784E+03  0.47000000000E+01 0.  1.
         13    1    4    4    0    0 -0.68156513615E+02  0.47249618691E+02  0.49223866069E+03  0.49917605701E+03  0.00000000000E+00 0. -1.
        -14    1    4    4    0    0 -0.83034881379E+00  0.31802516370E+01 -0.28805667637E+01  0.43704856146E+01  0.00000000000E+00 0.  1.
</event>
<event>
12    1  0.9873238E-001  0.1748352E+03  0.7818608E-02  0.1173084E+00
         21   -1    0    0  501  502  0.00000000000E+00  0.00000000000E+00  0.54570385797E+02  0.54570385797E+02  0.00000000000E+00 0. -1.
         21   -1    0    0  502  503 -0.00000000000E+00 -0.00000000000E+00 -0.56982056929E+03  0.56982056929E+03  0.00000000000E+00 0. -1.
         -6    2    1    2    0  503 -0.34541562634E+02 -0.50307674337E+01 -0.30249229673E+03  0.34901254147E+03  0.17055713516E+03 0.  0.
        -24    2    3    3    0    0 -0.88466431157E+02  0.64277484985E+01 -0.18551459355E+03  0.21960982869E+03  0.77105039052E+02 0.  0.
          6    2    1    2  501    0  0.34541562634E+02  0.50307674337E+01 -0.21275788676E+03  0.27537841361E+03  0.17131527700E+03 0.  0.
         24    2    5    5    0    0  0.15867799645E+02 -0.14053654564E+02 -0.22338744850E+02  0.83038963180E+02  0.77117816439E+02 0.  0.
          5    1    5    5  501    0  0.18673762989E+02  0.19084421998E+02 -0.19041914191E+03  0.19233945043E+03  0.47000000000E+01 0. -1.
        -11    1    6    6    0    0  0.43665601601E+02  0.76267771405E+01 -0.83181329680E+01  0.45100375040E+02  0.00000000000E+00 0.  1.
         12    1    6    6    0    0 -0.27797801956E+02 -0.21680431705E+02 -0.14020611882E+02  0.37938588139E+02  0.00000000000E+00 0. -1.
         -5    1    3    3    0  503  0.53924868522E+02 -0.11458515932E+02 -0.11697770319E+03  0.12940271278E+03  0.47000000000E+01 0.  1.
         13    1    4    4    0    0 -0.68245237776E+02 -0.28873618492E+02 -0.14112951328E+03  0.15940087152E+03  0.00000000000E+00 0. -1.
        -14    1    4    4    0    0 -0.20221193381E+02  0.35301366990E+02 -0.44385080270E+02  0.60208957171E+02  0.00000000000E+00 0.  1.
</event>
<event>
12    1  0.9873238E-001  0.2267728E+03  0.7818608E-02  0.1130467E+00
         21   -1    0    0  501  502  0.00000000000E+00  0.00000000000E+00  0.67116508314E+03  0.67116508314E+03  0.00000000000E+00 0.  1.
         21   -1    0    0  502  503 -0.00000000000E+00 -0.00000000000E+00 -0.15250830139E+03  0.15250830139E+03  0.00000000000E+00 0.  1.
         -6    2    1    2    0  503 -0.13471608547E+02 -0.13286519410E+03 -0.34119538297E+02  0.22932518993E+03  0.18327917450E+03 0.  0.
        -24    2    3    3    0    0 -0.74194865760E+02 -0.57297882576E+02 -0.44264209112E+02  0.13174067844E+03  0.81291824285E+02 0.  0.
          6    2    1    2  501    0  0.13471608547E+02  0.13286519410E+03  0.55277632005E+03  0.59434819460E+03  0.17278157418E+03 0.  0.
         24    2    5    5    0    0 -0.53326671498E+02  0.64064160238E+02  0.22273744195E+03  0.25062833260E+03  0.79086298021E+02 0.  0.
          5    1    5    5  501    0  0.66798280045E+02  0.68801033858E+02  0.33003887810E+03  0.34371986200E+03  0.47000000000E+01 0. -1.
        -11    1    6    6    0    0  0.63749695424E+01 -0.96533236722E+01  0.40563200889E+01  0.12258899920E+02  0.00000000000E+00 0.  1.
         12    1    6    6    0    0 -0.59701641041E+02  0.73717483910E+02  0.21868112186E+03  0.23836943268E+03  0.00000000000E+00 0. -1.
         -5    1    3    3    0  503  0.60723257213E+02 -0.75567311520E+02  0.10144670815E+02  0.97584511491E+02  0.47000000000E+01 0.  1.
         11    1    4    4    0    0 -0.83272336231E+02 -0.60099957654E+02 -0.55736612282E+02  0.11684543996E+03  0.00000000000E+00 0. -1.
        -12    1    4    4    0    0  0.90774704715E+01  0.28020750779E+01  0.11472403170E+02  0.14895238480E+02  0.00000000000E+00 0.  1.
</event>
<event>
12    1  0.9873238E-001  0.3032673E+03  0.7818608E-02  0.1083665E+00
         21   -1    0    0  501  502  0.00000000000E+00  0.00000000000E+00  0.35368346641E+03  0.35368346641E+03  0.00000000000E+00 0. -1.
         21   -1    0    0  502  503 -0.00000000000E+00 -0.00000000000E+00 -0.25974280964E+03  0.25974280964E+03  0.00000000000E+00 0. -1.
         -6    2    1    2    0  503 -0.68750404817E+02 -0.23915357631E+03  0.44016341769E+02  0.30644496215E+03  0.17334943109E+03 0.  0.
        -24    2    3    3    0    0 -0.15386909712E+02 -0.16750906440E+03 -0.31862636521E+02  0.18914062275E+03  0.80392188174E+02 0.  0.
          6    2    1    2  501    0  0.68750404817E+02  0.23915357631E+03  0.49924315005E+02  0.30698131390E+03  0.17269637701E+03 0.  0.
         24    2    5    5    0    0  0.81349988552E+02  0.25669504802E+03  0.43792037512E+02  0.28404340713E+03  0.79074308519E+02 0.  0.
          5    1    5    5  501    0 -0.12599583735E+02 -0.17541471709E+02  0.61322774937E+01  0.22937906776E+02  0.47000000000E+01 0. -1.
        -13    1    6    6    0    0  0.38926930091E+02  0.42549101631E+02  0.30729184434E+02  0.65345349581E+02  0.00000000000E+00 0.  1.
         14    1    6    6    0    0  0.42423058461E+02  0.21414594639E+03  0.13062853078E+02  0.21869805754E+03  0.00000000000E+00 0. -1.
         -5    1    3    3    0  503 -0.53363495105E+02 -0.71644511905E+02  0.75878978290E+02  0.11730433940E+03  0.47000000000E+01 0.  1.
         13    1    4    4    0    0 -0.19682059560E+01 -0.10880726966E+03  0.18812421859E+02  0.11043913700E+03  0.00000000000E+00 0. -1.
        -14    1    4    4    0    0 -0.13418703756E+02 -0.58701794741E+02 -0.50675058380E+02  0.78701485743E+02  0.00000000000E+00 0.  1.
</event>
<event>
12    1  0.9873238E-001  0.3741263E+03  0.7818608E-02  0.1053216E+00
         21   -1    0    0  503  502  0.00000000000E+00  0.00000000000E+00  0.18050904102E+03  0.18050904102E+03  0.00000000000E+00 0.  1.
         21   -1    0    0  501  503 -0.00000000000E+00 -0.00000000000E+00 -0.10299137282E+04  0.10299137282E+04  0.00000000000E+00 0.  1.
          6    2    1    2  501    0 -0.32398604482E+03  0.71368706172E+02 -0.12228703175E+03  0.39269998805E+03  0.17087630912E+03 0.  0.
         24    2    3    3    0    0 -0.98106225330E+02  0.72321608554E+02 -0.31092634292E+02  0.14905863481E+03  0.79977985679E+02 0.  0.
         -6    2    1    2    0  502  0.32398604482E+03 -0.71368706172E+02 -0.72711765541E+03  0.81772278115E+03  0.17294511426E+03 0.  0.
        -24    2    5    5    0    0  0.18534527970E+03 -0.77189163250E+02 -0.56115745026E+03  0.60134344026E+03  0.80032552888E+02 0.  0.
          5    1    3    3  501    0 -0.22587981949E+03 -0.95290238156E+00 -0.91194397458E+02  0.24364135323E+03  0.47000000000E+01 0. -1.
        -13    1    4    4    0    0 -0.32420978434E+02  0.22123841719E+02 -0.50677831101E+02  0.64100130890E+02  0.00000000000E+00 0.  1.
         14    1    4    4    0    0 -0.65685246896E+02  0.50197766834E+02  0.19585196809E+02  0.84958503924E+02  0.00000000000E+00 0. -1.
         -5    1    5    5    0  502  0.13864076513E+03  0.58204570782E+01 -0.16596020514E+03  0.21637934089E+03  0.47000000000E+01 0.  1.
         11    1    6    6    0    0  0.16563911415E+03 -0.39455968524E+02 -0.40162149953E+03  0.43622576549E+03  0.00000000000E+00 0. -1.
        -12    1    6    6    0    0  0.19706165548E+02 -0.37733194726E+02 -0.15953595073E+03  0.16511767477E+03  0.00000000000E+00 0.  1.
</event>
<event>
12    1  0.9873238E-001  0.1787213E+03  0.7818608E-02  0.1169899E+00
         21   -1    0    0  503  502  0.00000000000E+00  0.00000000000E+00  0.24968119910E+03  0.24968119910E+03  0.00000000000E+00 0.  1.
         21   -1    0    0  501  503 -0.00000000000E+00 -0.00000000000E+00 -0.15894533522E+03  0.15894533522E+03  0.00000000000E+00 0.  1.
          6    2    1    2  501    0  0.69689432607E+01  0.30933932151E+02 -0.48047644264E+02  0.18506725794E+03  0.17588587070E+03 0.  0.
         24    2    3    3    0    0 -0.21596616340E+01 -0.50913626507E+02 -0.16583381260E+02  0.96781108783E+02  0.80589782112E+02 0.  0.
         -6    2    1    2    0  502 -0.69689432607E+01 -0.30933932151E+02  0.13878350814E+03  0.22355927638E+03  0.17237289113E+03 0.  0.
        -24    2    5    5    0    0 -0.66775180606E+02 -0.25786981804E+02  0.11778263709E+03  0.15979091661E+03  0.80848588453E+02 0.  0.
          5    1    3    3  501    0  0.91286048947E+01  0.81847558658E+02 -0.31464263004E+02  0.88286149152E+02  0.47000000000E+01 0. -1.
        -11    1    4    4    0    0 -0.33125341167E+02 -0.41592605068E+02  0.10975780349E+02  0.54292732276E+02  0.00000000000E+00 0.  1.
         12    1    4    4    0    0  0.30965679533E+02 -0.93210214392E+01 -0.27559161609E+02  0.42488376507E+02  0.00000000000E+00 0. -1.
         -5    1    5    5    0  502  0.59806237345E+02 -0.51469503471E+01  0.21000871050E+02  0.63768359773E+02  0.47000000000E+01 0.  1.
         11    1    6    6    0    0 -0.54350293191E+02 -0.19297825277E+02  0.20053254002E+02  0.61061390636E+02  0.00000000000E+00 0. -1.
        -12    1    6    6    0    0 -0.12424887416E+02 -0.64891565266E+01  0.97729383089E+02  0.98729525973E+02  0.00000000000E+00 0.  1.
</event>
<event>
12    1  0.9873238E-001  0.2593257E+03  0.7818608E-02  0.1107581E+00
         21   -1    0    0  503  502  0.00000000000E+00  0.00000000000E+00  0.11859202653E+03  0.11859202653E+03  0.00000000000E+00 0. -1.
         21   -1    0    0  501  503 -0.00000000000E+00 -0.00000000000E+00 -0.57994340278E+03  0.57994340278E+03  0.00000000000E+00 0. -1.
          6    2    1    2  501    0  0.15122057245E+03 -0.12057862842E+03 -0.17779847131E+03  0.31442349861E+03  0.17275118788E+03 0.  0.
         24    2    3    3    0    0  0.29434188432E+02 -0.96877959337E+02 -0.43903034177E+02  0.13182086136E+03  0.72094054018E+02 0.  0.
         -6    2    1    2    0  502 -0.15122057245E+03  0.12057862842E+03 -0.28355290493E+03  0.38411193070E+03  0.17243218448E+03 0.  0.
        -24    2    5    5    0    0 -0.10557314386E+03  0.45185336531E+02 -0.25577575869E+03  0.29158357800E+03  0.80077093404E+02 0.  0.
          5    1    3    3  501    0  0.12178638402E+03 -0.23700669080E+02 -0.13389543714E+03  0.18260263726E+03  0.47000000000E+01 0. -1.
        -13    1    4    4    0    0  0.41253351781E+02 -0.26098738336E+02 -0.22914013588E+01  0.48869557969E+02  0.00000000000E+00 0.  1.
         14    1    4    4    0    0 -0.11819163349E+02 -0.70779221001E+02 -0.41611632819E+02  0.82951303387E+02  0.00000000000E+00 0. -1.
         -5    1    5    5    0  502 -0.45647428596E+02  0.75393291886E+02 -0.27777146248E+02  0.92528352695E+02  0.47000000000E+01 0.  1.
         11    1    6    6    0    0 -0.61032358086E+02 -0.16982807742E+02 -0.12307927123E+03  0.13842641185E+03  0.00000000000E+00 0. -1.
        -12    1    6    6    0    0 -0.44540785772E+02  0.62168144273E+02 -0.13269648746E+03  0.15315716615E+03  0.00000000000E+00 0.  1.
</event>
<event>
12    1  0.9873238E-001  0.1873101E+03  0.7818608E-02  0.1161103E+00
         21   -1    0    0  503  502  0.00000000000E+00  0.00000000000E+00  0.31863507347E+03  0.31863507347E+03  0.00000000000E+00 0.  1.
         21   -1    0    0  501  503 -0.00000000000E+00 -0.00000000000E+00 -0.26127135857E+03  0.26127135857E+03  0.00000000000E+00 0.  1.
          6    2    1    2  501    0  0.69756099954E+02 -0.13935553365E+02 -0.19219607386E+03  0.26837360122E+03  0.17327707838E+03 0.  0.
         24    2    3    3    0    0  0.94405927796E+02 -0.57959679137E+02 -0.13083729921E+03  0.18879516890E+03  0.79078526335E+02 0.  0.
         -6    2    1    2    0  502 -0.69756099954E+02  0.13935553365E+02  0.24955978877E+03  0.31153283082E+03  0.17237315157E+03 0.  0.
        -24    2    5    5    0    0  0.18784716918E+02  0.31940355365E+02  0.13698266685E+03  0.16710517583E+03  0.88243055711E+02 0.  0.
          5    1    3    3  501    0 -0.24649827842E+02  0.44024125772E+02 -0.61358774658E+02  0.79578432318E+02  0.47000000000E+01 0. -1.
        -11    1    4    4    0    0 -0.52977938019E+01 -0.19383218323E+02 -0.33790375335E+00  0.20097013476E+02  0.00000000000E+00 0.  1.
         12    1    4    4    0    0  0.99703721598E+02 -0.38576460814E+02 -0.13049939545E+03  0.16869815542E+03  0.00000000000E+00 0. -1.
         -5    1    5    5    0  502 -0.88540816872E+02 -0.18004802000E+02  0.11257712192E+03  0.14442765499E+03  0.47000000000E+01 0.  1.
         11    1    6    6    0    0 -0.11027602551E+02  0.42516488084E+02  0.12629625290E+03  0.13371612944E+03  0.00000000000E+00 0. -1.
        -12    1    6    6    0    0  0.29812319469E+02 -0.10576132719E+02  0.10686413950E+02  0.33389046385E+02  0.00000000000E+00 0.  1.
</event>
<event>
12    1  0.9873238E-001  0.2312181E+03  0.7818608E-02  0.1125847E+00
         21   -1    0    0  501  502  0.00000000000E+00  0.00000000000E+00  0.19525871013E+03  0.19525871013E+03  0.00000000000E+00 0.  1.
         21   -1    0    0  502  503 -0.00000000000E+00 -0.00000000000E+00 -0.51897384731E+03  0.51897384731E+03  0.00000000000E+00 0.  1.
         -6    2    1    2    0  503  0.45595782039E+02  0.14768153952E+03  0.83873601497E+02  0.24562783759E+03  0.17149181064E+03 0.  0.
        -24    2    3    3    0    0 -0.94455687149E+01  0.11197151531E+03  0.10856137832E+03  0.17536879941E+03  0.79635443955E+02 0.  0.
          6    2    1    2  501    0 -0.45595782039E+02 -0.14768153952E+03 -0.40758873868E+03  0.46860471985E+03  0.17196799444E+03 0.  0.
         24    2    5    5    0    0  0.16700683984E+02 -0.11542243236E+03 -0.17091722321E+03  0.22171001374E+03  0.79632796407E+02 0.  0.
          5    1    5    5  501    0 -0.62296466023E+02 -0.32259107165E+02 -0.23667151547E+03  0.24689470612E+03  0.47000000000E+01 0. -1.
        -13    1    6    6    0    0 -0.22976002655E+02 -0.13941300608E+02 -0.62341556750E+02  0.67887600183E+02  0.00000000000E+00 0.  1.
         14    1    6    6    0    0  0.39676686639E+02 -0.10148113175E+03 -0.10857566646E+03  0.15382241355E+03  0.00000000000E+00 0. -1.
         -5    1    3    3    0  503  0.55041350754E+02  0.35710024212E+02 -0.24687776824E+02  0.70259038184E+02  0.47000000000E+01 0.  1.
         13    1    4    4    0    0 -0.34760270116E+02  0.94049841132E+02  0.57387437845E+02  0.11552907434E+03  0.00000000000E+00 0. -1.
        -14    1    4    4    0    0  0.25314701401E+02  0.17921674176E+02  0.51173940476E+02  0.59839725067E+02  0.00000000000E+00 0.  1.
</event>
<event>
12    1  0.9873238E-001  0.1903311E+03  0.7818608E-02  0.1158686E+00
         21   -1    0    0  501  502  0.00000000000E+00  0.00000000000E+00  0.32901734430E+03  0.32901734430E+03  0.00000000000E+00 0.  1.
         21   -1    0    0  502  503 -0.00000000000E+00 -0.00000000000E+00 -0.12487649334E+03  0.12487649334E+03  0.00000000000E+00 0.  1.
         -6    2    1    2    0  503 -0.69292546962E+02 -0.58849176493E+01  0.21114647991E+02  0.19149866473E+03  0.17717172719E+03 0.  0.
        -24    2    3    3    0    0 -0.34773650321E+02  0.17680933877E+02  0.79703093128E+02  0.11937654963E+03  0.79852084309E+02 0.  0.
          6    2    1    2  501    0  0.69292546962E+02  0.58849176493E+01  0.18302620297E+03  0.26239517291E+03  0.17468985796E+03 0.  0.
         24    2    5    5    0    0 -0.10392802865E+02 -0.20396867273E+02  0.15389551759E+03  0.17345039214E+03  0.76662674440E+02 0.  0.
          5    1    5    5  501    0  0.79685349826E+02  0.26281784922E+02  0.29130685375E+02  0.88944780769E+02  0.47000000000E+01 0. -1.
        -13    1    6    6    0    0 -0.16681450133E+02  0.13619213561E+02  0.12911331996E+03  0.13089691803E+03  0.00000000000E+00 0.  1.
         14    1    6    6    0    0  0.62886472687E+01 -0.34016080834E+02  0.24782197628E+02  0.42553474113E+02  0.00000000000E+00 0. -1.
         -5    1    3    3    0  503 -0.34518896641E+02 -0.23565851526E+02 -0.58588445136E+02  0.72122115103E+02  0.47000000000E+01 0.  1.
         11    1    4    4    0    0 -0.30388303842E+02  0.82487452764E+01 -0.68302852170E+01  0.32220235957E+02  0.00000000000E+00 0. -1.
        -12    1    4    4    0    0 -0.43853464791E+01  0.94321886003E+01  0.86533378345E+02  0.87156313674E+02  0.00000000000E+00 0.  1.
</event>
<event>
12    1  0.9873238E-001  0.1806141E+03  0.7818608E-02  0.1168280E+00
         21   -1    0    0  501  502  0.00000000000E+00  0.00000000000E+00  0.19058333715E+03  0.19058333715E+03  0.00000000000E+00 0. -1.
         21   -1    0    0  502  503 -0.00000000000E+00 -0.00000000000E+00 -0.20521106521E+03  0.20521106521E+03  0.00000000000E+00 0. -1.
         -6    2    1    2    0  503  0.17836043603E+01  0.51727344248E+02  0.77961337534E+02  0.19672166984E+03  0.17303914542E+03 0.  0.
        -24    2    3    3    0    0 -0.44329648150E+01  0.52377307189E+00 -0.23316845522E+02  0.82968376274E+02  0.79499375226E+02 0.  0.
          6    2    1    2  501    0 -0.17836043603E+01 -0.51727344248E+02 -0.92589065593E+02  0.19907273253E+03  0.16845865481E+03 0.  0.
         24    2    5    5    0    0 -0.37911528942E+02 -0.13445451792E+01 -0.10426132161E+03  0.13581148897E+03  0.78327808113E+02 0.  0.
          5    1    5    5  501    0  0.36127924581E+02 -0.50382799069E+02  0.11672256012E+02  0.63261243561E+02  0.47000000000E+01 0. -1.
        -11    1    6    6    0    0  0.17613824247E+02 -0.16474528757E+02 -0.11670284334E+02  0.26792768405E+02  0.00000000000E+00 0.  1.
         12    1    6    6    0    0 -0.55525353188E+02  0.15129983578E+02 -0.92591037272E+02  0.10901872056E+03  0.00000000000E+00 0. -1.
         -5    1    3    3    0  503  0.62165691753E+01  0.51203571176E+02  0.10127818306E+03  0.11375329356E+03  0.47000000000E+01 0.  1.
         11    1    4    4    0    0 -0.27463825665E+02 -0.26886141420E+02  0.29775522371E+01  0.38548568559E+02  0.00000000000E+00 0. -1.
        -12    1    4    4    0    0  0.23030860851E+02  0.27409914492E+02 -0.26294397759E+02  0.44419807715E+02  0.00000000000E+00 0.  1.
</event>
<event>
12    1  0.9873238E-001  0.2312643E+03  0.7818608E-02  0.1125929E+00
         21   -1    0    0  503  502  0.00000000000E+00  0.00000000000E+00  0.27342339128E+03  0.27342339128E+03  0.00000000000E+00 0.  1.
         21   -1    0    0  501  503 -0.00000000000E+00 -0.00000000000E+00 -0.20849423943E+03  0.20849423943E+03  0.00000000000E+00 0.  1.
          6    2    1    2  501    0 -0.82050139364E+02 -0.13116018997E+03  0.94386123738E+02  0.24978377281E+03  0.17189523554E+03 0.  0.
         24    2    3    3    0    0 -0.77326795279E+02 -0.12754581039E+03  0.12981231306E+03  0.21355562616E+03  0.80668468609E+02 0.  0.
         -6    2    1    2    0  502  0.82050139364E+02  0.13116018997E+03 -0.29456971888E+02  0.23213385790E+03  0.17053795469E+03 0.  0.
        -24    2    5    5    0    0 -0.31741615732E+01  0.51213861801E+02  0.33960165448E+02  0.99098448458E+02  0.77680594149E+02 0.  0.
          5    1    3    3  501    0 -0.47233440858E+01 -0.36143795814E+01 -0.35426189324E+02  0.36228146642E+02  0.47000000000E+01 0. -1.
        -13    1    4    4    0    0 -0.65387435014E+02 -0.11482187729E+03  0.66581863751E+02  0.14796190301E+03  0.00000000000E+00 0.  1.
         14    1    4    4    0    0 -0.11939360264E+02 -0.12723933101E+02  0.63230449312E+02  0.65593723154E+02  0.00000000000E+00 0. -1.
         -5    1    5    5    0  502  0.85224300937E+02  0.79946328169E+02 -0.63417137335E+02  0.13303540944E+03  0.47000000000E+01 0.  1.
         13    1    6    6    0    0  0.17295799041E+02  0.58526587418E+02  0.43918758276E+02  0.75188851752E+02  0.00000000000E+00 0. -1.
        -14    1    6    6    0    0 -0.20469960614E+02 -0.73127256176E+01 -0.99585928284E+01  0.23909596706E+02  0.00000000000E+00 0.  1.
</event>
<event>
12    1  0.9873238E-001  0.1877081E+03  0.7818608E-02  0.1160999E+00
         21   -1    0    0  503  502  0.00000000000E+00  0.00000000000E+00  0.48327350938E+03  0.48327350938E+03  0.00000000000E+00 0.  1.
         21   -1    0    0  501  503 -0.00000000000E+00 -0.00000000000E+00 -0.13216631147E+03  0.13216631147E+03  0.00000000000E+00 0.  1.
          6    2    1    2  501    0  0.38939590894E+02 -0.61186035495E+02  0.38241932082E+03  0.42513800731E+03  0.17099054254E+03 0.  0.
         24    2    3    3    0    0  0.72910493507E+02 -0.50414689422E+01  0.30299690803E+03  0.32200583855E+03  0.80865798168E+02 0.  0.
         -6    2    1    2    0  502 -0.38939590894E+02  0.61186035495E+02 -0.31312122906E+02  0.19030181355E+03  0.17313089996E+03 0.  0.
        -24    2    5    5    0    0 -0.55518219266E+02  0.45182861552E+02  0.40355990295E+02  0.11487396097E+03  0.80272394426E+02 0.  0.
          5    1    3    3  501    0 -0.33970902612E+02 -0.56144566553E+02  0.79422412793E+02  0.10313216875E+03  0.47000000000E+01 0. -1.
        -11    1    4    4    0    0  0.35928171693E+02  0.31247402188E+02  0.80255685329E+02  0.93317783366E+02  0.00000000000E+00 0.  1.
         12    1    4    4    0    0  0.36982321814E+02 -0.36288871130E+02  0.22274122270E+03  0.22868805519E+03  0.00000000000E+00 0. -1.
         -5    1    5    5    0  502  0.16578628372E+02  0.16003173943E+02 -0.71668113202E+02  0.75427852580E+02  0.47000000000E+01 0.  1.
         11    1    6    6    0    0 -0.15021925934E+02 -0.27754145636E+01 -0.21746148511E+02  0.26575480425E+02  0.00000000000E+00 0. -1.
        -12    1    6    6    0    0 -0.40496293332E+02  0.47958276116E+02  0.62102138806E+02  0.88298480541E+02  0.00000000000E+00 0.  1.
</event>
<event>
12    1  0.9873238E-001  0.1850017E+03  0.7818608E-02  0.1163118E+00
         21   -1    0    0  503  502  0.00000000000E+00  0.00000000000E+00  0.72163085576E+02  0.72163085576E+02  0.00000000000E+00 0. -1.
         21   -1    0    0  501  503 -0.00000000000E+00 -0.00000000000E+00 -0.47353939524E+03  0.47353939524E+03  0.00000000000E+00 0. -1.
          6    2    1    2  501    0  0.17091301209E+02 -0.66028166410E+02 -0.20252448444E+03  0.27410045492E+03  0.17164807384E+03 0.  0.
         24    2    3    3    0    0 -0.50832280112E+02 -0.34597497849E+02 -0.74941620189E+02  0.12611066785E+03  0.80664406964E+02 0.  0.
         -6    2    1    2    0  502 -0.17091301209E+02  0.66028166410E+02 -0.19885182522E+03  0.27160202590E+03  0.17197029028E+03 0.  0.
        -24    2    5    5    0    0 -0.51161490389E+02  0.74226512517E+02 -0.20312842022E+03  0.23598784425E+03  0.79385353016E+02 0.  0.
          5    1    3    3  501    0  0.67923581322E+02 -0.31430668562E+02 -0.12758286425E+03  0.14798978707E+03  0.47000000000E+01 0. -1.
        -13    1    4    4    0    0 -0.67863472073E+01  0.55281029168E+01 -0.65141952425E+02  0.65727379349E+02  0.00000000000E+00 0.  1.
         14    1    4    4    0    0 -0.44045932905E+02 -0.40125600765E+02 -0.97996677641E+01  0.60383288504E+02  0.00000000000E+00 0. -1.
         -5    1    5    5    0  502  0.34070189180E+02 -0.81983461062E+01  0.42765949949E+01  0.35614181647E+02  0.47000000000E+01 0.  1.
         11    1    6    6    0    0  0.15869370644E+02  0.32696154146E+00 -0.56111057637E+02  0.58312902668E+02  0.00000000000E+00 0. -1.
        -12    1    6    6    0    0 -0.67030861033E+02  0.73899550975E+02 -0.14701736258E+03  0.17767494158E+03  0.00000000000E+00 0.  1.
</event>
<event>
12    1  0.9873238E-001  0.2293573E+03  0.7818608E-02  0.1127159E+00
         21   -1    0    0  501  502  0.00000000000E+00  0.00000000000E+00  0.43836102262E+03  0.43836102262E+03  0.00000000000E+00 0.  1.
         21   -1    0    0  502  503 -0.00000000000E+00 -0.00000000000E+00 -0.27292197262E+03  0.27292197262E+03  0.00000000000E+00 0.  1.
         -6    2    1    2    0  503  0.50343450026E+02 -0.14332114961E+03  0.34906930001E+03  0.41747209950E+03  0.17134223871E+03 0.  0.
        -24    2    3    3    0    0  0.95221835930E+02 -0.97943502943E+02  0.20006412291E+03  0.25530603295E+03  0.80593978539E+02 0.  0.
          6    2    1    2  501    0 -0.50343450026E+02  0.14332114961E+03 -0.18363025001E+03  0.29381089574E+03  0.17184108604E+03 0.  0.
         24    2    5    5    0    0 -0.51699302837E+02  0.39174715303E+02 -0.28122015374E+02  0.10658584626E+03  0.79763516977E+02 0.  0.
          5    1    5    5  501    0  0.13558528110E+01  0.10414643431E+03 -0.15550823463E+03  0.18722504948E+03  0.47000000000E+01 0. -1.
        -13    1    6    6    0    0 -0.61298852523E+02  0.40876503782E+02 -0.45546475337E+02  0.86619393312E+02  0.00000000000E+00 0.  1.
         14    1    6    6    0    0  0.95995496861E+01 -0.17017884789E+01  0.17424459963E+02  0.19966452945E+02  0.00000000000E+00 0. -1.
         -5    1    3    3    0  503 -0.44878385905E+02 -0.45377646667E+02  0.14900517710E+03  0.16216606655E+03  0.47000000000E+01 0.  1.
         13    1    4    4    0    0  0.51106651958E+02 -0.97336272249E+02  0.16796701281E+03  0.20074649975E+03  0.00000000000E+00 0. -1.
        -14    1    4    4    0    0  0.44115183972E+02 -0.60723069400E+00  0.32097110106E+02  0.54559533201E+02  0.00000000000E+00 0.  1.
</event>
<event>
12    1  0.9873238E-001  0.2417844E+03  0.7818608E-02  0.1118931E+00
         21   -1    0    0  501  502  0.00000000000E+00  0.00000000000E+00  0.44650126035E+02  0.44650126035E+02  0.00000000000E+00 0.  1.
         21   -1    0    0  502  503 -0.00000000000E+00 -0.00000000000E+00 -0.16433911145E+04  0.16433911145E+04  0.00000000000E+00 0.  1.
         -6    2    1    2    0  503 -0.13708039846E+03  0.98589542890E+02 -0.41035272832E+03  0.47530616706E+03  0.17033982857E+03 0.  0.
        -24    2    3    3    0    0 -0.11942422032E+03  0.12292781988E+03 -0.40130801969E+03  0.44355732287E+03  0.79508356190E+02 0.  0.
          6    2    1    2  501    0  0.13708039846E+03 -0.98589542890E+02 -0.11883882602E+04  0.12127350735E+04  0.17305712345E+03 0.  0.
         24    2    5    5    0    0  0.18452742642E+02 -0.12563134148E+02 -0.29252376696E+03  0.30495297194E+03  0.83233555762E+02 0.  0.
          5    1    5    5  501    0  0.11862765582E+03 -0.86026408742E+02 -0.89586449321E+03  0.90778210156E+03  0.47000000000E+01 0. -1.
        -11    1    6    6    0    0 -0.11589750101E+01 -0.45087755219E+01 -0.28058060780E+03  0.28061922556E+03  0.00000000000E+00 0.  1.
         12    1    6    6    0    0  0.19611717652E+02 -0.80543586264E+01 -0.11943159167E+02  0.24333746383E+02  0.00000000000E+00 0. -1.
         -5    1    3    3    0  503 -0.17656178143E+02 -0.24338276986E+02 -0.90447086257E+01  0.31748844190E+02  0.47000000000E+01 0.  1.
         11    1    4    4    0    0 -0.21464605584E+02  0.86247320935E+01 -0.14075699760E+03  0.14264518103E+03  0.00000000000E+00 0. -1.
        -12    1    4    4    0    0 -0.97959614732E+02  0.11430308778E+03 -0.26055102209E+03  0.30091214184E+03  0.00000000000E+00 0.  1.
</event>
<event>
12    1  0.9873238E-001  0.2351630E+03  0.7818608E-02  0.1123343E+00
         21   -1    0    0  503  502  0.00000000000E+00  0.00000000000E+00  0.60891918258E+03  0.60891918258E+03  0.00000000000E+00 0. -1.
         21   -1    0    0  501  503 -0.00000000000E+00 -0.00000000000E+00 -0.91868389541E+02  0.91868389541E+02  0.00000000000E+00 0. -1.
          6    2    1    2  501    0 -0.13032522757E+03 -0.86661359849E+02  0.21191590283E+03  0.31655958319E+03  0.17551855629E+03 0.  0.
         24    2    3    3    0    0 -0.88313171954E+02  0.19144513655E+02  0.97627656813E+02  0.15517870184E+03  0.79897067454E+02 0.  0.
         -6    2    1    2    0  502  0.13032522757E+03  0.86661359849E+02  0.30513489020E+03  0.38422798893E+03  0.17328874755E+03 0.  0.
        -24    2    5    5    0    0  0.55282825462E+02  0.37807416281E+02  0.27049448657E+03  0.28810245912E+03  0.73144843795E+02 0.  0.
          5    1    3    3  501    0 -0.42012055615E+02 -0.10580587350E+03  0.11428824602E+03  0.16138088134E+03  0.47000000000E+01 0. -1.
        -13    1    4    4    0    0 -0.63191781885E+02 -0.12019948276E+02  0.95435869183E+02  0.11508990217E+03  0.00000000000E+00 0.  1.
         14    1    4    4    0    0 -0.25121390069E+02  0.31164461931E+02  0.21917876295E+01  0.40088799676E+02  0.00000000000E+00 0. -1.
         -5    1    5    5    0  502  0.75042402107E+02  0.48853943568E+02  0.34640403634E+02  0.96125529804E+02  0.47000000000E+01 0.  1.
         13    1    6    6    0    0  0.16966829087E+02 -0.20625652118E+02  0.48457278385E+02  0.55329907311E+02  0.00000000000E+00 0. -1.
        -14    1    6    6    0    0  0.38315996374E+02  0.58433068399E+02  0.22203720818E+03  0.23277255181E+03  0.00000000000E+00 0.  1.
</event>
<event>
12    1  0.9873238E-001  0.2306967E+03  0.7818608E-02  0.1127287E+00
         21   -1    0    0  501  502  0.00000000000E+00  0.00000000000E+00  0.75626013707E+02  0.75626013707E+02  0.00000000000E+00 0. -1.
         21   -1    0    0  502  503 -0.00000000000E+00 -0.00000000000E+00 -0.68727026912E+03  0.68727026912E+03  0.00000000000E+00 0. -1.
         -6    2    1    2    0  503 -0.13468431397E+03 -0.52898280985E+02 -0.33479596678E+03  0.40658249645E+03  0.17967441245E+03 0.  0.
        -24    2    3    3    0    0 -0.57685203264E+02 -0.77968400979E+02 -0.28443392139E+03  0.31110579991E+03  0.80482972585E+02 0.  0.
          6    2    1    2  501    0  0.13468431397E+03  0.52898280985E+02 -0.27684828864E+03  0.35631378637E+03  0.17139558593E+03 0.  0.
         24    2    5    5    0    0  0.73568162432E+02 -0.71028708042E+01 -0.23899855317E+03  0.26255870827E+03  0.79712242300E+02 0.  0.
          5    1    5    5  501    0  0.61116151543E+02  0.60001151789E+02 -0.37849735461E+02  0.93755078102E+02  0.47000000000E+01 0. -1.
        -13    1    6    6    0    0  0.20253078436E+02  0.30610762001E+02 -0.46232628606E+02  0.59031024760E+02  0.00000000000E+00 0.  1.
         14    1    6    6    0    0  0.53315083996E+02 -0.37713632805E+02 -0.19276592457E+03  0.20352768351E+03  0.00000000000E+00 0. -1.
         -5    1    3    3    0  503 -0.76999110711E+02  0.25070119994E+02 -0.50362045391E+02  0.95476696543E+02  0.47000000000E+01 0.  1.
         13    1    4    4    0    0 -0.67163832561E+02 -0.83928136874E+02 -0.21079853489E+03  0.23662403698E+03  0.00000000000E+00 0. -1.
        -14    1    4    4    0    0  0.94786292973E+01  0.59597358946E+01 -0.73635386496E+02  0.74481762934E+02  0.00000000000E+00 0.  1.
</event>
<event>
12    1  0.9873238E-001  0.6021357E+03  0.7818608E-02  0.9901109E-01
         21   -1    0    0  503  502  0.00000000000E+00  0.00000000000E+00  0.29279934232E+03  0.29279934232E+03  0.00000000000E+00 0.  1.
         21   -1    0    0  501  503 -0.00000000000E+00 -0.00000000000E+00 -0.12750971982E+04  0.12750971982E+04  0.00000000000E+00 0.  1.
          6    2    1    2  501    0 -0.57654125750E+03  0.28204301311E+02 -0.35713887481E+03  0.70008251109E+03  0.17138273604E+03 0.  0.
         24    2    3    3    0    0 -0.13655580457E+03  0.61718028555E+01 -0.56564950142E+02  0.16675390322E+03  0.76952529144E+02 0.  0.
         -6    2    1    2    0  502  0.57654125750E+03 -0.28204301311E+02 -0.62515898108E+03  0.86781402944E+03  0.17053484647E+03 0.  0.
        -24    2    5    5    0    0  0.34147446740E+03 -0.83986122236E+02 -0.36422119391E+03  0.51217569331E+03  0.77513754328E+02 0.  0.
          5    1    3    3  501    0 -0.43998545293E+03  0.22032498456E+02 -0.30057392467E+03  0.53332860787E+03  0.47000000000E+01 0. -1.
        -11    1    4    4    0    0 -0.12274595837E+03  0.29057059548E+02 -0.31277105560E+02  0.12995822535E+03  0.00000000000E+00 0.  1.
         12    1    4    4    0    0 -0.13809846207E+02 -0.22885256692E+02 -0.25287844581E+02  0.36795677867E+02  0.00000000000E+00 0. -1.
         -5    1    5    5    0  502  0.23506679011E+03  0.55781820925E+02 -0.26093778717E+03  0.35563833613E+03  0.47000000000E+01 0.  1.
         11    1    6    6    0    0  0.30300758813E+03 -0.49597195597E+02 -0.32698632958E+03  0.44854602886E+03  0.00000000000E+00 0. -1.
        -12    1    6    6    0    0  0.38466879269E+02 -0.34388926640E+02 -0.37234864334E+02  0.63629664450E+02  0.00000000000E+00 0.  1.
</event>
<event>
12    1  0.9873238E-001  0.2392291E+03  0.7818608E-02  0.1120364E+00
         21   -1    0    0  501  502  0.00000000000E+00  0.00000000000E+00  0.11701198690E+03  0.11701198690E+03  0.00000000000E+00 0. -1.
         21   -1    0    0  502  503 -0.00000000000E+00 -0.00000000000E+00 -0.61660874902E+03  0.61660874902E+03  0.00000000000E+00 0. -1.
         -6    2    1    2    0  503  0.10443039103E+03 -0.12986253483E+03 -0.82684140149E+02  0.25311502962E+03  0.17164080710E+03 0.  0.
        -24    2    3    3    0    0 -0.28153474461E+01 -0.76600895440E+02 -0.19470248635E+01  0.10861927730E+03  0.76933303139E+02 0.  0.
          6    2    1    2  501    0 -0.10443039103E+03  0.12986253483E+03 -0.41691262198E+03  0.48050570630E+03  0.17117130279E+03 0.  0.
         24    2    5    5    0    0 -0.26019370091E+02  0.12872046152E+03 -0.32469512626E+03  0.35936220027E+03  0.80425749192E+02 0.  0.
          5    1    5    5  501    0 -0.78411020943E+02  0.11420733147E+01 -0.92217495712E+02  0.12114350603E+03  0.47000000000E+01 0. -1.
        -11    1    6    6    0    0 -0.34330152926E+02  0.99255187062E+02 -0.15695968788E+03  0.18885575230E+03  0.00000000000E+00 0.  1.
         12    1    6    6    0    0  0.83107828351E+01  0.29465274458E+02 -0.16773543838E+03  0.17050644797E+03  0.00000000000E+00 0. -1.
         -5    1    3    3    0  503  0.10724573848E+03 -0.53261639394E+02 -0.80737115285E+02  0.14449575232E+03  0.47000000000E+01 0.  1.
         13    1    4    4    0    0  0.43662822813E+01  0.13359069606E+02  0.10466159744E+02  0.17523403251E+02  0.00000000000E+00 0. -1.
        -14    1    4    4    0    0 -0.71816297275E+01 -0.89959965046E+02 -0.12413184607E+02  0.91095874049E+02  0.00000000000E+00 0.  1.
</event>
<event>
12    1  0.9873238E-001  0.4347045E+03  0.7818608E-02  0.1032466E+00
         21   -1    0    0  501  502  0.00000000000E+00  0.00000000000E+00  0.12818491001E+04  0.12818491001E+04  0.00000000000E+00 0.  1.
         21   -1    0    0  502  503 -0.00000000000E+00 -0.00000000000E+00 -0.17942666922E+03  0.17942666922E+03  0.00000000000E+00 0. -1.
         -6    2    1    2    0  503 -0.29115175342E+03 -0.27231403409E+03  0.86206247822E+03  0.96546347360E+03  0.17333126036E+03 0.  0.
        -24    2    3    3    0    0 -0.60591807852E+02 -0.12031913249E+03  0.36110941237E+03  0.39341766879E+03  0.78926507545E+02 0.  0.
          6    2    1    2  501    0  0.29115175342E+03  0.27231403409E+03  0.24035995262E+03  0.49581229568E+03  0.17068289032E+03 0.  0.
         24    2    5    5    0    0  0.19247194639E+03  0.98327114703E+02  0.10123530649E+03  0.25211800032E+03  0.81247936416E+02 0.  0.
          5    1    5    5  501    0  0.98679807030E+02  0.17398691938E+03  0.13912464613E+03  0.24369429536E+03  0.47000000000E+01 0. -1.
        -11    1    6    6    0    0  0.14405511295E+03  0.69952608449E+02  0.11141173881E+03  0.19508413196E+03  0.00000000000E+00 0.  1.
         12    1    6    6    0    0  0.48416833442E+02  0.28374506254E+02 -0.10176432324E+02  0.57033868364E+02  0.00000000000E+00 0. -1.
         -5    1    3    3    0  503 -0.23055994557E+03 -0.15199490160E+03  0.50095306585E+03  0.57204580481E+03  0.47000000000E+01 0.  1.
         13    1    4    4    0    0 -0.78749099060E+00 -0.88284597052E+02  0.20489477412E+03  0.22310683243E+03  0.00000000000E+00 0. -1.
        -14    1    4    4    0    0 -0.59804316861E+02 -0.32034535438E+02  0.15621463825E+03  0.17031083635E+03  0.00000000000E+00 0.  1.
</event>
<event>
12    1  0.9873238E-001  0.1743486E+03  0.7818608E-02  0.1173729E+00
         21   -1    0    0  501  502  0.00000000000E+00  0.00000000000E+00  0.58123352444E+03  0.58123352444E+03  0.00000000000E+00 0. -1.
         21   -1    0    0  502  503 -0.00000000000E+00 -0.00000000000E+00 -0.59285999570E+02  0.59285999570E+02  0.00000000000E+00 0. -1.
         -6    2    1    2    0  503  0.18621031044E+02 -0.14068729265E+02  0.14877995857E+03  0.22920055284E+03  0.17277947045E+03 0.  0.
        -24    2    3    3    0    0 -0.37587522334E+02  0.27999979857E+02  0.41504612854E+02  0.10090687584E+03  0.79137500572E+02 0.  0.
          6    2    1    2  501    0 -0.18621031044E+02  0.14068729265E+02  0.37316756631E+03  0.41131897117E+03  0.17141934419E+03 0.  0.
         24    2    5    5    0    0  0.23474837762E+02  0.64227051287E+02  0.19694291188E+03  0.22326276078E+03  0.79897232041E+02 0.  0.
          5    1    5    5  501    0 -0.42095868806E+02 -0.50158322022E+02  0.17622465443E+03  0.18805621039E+03  0.47000000000E+01 0. -1.
        -11    1    6    6    0    0  0.39272371986E+01 -0.83257697288E+01  0.10090009956E+03  0.10131915774E+03  0.00000000000E+00 0.  1.
         12    1    6    6    0    0  0.19547600564E+02  0.72552821015E+02  0.96042812319E+02  0.12194360304E+03  0.00000000000E+00 0. -1.
         -5    1    3    3    0  503  0.56208553377E+02 -0.42068709121E+02  0.10727534571E+03  0.12829367700E+03  0.47000000000E+01 0.  1.
         11    1    4    4    0    0 -0.31537187250E+02 -0.23720602814E+02  0.22805776799E+02  0.45578115724E+02  0.00000000000E+00 0. -1.
        -12    1    4    4    0    0 -0.60503350834E+01  0.51720582670E+02  0.18698836054E+02  0.55328760117E+02  0.00000000000E+00 0.  1.
</event>
<event>
12    1  0.9873238E-001  0.2166996E+03  0.7818608E-02  0.1136533E+00
         21   -1    0    0  503  502  0.00000000000E+00  0.00000000000E+00  0.28207616913E+03  0.28207616913E+03  0.00000000000E+00 0.  1.
         21   -1    0    0  501  503 -0.00000000000E+00 -0.00000000000E+00 -0.16581229260E+03  0.16581229260E+03  0.00000000000E+00 0.  1.
          6    2    1    2  501    0 -0.12723002481E+03 -0.22354536177E+02  0.56950901521E+02  0.22321817344E+03  0.17290385557E+03 0.  0.
         24    2    3    3    0    0 -0.73557950387E+02  0.42535938157E+02  0.62173586388E+02  0.13871473168E+03  0.90311371610E+02 0.  0.
         -6    2    1    2    0  502  0.12723002481E+03  0.22354536177E+02  0.59312975007E+02  0.22467028829E+03  0.17398708267E+03 0.  0.
        -24    2    5    5    0    0  0.12353886361E+03  0.35997201770E+02  0.99985163649E+02  0.18135673470E+03  0.79596375004E+02 0.  0.
          5    1    3    3  501    0 -0.53672074418E+02 -0.64890474334E+02 -0.52226848673E+01  0.84503441757E+02  0.47000000000E+01 0. -1.
        -13    1    4    4    0    0  0.19854774929E+02  0.30020226245E+01  0.21530087703E+02  0.29440939248E+02  0.00000000000E+00 0.  1.
         14    1    4    4    0    0 -0.93412725315E+02  0.39533915532E+02  0.40643498686E+02  0.10927379244E+03  0.00000000000E+00 0. -1.
         -5    1    5    5    0  502  0.36911611910E+01 -0.13642665593E+02 -0.40672188642E+02  0.43313553587E+02  0.47000000000E+01 0.  1.
         11    1    6    6    0    0  0.71556953939E+02 -0.19608521798E+02  0.39000212870E+02  0.83820691885E+02  0.00000000000E+00 0. -1.
        -12    1    6    6    0    0  0.51981909675E+02  0.55605723568E+02  0.60984950779E+02  0.97536042818E+02  0.00000000000E+00 0.  1.
</event>
<event>
12    1  0.9873238E-001  0.2176907E+03  0.7818608E-02  0.1135619E+00
         21   -1    0    0  503  502  0.00000000000E+00  0.00000000000E+00  0.90444811860E+03  0.90444811860E+03  0.00000000000E+00 0. -1.
         21   -1    0    0  501  503 -0.00000000000E+00 -0.00000000000E+00 -0.54691066254E+02  0.54691066254E+02  0.00000000000E+00 0. -1.
          6    2    1    2  501    0 -0.87126382646E+02 -0.10041267663E+03  0.52318241590E+03  0.56665956151E+03  0.17236445737E+03 0.  0.
         24    2    3    3    0    0 -0.11011625525E+03 -0.74453956076E+02  0.50246774107E+03  0.52599536143E+03  0.80797946625E+02 0.  0.
         -6    2    1    2    0  502  0.87126382646E+02  0.10041267663E+03  0.32657463644E+03  0.39247962334E+03  0.17238198684E+03 0.  0.
        -24    2    5    5    0    0  0.10839933735E+03  0.74084999227E+02  0.32353614601E+03  0.35817207864E+03  0.79828545604E+02 0.  0.
          5    1    3    3  501    0  0.22989872606E+02 -0.25958720555E+02  0.20714674826E+02  0.40664200084E+02  0.47000000000E+01 0. -1.
        -11    1    4    4    0    0 -0.47246373452E+02 -0.71594590589E+02  0.36280631267E+03  0.37280883267E+03  0.00000000000E+00 0.  1.
         12    1    4    4    0    0 -0.62869881800E+02 -0.28593654872E+01  0.13966142841E+03  0.15318652876E+03  0.00000000000E+00 0. -1.
         -5    1    5    5    0  502 -0.21272954700E+02  0.26327677404E+02  0.30384904308E+01  0.34307544698E+02  0.47000000000E+01 0.  1.
         11    1    6    6    0    0  0.27026831836E+02 -0.10618844629E+02  0.11722875442E+03  0.12077164553E+03  0.00000000000E+00 0. -1.
        -12    1    6    6    0    0  0.81372505510E+02  0.84703843856E+02  0.20630739159E+03  0.23740043311E+03  0.00000000000E+00 0.  1.
</event>
<event>
12    1  0.9873238E-001  0.4794279E+03  0.7818608E-02  0.1019307E+00
         21   -1    0    0  501  502  0.00000000000E+00  0.00000000000E+00  0.12190692262E+04  0.12190692262E+04  0.00000000000E+00 0. -1.
         21   -1    0    0  502  503 -0.00000000000E+00 -0.00000000000E+00 -0.20077431170E+03  0.20077431170E+03  0.00000000000E+00 0. -1.
         -6    2    1    2    0  503  0.11629620275E+03 -0.43210045306E+03  0.33347290010E+03  0.58399939606E+03  0.17209157791E+03 0.  0.
        -24    2    3    3    0    0  0.12135553473E+02 -0.30774252359E+03  0.21359456621E+03  0.38223904214E+03  0.75042082403E+02 0.  0.
          6    2    1    2  501    0 -0.11629620275E+03  0.43210045306E+03  0.68482201435E+03  0.83584414180E+03  0.17151859879E+03 0.  0.
         24    2    5    5    0    0 -0.11457151523E+03  0.33468541353E+03  0.62190610131E+03  0.71977017147E+03  0.78491673232E+02 0.  0.
          5    1    5    5  501    0 -0.17246875206E+01  0.97415039525E+02  0.62915913046E+02  0.11607397033E+03  0.47000000000E+01 0. -1.
        -11    1    6    6    0    0 -0.28010423647E+02  0.12271282383E+03  0.15438752439E+03  0.19919470036E+03  0.00000000000E+00 0.  1.
         12    1    6    6    0    0 -0.86561091585E+02  0.21197258970E+03  0.46751857691E+03  0.52057547111E+03  0.00000000000E+00 0. -1.
         -5    1    3    3    0  503  0.10416064928E+03 -0.12435792946E+03  0.11987833389E+03  0.20176035392E+03  0.47000000000E+01 0.  1.
         11    1    4    4    0    0  0.13352699428E+02 -0.24447015891E+03  0.12944114671E+03  0.27694577744E+03  0.00000000000E+00 0. -1.
        -12    1    4    4    0    0 -0.12171459549E+01 -0.63272364685E+02  0.84153419499E+02  0.10529326470E+03  0.00000000000E+00 0.  1.
</event>
<event>
12    1  0.9873238E-001  0.3205140E+03  0.7818608E-02  0.1075475E+00
         21   -1    0    0  503  502  0.00000000000E+00  0.00000000000E+00  0.76179314909E+03  0.76179314909E+03  0.00000000000E+00 0. -1.
         21   -1    0    0  501  503 -0.00000000000E+00 -0.00000000000E+00 -0.16143963793E+03  0.16143963793E+03  0.00000000000E+00 0. -1.
          6    2    1    2  501    0  0.59534540662E+01 -0.27039613910E+03  0.48851251336E+03  0.58427193732E+03  0.17198751520E+03 0.  0.
         24    2    3    3    0    0  0.23357039012E+02 -0.28512619507E+03  0.44843619373E+03  0.53792476143E+03  0.80159408266E+02 0.  0.
         -6    2    1    2    0  502 -0.59534540662E+01  0.27039613910E+03  0.11184099780E+03  0.33896084970E+03  0.17098693864E+03 0.  0.
        -24    2    5    5    0    0 -0.92134590973E+01  0.14234910940E+03 -0.43790311544E+01  0.16594103992E+03  0.84670514579E+02 0.  0.
          5    1    3    3  501    0 -0.17403584946E+02  0.14730055972E+02  0.40076319632E+02  0.46347175892E+02  0.47000000000E+01 0. -1.
        -11    1    4    4    0    0  0.20952055726E+02 -0.14677551998E+03  0.30213567069E+03  0.33655312420E+03  0.00000000000E+00 0.  1.
         12    1    4    4    0    0  0.24049832862E+01 -0.13835067508E+03  0.14630052303E+03  0.20137163723E+03  0.00000000000E+00 0. -1.
         -5    1    5    5    0  502  0.32600050311E+01  0.12804702969E+03  0.11622002895E+03  0.17301980978E+03  0.47000000000E+01 0.  1.
         11    1    6    6    0    0 -0.69492678319E+00 -0.76715969976E+01 -0.13348033078E+02  0.15411239755E+02  0.00000000000E+00 0. -1.
        -12    1    6    6    0    0 -0.85185323141E+01  0.15002070640E+03  0.89690019239E+01  0.15052980016E+03  0.00000000000E+00 0.  1.
</event>
<event>
12    1  0.9873238E-001  0.7701481E+03  0.7818608E-02  0.9604474E-01
         21   -1    0    0  503  502  0.00000000000E+00  0.00000000000E+00  0.11742422889E+04  0.11742422889E+04  0.00000000000E+00 0. -1.
         21   -1    0    0  501  503 -0.00000000000E+00 -0.00000000000E+00 -0.72215816220E+03  0.72215816220E+03  0.00000000000E+00 0.  1.
          6    2    1    2  501    0  0.11081602506E+03 -0.74222548078E+03  0.74636512128E+03  0.10724686130E+04  0.17305830168E+03 0.  0.
         24    2    3    3    0    0 -0.99186549822E+01 -0.34319578384E+03  0.36791264085E+03  0.50939674192E+03  0.79016476898E+02 0.  0.
         -6    2    1    2    0  502 -0.11081602506E+03  0.74222548078E+03 -0.29428099458E+03  0.82393183814E+03  0.17053889410E+03 0.  0.
        -24    2    5    5    0    0 -0.11765093305E+03  0.74400401468E+03 -0.28020329179E+03  0.80749557135E+03  0.78431480431E+02 0.  0.
          5    1    3    3  501    0  0.12073468004E+03 -0.39902969694E+03  0.37845248043E+03  0.56307187103E+03  0.47000000000E+01 0. -1.
        -13    1    4    4    0    0 -0.21589069312E+02 -0.30217495059E+03  0.28390932357E+03  0.41518705747E+03  0.00000000000E+00 0.  1.
         14    1    4    4    0    0  0.11670414330E+02 -0.41020833251E+02  0.84003317282E+02  0.94209684457E+02  0.00000000000E+00 0. -1.
         -5    1    5    5    0  502  0.68349079929E+01 -0.17785338963E+01 -0.14077702789E+02  0.16436266788E+02  0.47000000000E+01 0.  1.
         11    1    6    6    0    0 -0.42542609757E+01  0.14718346057E+02  0.52093290874E+01  0.16182260554E+02  0.00000000000E+00 0. -1.
        -12    1    6    6    0    0 -0.11339667207E+03  0.72928566862E+03 -0.28541262088E+03  0.79131331080E+03  0.00000000000E+00 0.  1.
</event>
<event>
12    1  0.9873238E-001  0.2860929E+03  0.7818608E-02  0.1092761E+00
         21   -1    0    0  503  502  0.00000000000E+00  0.00000000000E+00  0.13658121856E+04  0.13658121856E+04  0.00000000000E+00 0. -1.
         21   -1    0    0  501  503 -0.00000000000E+00 -0.00000000000E+00 -0.59941545015E+02  0.59941545015E+02  0.00000000000E+00 0. -1.
          6    2    1    2  501    0  0.11652173106E+03  0.19739272583E+03  0.72543800027E+03  0.77981372234E+03  0.17119564042E+03 0.  0.
         24    2    3    3    0    0  0.62655600658E+02  0.16171814315E+03  0.36171225394E+03  0.41036447766E+03  0.86514552283E+02 0.  0.
         -6    2    1    2    0  502 -0.11652173106E+03 -0.19739272583E+03  0.58043264030E+03  0.64594000825E+03  0.16671905206E+03 0.  0.
        -24    2    5    5    0    0  0.53221475660E+01 -0.78891507169E+02  0.22036344796E+03  0.24774359585E+03  0.81022496431E+02 0.  0.
          5    1    3    3  501    0  0.53866130398E+02  0.35674582681E+02  0.36372574633E+03  0.36944924468E+03  0.47000000000E+01 0. -1.
        -11    1    4    4    0    0 -0.17032903303E+02  0.71183946568E+02  0.13856199959E+03  0.15670578093E+03  0.00000000000E+00 0.  1.
         12    1    4    4    0    0  0.79688503961E+02  0.90534196586E+02  0.22315025435E+03  0.25365869674E+03  0.00000000000E+00 0. -1.
         -5    1    5    5    0  502 -0.12184387862E+03 -0.11850121867E+03  0.36006919233E+03  0.39819641240E+03  0.47000000000E+01 0.  1.
         13    1    6    6    0    0 -0.35845998304E+02 -0.33695575042E+02  0.71252461077E+02  0.86586607402E+02  0.00000000000E+00 0. -1.
        -14    1    6    6    0    0  0.41168145870E+02 -0.45195932127E+02  0.14911098689E+03  0.16115698845E+03  0.00000000000E+00 0.  1.
</event>
<event>
12    1  0.9873238E-001  0.2230745E+03  0.7818608E-02  0.1131983E+00
         21   -1    0    0  501  502  0.00000000000E+00  0.00000000000E+00  0.66064948487E+03  0.66064948487E+03  0.00000000000E+00 0.  1.
         21   -1    0    0  502  503 -0.00000000000E+00 -0.00000000000E+00 -0.84311631202E+02  0.84311631202E+02  0.00000000000E+00 0.  1.
         -6    2    1    2    0  503 -0.13245668584E+03 -0.47756524406E+02  0.16086819937E+03  0.27339219284E+03  0.17040907925E+03 0.  0.
        -24    2    3    3    0    0 -0.15056816944E+01 -0.15729000001E+02  0.10196205142E+03  0.12619860578E+03  0.72664707060E+02 0.  0.
          6    2    1    2  501    0  0.13245668584E+03  0.47756524406E+02  0.41546965429E+03  0.47156892322E+03  0.17302241609E+03 0.  0.
         24    2    5    5    0    0  0.16381880355E+02  0.39157602316E+02  0.25551777144E+03  0.27369523433E+03  0.88419827808E+02 0.  0.
          5    1    5    5  501    0  0.11607480549E+03  0.85989220901E+01  0.15995188285E+03  0.19787368889E+03  0.47000000000E+01 0. -1.
        -11    1    6    6    0    0  0.51555736635E+02  0.35075865852E+02  0.17326905794E+03  0.18414797524E+03  0.00000000000E+00 0.  1.
         12    1    6    6    0    0 -0.35173856280E+02  0.40817364638E+01  0.82248713504E+02  0.89547259093E+02  0.00000000000E+00 0. -1.
         -5    1    3    3    0  503 -0.13095100415E+03 -0.32027524405E+02  0.58906147956E+02  0.14719358707E+03  0.47000000000E+01 0.  1.
         11    1    4    4    0    0  0.13374485761E+02  0.49946880609E+01  0.99554201343E+02  0.10057267414E+03  0.00000000000E+00 0. -1.
        -12    1    4    4    0    0 -0.14880167455E+02 -0.20723688062E+02  0.24078500762E+01  0.25625931639E+02  0.00000000000E+00 0.  1.
</event>
<event>
12    1  0.9873238E-001  0.1942484E+03  0.7818608E-02  0.1154900E+00
         21   -1    0    0  501  502  0.00000000000E+00  0.00000000000E+00  0.72197004865E+02  0.72197004865E+02  0.00000000000E+00 0.  1.
         21   -1    0    0  502  503 -0.00000000000E+00 -0.00000000000E+00 -0.54716993345E+03  0.54716993345E+03  0.00000000000E+00 0.  1.
         -6    2    1    2    0  503  0.83777653539E+02 -0.33381272123E+02 -0.16904629875E+03  0.25750550401E+03  0.17204484565E+03 0.  0.
        -24    2    3    3    0    0  0.60616195335E+01 -0.12174236923E+02 -0.15945763726E+03  0.17624325747E+03  0.73824064162E+02 0.  0.
          6    2    1    2  501    0 -0.83777653539E+02  0.33381272123E+02 -0.30592662984E+03  0.36186143430E+03  0.17093738687E+03 0.  0.
         24    2    5    5    0    0 -0.34237010678E+02 -0.41628520426E+02 -0.10212539233E+03  0.13906606029E+03  0.77489784823E+02 0.  0.
          5    1    5    5  501    0 -0.49540642861E+02  0.75009792549E+02 -0.20380123750E+03  0.22279537401E+03  0.47000000000E+01 0. -1.
        -13    1    6    6    0    0 -0.47203430242E+02 -0.45835377708E+02 -0.10611921923E+03  0.12486126047E+03  0.00000000000E+00 0.  1.
         14    1    6    6    0    0  0.12966419564E+02  0.42068572819E+01  0.39938269001E+01  0.14204799815E+02  0.00000000000E+00 0. -1.
         -5    1    3    3    0  503  0.77716034006E+02 -0.21207035200E+02 -0.95886614908E+01  0.81262246540E+02  0.47000000000E+01 0.  1.
         11    1    4    4    0    0  0.38722216445E+02 -0.15794780533E+02 -0.98056102290E+02  0.10660152126E+03  0.00000000000E+00 0. -1.
        -12    1    4    4    0    0 -0.32660596912E+02  0.36205436096E+01 -0.61401534966E+02  0.69641736214E+02  0.00000000000E+00 0.  1.
</event>
<event>
12    1  0.9873238E-001  0.2084139E+03  0.7818608E-02  0.1143001E+00
         21   -1    0    0  503  502  0.00000000000E+00  0.00000000000E+00  0.58732091813E+02  0.58732091813E+02  0.00000000000E+00 0. -1.
         21   -1    0    0  501  503 -0.00000000000E+00 -0.00000000000E+00 -0.73722100744E+03  0.73722100744E+03  0.00000000000E+00 0. -1.
          6    2    1    2  501    0 -0.12944926480E+02  0.11496495480E+03 -0.35089957675E+03  0.40768626350E+03  0.17231675637E+03 0.  0.
         24    2    3    3    0    0  0.18477107691E+02  0.11483567301E+03 -0.34903252777E+03  0.37585959516E+03  0.76929152680E+02 0.  0.
         -6    2    1    2    0  502  0.12944926480E+02 -0.11496495480E+03 -0.32758933888E+03  0.38826683576E+03  0.17335469088E+03 0.  0.
        -24    2    5    5    0    0  0.54427522441E+02 -0.13008518134E+03 -0.23314213281E+03  0.28390308845E+03  0.79757130959E+02 0.  0.
          5    1    3    3  501    0 -0.31422034172E+02  0.12928178768E+00 -0.18670489833E+01  0.31826668333E+02  0.47000000000E+01 0. -1.
        -11    1    4    4    0    0 -0.25079331621E+02  0.15924954593E+02 -0.53651433770E+02  0.61327427787E+02  0.00000000000E+00 0.  1.
         12    1    4    4    0    0  0.43556439313E+02  0.98910718418E+02 -0.29538109400E+03  0.31453216737E+03  0.00000000000E+00 0. -1.
         -5    1    5    5    0  502 -0.41482595960E+02  0.15120226537E+02 -0.94447206070E+02  0.10436374731E+03  0.47000000000E+01 0.  1.
         11    1    6    6    0    0  0.29721002696E+02 -0.12968246907E+03 -0.16845927317E+03  0.21466114577E+03  0.00000000000E+00 0. -1.
        -12    1    6    6    0    0  0.24706519744E+02 -0.40271226300E+00 -0.64682859644E+02  0.69241942685E+02  0.00000000000E+00 0.  1.
</event>
<event>
12    1  0.9873238E-001  0.1750283E+03  0.7818608E-02  0.1173055E+00
         21   -1    0    0  503  502  0.00000000000E+00  0.00000000000E+00  0.28692419124E+02  0.28692419124E+02  0.00000000000E+00 0. -1.
         21   -1    0    0  501  503 -0.00000000000E+00 -0.00000000000E+00 -0.10940355941E+04  0.10940355941E+04  0.00000000000E+00 0. -1.
          6    2    1    2  501    0  0.18910346827E+02  0.26703268834E+02 -0.63078337020E+03  0.65424413223E+03  0.17051996555E+03 0.  0.
         24    2    3    3    0    0 -0.41931894106E+02 -0.68288861714E+01 -0.47717242732E+03  0.48558887594E+03  0.79360655321E+02 0.  0.
         -6    2    1    2    0  502 -0.18910346827E+02 -0.26703268834E+02 -0.43455980476E+03  0.46848388098E+03  0.17194259810E+03 0.  0.
        -24    2    5    5    0    0 -0.51701445736E+01  0.37659270771E+02 -0.35054276197E+03  0.36165559287E+03  0.80433754178E+02 0.  0.
          5    1    3    3  501    0  0.60842240934E+02  0.33532155005E+02 -0.15361094288E+03  0.16865525629E+03  0.47000000000E+01 0. -1.
        -11    1    4    4    0    0 -0.13445383375E+02  0.27794413821E+02 -0.77724957920E+02  0.83632989050E+02  0.00000000000E+00 0.  1.
         12    1    4    4    0    0 -0.28486510731E+02 -0.34623299992E+02 -0.39944746940E+03  0.40195588689E+03  0.00000000000E+00 0. -1.
         -5    1    5    5    0  502 -0.13740202254E+02 -0.64362539605E+02 -0.84017042789E+02  0.10682828811E+03  0.47000000000E+01 0.  1.
         13    1    6    6    0    0 -0.73965294455E+01  0.44606618339E+02 -0.87324915080E+02  0.98336665803E+02  0.00000000000E+00 0. -1.
        -14    1    6    6    0    0  0.22263848718E+01 -0.69473475678E+01 -0.26321784689E+03  0.26331892706E+03  0.00000000000E+00 0.  1.
</event>
<event>
12    1  0.9873238E-001  0.2173593E+03  0.7818608E-02  0.1139489E+00
         21   -1    0    0  503  502  0.00000000000E+00  0.00000000000E+00  0.51614850076E+03  0.51614850076E+03  0.00000000000E+00 0.  1.
         21   -1    0    0  501  503 -0.00000000000E+00 -0.00000000000E+00 -0.84655696206E+02  0.84655696206E+02  0.00000000000E+00 0.  1.
          6    2    1    2  501    0  0.28820569993E+02 -0.96941927399E+02  0.25139752778E+03  0.33233386228E+03  0.19239728819E+03 0.  0.
         24    2    3    3    0    0  0.30885532972E+02  0.18945581643E+02  0.16980670010E+03  0.19051238300E+03  0.78407917120E+02 0.  0.
         -6    2    1    2    0  502 -0.28820569993E+02  0.96941927399E+02  0.18009527678E+03  0.26847033469E+03  0.17150407968E+03 0.  0.
        -24    2    5    5    0    0  0.54067628224E+01  0.70726157518E+02  0.19550645826E+03  0.22244456563E+03  0.78913795483E+02 0.  0.
          5    1    3    3  501    0 -0.20649629794E+01 -0.11588750904E+03  0.81590827681E+02  0.14182147928E+03  0.47000000000E+01 0. -1.
        -13    1    4    4    0    0  0.56389107709E+02  0.13097636749E+02  0.94856447381E+02  0.11112616778E+03  0.00000000000E+00 0.  1.
         14    1    4    4    0    0 -0.25503574737E+02  0.58479448939E+01  0.74950252719E+02  0.79386215217E+02  0.00000000000E+00 0. -1.
         -5    1    5    5    0  502 -0.34227332815E+02  0.26215769881E+02 -0.15411181483E+02  0.46025769052E+02  0.47000000000E+01 0.  1.
         13    1    6    6    0    0 -0.34962479640E+02  0.26445843979E+02  0.60258144628E+02  0.74517123135E+02  0.00000000000E+00 0. -1.
        -14    1    6    6    0    0  0.40369242462E+02  0.44280313539E+02  0.13524831363E+03  0.14792744250E+03  0.00000000000E+00 0.  1.
</event>
<event>
12    1  0.9873238E-001  0.1770197E+03  0.7818608E-02  0.1170872E+00
         21   -1    0    0  503  502  0.00000000000E+00  0.00000000000E+00  0.33672140877E+03  0.33672140877E+03  0.00000000000E+00 0. -1.
         21   -1    0    0  501  503 -0.00000000000E+00 -0.00000000000E+00 -0.96035857409E+02  0.96035857409E+02  0.00000000000E+00 0. -1.
          6    2    1    2  501    0  0.25449976962E+02 -0.35405542157E+02  0.80035075817E+02  0.19370798863E+03  0.17092664437E+03 0.  0.
         24    2    3    3    0    0  0.75604283677E+02 -0.34068082827E+02  0.31621179168E+02  0.12382781499E+03  0.86352688529E+02 0.  0.
         -6    2    1    2    0  502 -0.25449976962E+02  0.35405542157E+02  0.16065047555E+03  0.23904927755E+03  0.17156552119E+03 0.  0.
        -24    2    5    5    0    0 -0.39617009512E+02 -0.26089688152E+02  0.14493125616E+03  0.17384535113E+03  0.83468304329E+02 0.  0.
          5    1    3    3  501    0 -0.50154306714E+02 -0.13374593295E+01  0.48413896649E+02  0.69880173642E+02  0.47000000000E+01 0. -1.
        -11    1    4    4    0    0  0.50435839751E+02  0.15819677999E+01  0.54734537061E+02  0.74445591547E+02  0.00000000000E+00 0.  1.
         12    1    4    4    0    0  0.25168443925E+02 -0.35650050627E+02 -0.23113357893E+02  0.49382223446E+02  0.00000000000E+00 0. -1.
         -5    1    5    5    0  502  0.14167032550E+02  0.61495230309E+02  0.15719219390E+02  0.65203926418E+02  0.47000000000E+01 0.  1.
         11    1    6    6    0    0 -0.65120747564E+02 -0.12630518276E+02  0.11104881635E+03  0.12935254682E+03  0.00000000000E+00 0. -1.
        -12    1    6    6    0    0  0.25503738052E+02 -0.13459169877E+02  0.33882439810E+02  0.44492804315E+02  0.00000000000E+00 0.  1.
</event>
<event>
12    1  0.9873238E-001  0.1930580E+03  0.7818608E-02  0.1155919E+00
         21   -1    0    0  501  502  0.00000000000E+00  0.00000000000E+00  0.92406519283E+02  0.92406519283E+02  0.00000000000E+00 0.  1.
         21   -1    0    0  502  503 -0.00000000000E+00 -0.00000000000E+00 -0.46345204945E+03  0.46345204945E+03  0.00000000000E+00 0.  1.
         -6    2    1    2    0  503  0.76646784470E+02 -0.29207524053E+02 -0.28671970891E+03  0.34518760674E+03  0.17383464367E+03 0.  0.
        -24    2    3    3    0    0  0.61287120370E+02  0.35356673306E+02 -0.96660724176E+02  0.14381987710E+03  0.79590552084E+02 0.  0.
          6    2    1    2  501    0 -0.76646784470E+02  0.29207524053E+02 -0.84325821251E+02  0.21067096198E+03  0.17476727687E+03 0.  0.
         24    2    5    5    0    0  0.25378892526E+02  0.23897826704E+02 -0.56871235188E+02  0.10477820516E+03  0.80801859987E+02 0.  0.
          5    1    5    5  501    0 -0.10202567700E+03  0.53096973496E+01 -0.27454586062E+02  0.10589275683E+03  0.47000000000E+01 0. -1.
        -11    1    6    6    0    0  0.38978553953E+01  0.33620856704E+02 -0.70026904926E+02  0.77777391932E+02  0.00000000000E+00 0.  1.
         12    1    6    6    0    0  0.21481037131E+02 -0.97230300007E+01  0.13155669738E+02  0.27000813226E+02  0.00000000000E+00 0. -1.
         -5    1    3    3    0  503  0.15359664100E+02 -0.64564197359E+02 -0.19005898474E+03  0.20136772964E+03  0.47000000000E+01 0.  1.
         11    1    4    4    0    0  0.65007358179E+02  0.64790247997E+01 -0.94149872596E+02  0.11459551863E+03  0.00000000000E+00 0. -1.
        -12    1    4    4    0    0 -0.37202378086E+01  0.28877648506E+02 -0.25108515800E+01  0.29224358475E+02  0.00000000000E+00 0.  1.
</event>
<event>
12    1  0.9873238E-001  0.7795350E+03  0.7818608E-02  0.9590134E-01
         21   -1    0    0  503  502  0.00000000000E+00  0.00000000000E+00  0.17626770229E+04  0.17626770229E+04  0.00000000000E+00 0. -1.
         21   -1    0    0  501  503 -0.00000000000E+00 -0.00000000000E+00 -0.37628674605E+03  0.37628674605E+03  0.00000000000E+00 0. -1.
          6    2    1    2  501    0  0.73356058059E+03 -0.20107086296E+03  0.10029250494E+04  0.12702493451E+04  0.17068721875E+03 0.  0.
         24    2    3    3    0    0  0.32987137032E+03 -0.15473183452E+03  0.48203268777E+03  0.60959570932E+03  0.80587562128E+02 0.  0.
         -6    2    1    2    0  502 -0.73356058059E+03  0.20107086296E+03  0.38346522740E+03  0.86871442382E+03  0.17052434487E+03 0.  0.
        -24    2    5    5    0    0 -0.52481726040E+03  0.11940771243E+03  0.33667542156E+03  0.63968599805E+03  0.78463227159E+02 0.  0.
          5    1    3    3  501    0  0.40368921028E+03 -0.46339028438E+02  0.52089236164E+03  0.66065363578E+03  0.47000000000E+01 0. -1.
        -13    1    4    4    0    0  0.16171804842E+03 -0.87914846851E+02  0.30635145345E+03  0.35739748252E+03  0.00000000000E+00 0.  1.
         14    1    4    4    0    0  0.16815332190E+03 -0.66816987673E+02  0.17568123431E+03  0.25219822679E+03  0.00000000000E+00 0. -1.
         -5    1    5    5    0  502 -0.20874332019E+03  0.81663150527E+02  0.46789805841E+02  0.22902842576E+03  0.47000000000E+01 0.  1.
         13    1    6    6    0    0 -0.48450184552E+02 -0.49214386435E+01  0.12702357305E+02  0.50328826954E+02  0.00000000000E+00 0. -1.
        -14    1    6    6    0    0 -0.47636707585E+03  0.12432915108E+03  0.32397306426E+03  0.58935717110E+03  0.00000000000E+00 0.  1.
</event>
<event>
12    1  0.9873238E-001  0.1917251E+03  0.7818608E-02  0.1157242E+00
         21   -1    0    0  501  502  0.00000000000E+00  0.00000000000E+00  0.39655370913E+03  0.39655370913E+03  0.00000000000E+00 0. -1.
         21   -1    0    0  502  503 -0.00000000000E+00 -0.00000000000E+00 -0.10356201647E+03  0.10356201647E+03  0.00000000000E+00 0. -1.
         -6    2    1    2    0  503 -0.78866545087E+02  0.26964736750E+02  0.62402110919E+02  0.20023228284E+03  0.17103191130E+03 0.  0.
        -24    2    3    3    0    0 -0.49809143184E+02 -0.40616261158E+02 -0.23408772761E+01  0.10212383058E+03  0.79329475301E+02 0.  0.
          6    2    1    2  501    0  0.78866545087E+02 -0.26964736750E+02  0.23058958174E+03  0.29988344277E+03  0.17266005640E+03 0.  0.
         24    2    5    5    0    0  0.42112933841E+02  0.29682104472E+02  0.51218987662E+02  0.10816596161E+03  0.80137157624E+02 0.  0.
          5    1    5    5  501    0  0.36753611246E+02 -0.56646841222E+02  0.17937059408E+03  0.19171748115E+03  0.47000000000E+01 0. -1.
        -11    1    6    6    0    0  0.15270745933E+02  0.15492567850E+02  0.69432212704E+02  0.72760205476E+02  0.00000000000E+00 0.  1.
         12    1    6    6    0    0  0.26842187908E+02  0.14189536622E+02 -0.18213225042E+02  0.35405756138E+02  0.00000000000E+00 0. -1.
         -5    1    3    3    0  503 -0.29057401904E+02  0.67580997908E+02  0.64742988195E+02  0.98108452256E+02  0.47000000000E+01 0.  1.
         11    1    4    4    0    0 -0.65475455044E+02 -0.49728789267E+02 -0.92284379045E+01  0.82735432321E+02  0.00000000000E+00 0. -1.
        -12    1    4    4    0    0  0.15666311860E+02  0.91125281086E+01  0.68875606284E+01  0.19388398264E+02  0.00000000000E+00 0.  1.
</event>
<event>
12    1  0.9873238E-001  0.3203493E+03  0.7818608E-02  0.1075654E+00
         21   -1    0    0  503  502  0.00000000000E+00  0.00000000000E+00  0.48042425578E+03  0.48042425578E+03  0.00000000000E+00 0.  1.
         21   -1    0    0  501  503 -0.00000000000E+00 -0.00000000000E+00 -0.21267224171E+03  0.21267224171E+03  0.00000000000E+00 0.  1.
          6    2    1    2  501    0  0.23516938321E+03  0.13009891043E+03  0.13048782338E+03  0.34457797374E+03  0.17168733978E+03 0.  0.
         24    2    3    3    0    0  0.88982487755E+02  0.10918454363E+03  0.10891050216E+03  0.19526056038E+03  0.80162592681E+02 0.  0.
         -6    2    1    2    0  502 -0.23516938321E+03 -0.13009891043E+03  0.13726419070E+03  0.34851852375E+03  0.17433685225E+03 0.  0.
        -24    2    5    5    0    0 -0.20647073927E+03 -0.16203677763E+03  0.13318768854E+03  0.30513249610E+03  0.80503393221E+02 0.  0.
          5    1    3    3  501    0  0.14618689546E+03  0.20914366804E+02  0.21577321224E+02  0.14931741336E+03  0.47000000000E+01 0. -1.
        -11    1    4    4    0    0  0.48698903972E+02  0.24478556979E+02  0.80572208166E+02  0.97276223861E+02  0.00000000000E+00 0.  1.
         12    1    4    4    0    0  0.40283583783E+02  0.84705986650E+02  0.28338293990E+02  0.97984336519E+02  0.00000000000E+00 0. -1.
         -5    1    5    5    0  502 -0.28698643940E+02  0.31937867194E+02  0.40765021526E+01  0.43386027644E+02  0.47000000000E+01 0.  1.
         11    1    6    6    0    0 -0.62973437577E+02 -0.52585443876E+02  0.85432495742E+02  0.11844658744E+03  0.00000000000E+00 0. -1.
        -12    1    6    6    0    0 -0.14349730169E+03 -0.10945133375E+03  0.47755192801E+02  0.18668590866E+03  0.00000000000E+00 0.  1.
</event>
<event>
12    1  0.9873238E-001  0.2496109E+03  0.7818608E-02  0.1113592E+00
         21   -1    0    0  501  502  0.00000000000E+00  0.00000000000E+00  0.90785875937E+03  0.90785875937E+03  0.00000000000E+00 0. -1.
         21   -1    0    0  502  503 -0.00000000000E+00 -0.00000000000E+00 -0.10074220457E+03  0.10074220457E+03  0.00000000000E+00 0. -1.
         -6    2    1    2    0  503 -0.14694018010E+03  0.10407840962E+03  0.68845562681E+03  0.73222072889E+03  0.17248859050E+03 0.  0.
        -24    2    3    3    0    0 -0.57338035873E+02 -0.35004009059E+01  0.17611243502E+03  0.20107161527E+03  0.78193999354E+02 0.  0.
          6    2    1    2  501    0  0.14694018010E+03 -0.10407840962E+03  0.11866092799E+03  0.27638023505E+03  0.17286378052E+03 0.  0.
         24    2    5    5    0    0  0.66517416356E+02  0.54737530282E+01  0.14290482244E+02  0.10496034934E+03  0.79736618946E+02 0.  0.
          5    1    5    5  501    0  0.80422763748E+02 -0.10955216265E+03  0.10437044575E+03  0.17141988570E+03  0.47000000000E+01 0. -1.
        -11    1    6    6    0    0  0.63018310813E+02 -0.18586445075E+02  0.33708395240E+02  0.73844562074E+02  0.00000000000E+00 0.  1.
         12    1    6    6    0    0  0.34991055434E+01  0.24060198103E+02 -0.19417912996E+02  0.31115787271E+02  0.00000000000E+00 0. -1.
         -5    1    3    3    0  503 -0.89602144231E+02  0.10757881053E+03  0.51234319179E+03  0.53114911362E+03  0.47000000000E+01 0.  1.
         11    1    4    4    0    0 -0.14717337074E+02  0.34186449639E+02  0.46792252363E+02  0.59789867291E+02  0.00000000000E+00 0. -1.
        -12    1    4    4    0    0 -0.42620698799E+02 -0.37686850544E+02  0.12932018266E+03  0.14128174798E+03  0.00000000000E+00 0.  1.
</event>
<event>
12    1  0.9873238E-001  0.2220197E+03  0.7818608E-02  0.1132404E+00
         21   -1    0    0  503  502  0.00000000000E+00  0.00000000000E+00  0.64043200316E+03  0.64043200316E+03  0.00000000000E+00 0.  1.
         21   -1    0    0  501  503 -0.00000000000E+00 -0.00000000000E+00 -0.76934095031E+02  0.76934095031E+02  0.00000000000E+00 0.  1.
          6    2    1    2  501    0  0.14014971479E+03 -0.13602945750E+02  0.28254108939E+03  0.35927464683E+03  0.17152790435E+03 0.  0.
         24    2    3    3    0    0  0.45480874645E+02  0.36937118269E+02  0.70401869965E+02  0.12148981598E+03  0.79815358339E+02 0.  0.
         -6    2    1    2    0  502 -0.14014971479E+03  0.13602945750E+02  0.28095681874E+03  0.35809145136E+03  0.17165596656E+03 0.  0.
        -24    2    5    5    0    0 -0.16862395861E+03  0.11611211080E+02  0.21088739470E+03  0.28228535825E+03  0.81502580301E+02 0.  0.
          5    1    3    3  501    0  0.94668840147E+02 -0.50540064019E+02  0.21213921942E+03  0.23778483085E+03  0.47000000000E+01 0. -1.
        -13    1    4    4    0    0 -0.61536084457E+01 -0.20712322746E+02  0.14576119662E+02  0.26063968900E+02  0.00000000000E+00 0.  1.
         14    1    4    4    0    0  0.51634483090E+02  0.57649441014E+02  0.55825750303E+02  0.95425847076E+02  0.00000000000E+00 0. -1.
         -5    1    5    5    0  502  0.28474243823E+02  0.19917346707E+01  0.70069424041E+02  0.75806093117E+02  0.47000000000E+01 0.  1.
         11    1    6    6    0    0 -0.57285878800E+02 -0.22233504929E+02  0.11930821078E+03  0.13420301715E+03  0.00000000000E+00 0. -1.
        -12    1    6    6    0    0 -0.11133807981E+03  0.33844716009E+02  0.91579183916E+02  0.14808234110E+03  0.00000000000E+00 0.  1.
</event>
<event>
12    1  0.9873238E-001  0.1811845E+03  0.7818608E-02  0.1166743E+00
         21   -1    0    0  503  502  0.00000000000E+00  0.00000000000E+00  0.35925862111E+03  0.35925862111E+03  0.00000000000E+00 0.  1.
         21   -1    0    0  501  503 -0.00000000000E+00 -0.00000000000E+00 -0.92355821138E+02  0.92355821138E+02  0.00000000000E+00 0.  1.
          6    2    1    2  501    0 -0.50266294025E+02 -0.24832677178E+02  0.15852580849E+03  0.24049031386E+03  0.17193544409E+03 0.  0.
         24    2    3    3    0    0 -0.62702083712E+02 -0.52008493468E+02  0.17383208469E+03  0.20658535925E+03  0.76311744156E+02 0.  0.
         -6    2    1    2    0  502  0.50266294025E+02  0.24832677178E+02  0.10837699148E+03  0.21112412838E+03  0.17229179647E+03 0.  0.
        -24    2    5    5    0    0 -0.73408144936E+01  0.51031556584E+02  0.10809725444E+02  0.94735032517E+02  0.78738611222E+02 0.  0.
          5    1    3    3  501    0  0.12435789688E+02  0.27175816290E+02 -0.15306276198E+02  0.33904954611E+02  0.47000000000E+01 0. -1.
        -11    1    4    4    0    0  0.86408757358E+01 -0.11872794099E+02  0.83088700261E+02  0.84376300489E+02  0.00000000000E+00 0.  1.
         12    1    4    4    0    0 -0.71342959448E+02 -0.40135699368E+02  0.90743384424E+02  0.12220905876E+03  0.00000000000E+00 0. -1.
         -5    1    5    5    0  502  0.57607108518E+02 -0.26198879406E+02  0.97567266037E+02  0.11638909586E+03  0.47000000000E+01 0.  1.
         13    1    6    6    0    0  0.35856527967E+02  0.22662830760E+02  0.39394168950E+01  0.42600627946E+02  0.00000000000E+00 0. -1.
        -14    1    6    6    0    0 -0.43197342460E+02  0.28368725824E+02  0.68703085485E+01  0.52134404572E+02  0.00000000000E+00 0.  1.
</event>
<event>
12    1  0.9873238E-001  0.1897887E+03  0.7818608E-02  0.1159008E+00
         21   -1    0    0  503  502  0.00000000000E+00  0.00000000000E+00  0.54599413346E+03  0.54599413346E+03  0.00000000000E+00 0.  1.
         21   -1    0    0  501  503 -0.00000000000E+00 -0.00000000000E+00 -0.69486450084E+02  0.69486450084E+02  0.00000000000E+00 0.  1.
          6    2    1    2  501    0  0.53418412756E+02 -0.63720549353E+02  0.31357217865E+03  0.36653414310E+03  0.17060460605E+03 0.  0.
         24    2    3    3    0    0  0.45083926961E+02  0.18011272694E+02  0.97139918101E+02  0.13498594554E+03  0.80175279171E+02 0.  0.
         -6    2    1    2    0  502 -0.53418412756E+02  0.63720549353E+02  0.16293550472E+03  0.24894644044E+03  0.16885649610E+03 0.  0.
        -24    2    5    5    0    0 -0.12826972513E+01  0.79318325786E+02  0.47272966290E+02  0.12103500132E+03  0.78241268426E+02 0.  0.
          5    1    3    3  501    0  0.83344857947E+01 -0.81731822048E+02  0.21643226055E+03  0.23154819756E+03  0.47000000000E+01 0. -1.
        -11    1    4    4    0    0  0.52165031497E+02  0.25692561364E+02  0.10625215182E+03  0.12112315215E+03  0.00000000000E+00 0.  1.
         12    1    4    4    0    0 -0.70811045363E+01 -0.76812886696E+01 -0.91122337213E+01  0.13862793386E+02  0.00000000000E+00 0. -1.
         -5    1    5    5    0  502 -0.52135715504E+02 -0.15597776432E+02  0.11566253843E+03  0.12791143912E+03  0.47000000000E+01 0.  1.
         11    1    6    6    0    0 -0.35788111424E+02  0.63133891033E+02  0.37507064196E+02  0.81691229523E+02  0.00000000000E+00 0. -1.
        -12    1    6    6    0    0  0.34505414173E+02  0.16184434753E+02  0.97659020938E+01  0.39343771797E+02  0.00000000000E+00 0.  1.
</event>
<event>
12    1  0.9873238E-001  0.1989561E+03  0.7818608E-02  0.1152613E+00
         21   -1    0    0  503  502  0.00000000000E+00  0.00000000000E+00  0.38211197226E+03  0.38211197226E+03  0.00000000000E+00 0.  1.
         21   -1    0    0  501  503 -0.00000000000E+00 -0.00000000000E+00 -0.10002051155E+03  0.10002051155E+03  0.00000000000E+00 0.  1.
          6    2    1    2  501    0  0.71295686163E+02 -0.49569198907E+02  0.16341500712E+03  0.25046974440E+03  0.16879113709E+03 0.  0.
         24    2    3    3    0    0 -0.13422374552E+02 -0.37790551931E+02  0.12266750245E+03  0.15561018783E+03  0.86942098222E+02 0.  0.
         -6    2    1    2    0  502 -0.71295686163E+02  0.49569198907E+02  0.11867645359E+03  0.23166273942E+03  0.17900654695E+03 0.  0.
        -24    2    5    5    0    0  0.19262184877E+02  0.59445690091E+02  0.29177849637E+02  0.10387242994E+03  0.77674403481E+02 0.  0.
          5    1    3    3  501    0  0.84718060715E+02 -0.11778646976E+02  0.40747504668E+02  0.94859556569E+02  0.47000000000E+01 0. -1.
        -11    1    4    4    0    0  0.16609898141E+01 -0.58847681930E+02  0.46078695212E+02  0.74759980659E+02  0.00000000000E+00 0.  1.
         12    1    4    4    0    0 -0.15083364366E+02  0.21057129999E+02  0.76588807241E+02  0.80850207167E+02  0.00000000000E+00 0. -1.
         -5    1    5    5    0  502 -0.90557871040E+02 -0.98764911846E+01  0.89498603954E+02  0.12779030947E+03  0.47000000000E+01 0.  1.
         11    1    6    6    0    0 -0.11715352138E+02  0.32160609893E+02 -0.20017749362E+02  0.39651791813E+02  0.00000000000E+00 0. -1.
        -12    1    6    6    0    0  0.30977537015E+02  0.27285080198E+02  0.49195598999E+02  0.64220638130E+02  0.00000000000E+00 0.  1.
</event>
<event>
12    1  0.9873238E-001  0.1720917E+03  0.7818608E-02  0.1176026E+00
         21   -1    0    0  503  502  0.00000000000E+00  0.00000000000E+00  0.64562125382E+02  0.64562125382E+02  0.00000000000E+00 0. -1.
         21   -1    0    0  501  503 -0.00000000000E+00 -0.00000000000E+00 -0.46062871650E+03  0.46062871650E+03  0.00000000000E+00 0. -1.
          6    2    1    2  501    0 -0.53456630401E+01  0.11129152943E+02 -0.22583100094E+03  0.28312536242E+03  0.17031704465E+03 0.  0.
         24    2    3    3    0    0 -0.39680861156E+02  0.50902595769E+02 -0.88766966462E+02  0.13625987249E+03  0.80756012268E+02 0.  0.
         -6    2    1    2    0  502  0.53456630401E+01 -0.11129152943E+02 -0.17023559018E+03  0.24206547946E+03  0.17164820427E+03 0.  0.
        -24    2    5    5    0    0  0.44011213017E+02  0.69110687865E+01 -0.17613190402E+03  0.19873730304E+03  0.80556304918E+02 0.  0.
          5    1    3    3  501    0  0.34335198116E+02 -0.39773442826E+02 -0.13706403448E+03  0.14686548993E+03  0.47000000000E+01 0. -1.
        -11    1    4    4    0    0  0.15395991978E+02  0.33752018472E+01 -0.52807278334E+02  0.55109320460E+02  0.00000000000E+00 0.  1.
         12    1    4    4    0    0 -0.55076853135E+02  0.47527393922E+02 -0.35959688128E+02  0.81150552028E+02  0.00000000000E+00 0. -1.
         -5    1    5    5    0  502 -0.38665549977E+02 -0.18040221729E+02  0.58963138491E+01  0.43328176423E+02  0.47000000000E+01 0.  1.
         13    1    6    6    0    0  0.58290203105E+02  0.16001622240E+02 -0.75620092846E+02  0.96810113802E+02  0.00000000000E+00 0. -1.
        -14    1    6    6    0    0 -0.14278990087E+02 -0.90905534536E+01 -0.10051181118E+03  0.10192718924E+03  0.00000000000E+00 0.  1.
</event>
<event>
12    1  0.9873238E-001  0.3421271E+03  0.7818608E-02  0.1066536E+00
         21   -1    0    0  501  502  0.00000000000E+00  0.00000000000E+00  0.52810341058E+03  0.52810341058E+03  0.00000000000E+00 0.  1.
         21   -1    0    0  502  503 -0.00000000000E+00 -0.00000000000E+00 -0.24662918961E+03  0.24662918961E+03  0.00000000000E+00 0.  1.
         -6    2    1    2    0  503  0.28723684289E+03 -0.28084565909E+02  0.27216018308E+03  0.43247873363E+03  0.17225836130E+03 0.  0.
        -24    2    3    3    0    0  0.46173775061E+02 -0.23452016312E+02  0.85491346227E+02  0.12751937923E+03  0.79185902957E+02 0.  0.
          6    2    1    2  501    0 -0.28723684289E+03  0.28084565909E+02  0.93140379002E+01  0.34225386656E+03  0.18373135584E+03 0.  0.
         24    2    5    5    0    0 -0.85994110445E+02  0.37117619016E+02  0.58782245454E+02  0.13477030825E+03  0.77038814454E+02 0.  0.
          5    1    5    5  501    0 -0.20124273245E+03 -0.90330531066E+01 -0.49468207554E+02  0.20748355831E+03  0.47000000000E+01 0. -1.
        -11    1    6    6    0    0 -0.32409080029E+00  0.17063586374E+02 -0.12808640277E+02  0.21338516362E+02  0.00000000000E+00 0.  1.
         12    1    6    6    0    0 -0.85670019645E+02  0.20054032642E+02  0.71590885731E+02  0.11343179189E+03  0.00000000000E+00 0. -1.
         -5    1    3    3    0  503  0.24106306783E+03 -0.46325495972E+01  0.18666883685E+03  0.30495935440E+03  0.47000000000E+01 0.  1.
         13    1    4    4    0    0  0.67881934061E+01  0.28396872744E+02  0.31333575218E+02  0.42828202008E+02  0.00000000000E+00 0. -1.
        -14    1    4    4    0    0  0.39385581655E+02 -0.51848889056E+02  0.54157771009E+02  0.84691177222E+02  0.00000000000E+00 0.  1.
</event>
<event>
12    1  0.9873238E-001  0.1961401E+03  0.7818608E-02  0.1153316E+00
         21   -1    0    0  503  502  0.00000000000E+00  0.00000000000E+00  0.26350553772E+02  0.26350553772E+02  0.00000000000E+00 0. -1.
         21   -1    0    0  501  503 -0.00000000000E+00 -0.00000000000E+00 -0.14519739352E+04  0.14519739352E+04  0.00000000000E+00 0. -1.
          6    2    1    2  501    0 -0.92943702822E+02  0.19161890670E+02 -0.73476776204E+03  0.76016543983E+03  0.17018261320E+03 0.  0.
         24    2    3    3    0    0 -0.11522399127E+03  0.25898755527E+02 -0.71553532515E+03  0.72960773655E+03  0.79933309665E+02 0.  0.
         -6    2    1    2    0  502  0.92943702822E+02 -0.19161890670E+02 -0.69085561935E+03  0.71815904910E+03  0.17165437096E+03 0.  0.
        -24    2    5    5    0    0  0.45713518031E+02 -0.75297847232E+02 -0.38306372055E+03  0.40171019235E+03  0.82908220969E+02 0.  0.
          5    1    3    3  501    0  0.22280288443E+02 -0.67368648564E+01 -0.19232436887E+02  0.30557703281E+02  0.47000000000E+01 0. -1.
        -13    1    4    4    0    0 -0.99817511542E+01  0.35546905121E+02 -0.18661240995E+03  0.19022988558E+03  0.00000000000E+00 0.  1.
         14    1    4    4    0    0 -0.10524224011E+03 -0.96481495949E+01 -0.52892291521E+03  0.53937785098E+03  0.00000000000E+00 0. -1.
         -5    1    5    5    0  502  0.47230184791E+02  0.56135956561E+02 -0.30779189880E+03  0.31644885675E+03  0.47000000000E+01 0.  1.
         11    1    6    6    0    0 -0.19340829635E+02  0.17493874469E+01 -0.79448078892E+02  0.81787072861E+02  0.00000000000E+00 0. -1.
        -12    1    6    6    0    0  0.65054347667E+02 -0.77047234678E+02 -0.30361564166E+03  0.31992311949E+03  0.00000000000E+00 0.  1.
</event>
<event>
12    1  0.9873238E-001  0.3153315E+03  0.7818608E-02  0.1078156E+00
         21   -1    0    0  501  502  0.00000000000E+00  0.00000000000E+00  0.72838416594E+03  0.72838416594E+03  0.00000000000E+00 0.  1.
         21   -1    0    0  502  503 -0.00000000000E+00 -0.00000000000E+00 -0.14377960875E+03  0.14377960875E+03  0.00000000000E+00 0. -1.
         -6    2    1    2    0  503  0.19860376895E+03 -0.17419366324E+03  0.39710968000E+03  0.50530104466E+03  0.16687168254E+03 0.  0.
        -24    2    3    3    0    0  0.17080307710E+03 -0.73433788522E+02  0.30469079383E+03  0.36569885506E+03  0.79579898890E+02 0.  0.
          6    2    1    2  501    0 -0.19860376895E+03  0.17419366324E+03  0.18749487718E+03  0.36686273003E+03  0.17218317095E+03 0.  0.
         24    2    5    5    0    0 -0.11361937657E+03  0.58932351920E+02  0.16186079277E+03  0.22130616673E+03  0.79969483939E+02 0.  0.
          5    1    5    5  501    0 -0.84984392380E+02  0.11526131132E+03  0.25634084410E+02  0.14555656329E+03  0.47000000000E+01 0. -1.
        -13    1    6    6    0    0 -0.10940215271E+03  0.71418051373E+02  0.11991416476E+03  0.17733802747E+03  0.00000000000E+00 0.  1.
         14    1    6    6    0    0 -0.42172238640E+01 -0.12485699453E+02  0.41946628018E+02  0.43968139261E+02  0.00000000000E+00 0. -1.
         -5    1    3    3    0  503  0.27800691853E+02 -0.10075987471E+03  0.92418886173E+02  0.13960218960E+03  0.47000000000E+01 0.  1.
         13    1    4    4    0    0  0.15580948785E+03 -0.53608463065E+02  0.20529567768E+03  0.26324281394E+03  0.00000000000E+00 0. -1.
        -14    1    4    4    0    0  0.14993589243E+02 -0.19825325457E+02  0.99395116150E+02  0.10245604112E+03  0.00000000000E+00 0.  1.
</event>
<event>
12    1  0.9873238E-001  0.3299229E+03  0.7818608E-02  0.1071179E+00
         21   -1    0    0  503  502  0.00000000000E+00  0.00000000000E+00  0.86043032334E+02  0.86043032334E+02  0.00000000000E+00 0.  1.
         21   -1    0    0  501  503 -0.00000000000E+00 -0.00000000000E+00 -0.12730902802E+04  0.12730902802E+04  0.00000000000E+00 0.  1.
          6    2    1    2  501    0 -0.28146572489E+03  0.93403479462E+01 -0.64837944476E+03  0.72745922466E+03  0.17172892236E+03 0.  0.
         24    2    3    3    0    0 -0.23621613003E+03  0.26275754865E+02 -0.62509932907E+03  0.67362254916E+03  0.80806510640E+02 0.  0.
         -6    2    1    2    0  502  0.28146572489E+03 -0.93403479462E+01 -0.53866780314E+03  0.63167408791E+03  0.17186900478E+03 0.  0.
        -24    2    5    5    0    0  0.17887996868E+03  0.44744906334E+02 -0.24867305337E+03  0.31931516454E+03  0.78254309779E+02 0.  0.
          5    1    3    3  501    0 -0.45249594858E+02 -0.16935406919E+02 -0.23280115696E+02  0.53836675502E+02  0.47000000000E+01 0. -1.
        -13    1    4    4    0    0 -0.19124619440E+03  0.43520748345E+02 -0.42923655412E+03  0.47192497476E+03  0.00000000000E+00 0.  1.
         14    1    4    4    0    0 -0.44969935631E+02 -0.17244993480E+02 -0.19586277495E+03  0.20169757441E+03  0.00000000000E+00 0. -1.
         -5    1    5    5    0  502  0.10258575621E+03 -0.54085254280E+02 -0.28999474978E+03  0.31235892336E+03  0.47000000000E+01 0.  1.
         13    1    6    6    0    0  0.51184047959E+02  0.56507166165E+01 -0.21514323691E+02  0.55808632734E+02  0.00000000000E+00 0. -1.
        -14    1    6    6    0    0  0.12769592072E+03  0.39094189717E+02 -0.22715872968E+03  0.26350653181E+03  0.00000000000E+00 0.  1.
</event>
<event>
12    1  0.9873238E-001  0.1843537E+03  0.7818608E-02  0.1163961E+00
         21   -1    0    0  503  502  0.00000000000E+00  0.00000000000E+00  0.12568737424E+03  0.12568737424E+03  0.00000000000E+00 0. -1.
         21   -1    0    0  501  503 -0.00000000000E+00 -0.00000000000E+00 -0.27023743009E+03  0.27023743009E+03  0.00000000000E+00 0. -1.
          6    2    1    2  501    0 -0.23099794640E+02  0.62496856078E+02 -0.56650438766E+02  0.19286151885E+03  0.17189193032E+03 0.  0.
         24    2    3    3    0    0 -0.41140611960E+02 -0.22278989874E+02 -0.70779667122E+01  0.92901851322E+02  0.79948439785E+02 0.  0.
         -6    2    1    2    0  502  0.23099794640E+02 -0.62496856078E+02 -0.87899617081E+02  0.20306328548E+03  0.17049603425E+03 0.  0.
        -24    2    5    5    0    0  0.34840182849E+01  0.21859509743E+02 -0.80208695791E+02  0.11598851642E+03  0.80807948320E+02 0.  0.
          5    1    3    3  501    0  0.18040817320E+02  0.84775845952E+02 -0.49572472054E+02  0.99959667527E+02  0.47000000000E+01 0. -1.
        -13    1    4    4    0    0 -0.62735831577E+02 -0.29589801760E+02 -0.93439805932E+01  0.69990362945E+02  0.00000000000E+00 0.  1.
         14    1    4    4    0    0  0.21595219617E+02  0.73108118862E+01  0.22660138810E+01  0.22911488377E+02  0.00000000000E+00 0. -1.
         -5    1    5    5    0  502  0.19615776355E+02 -0.84356365821E+02 -0.76909212898E+01  0.87074769059E+02  0.47000000000E+01 0.  1.
         11    1    6    6    0    0 -0.26372954609E+01  0.14608471795E+01  0.16596584022E+02  0.16868195014E+02  0.00000000000E+00 0. -1.
        -12    1    6    6    0    0  0.61213137457E+01  0.20398662563E+02 -0.96805279813E+02  0.99120321408E+02  0.00000000000E+00 0.  1.
</event>
<event>
12    1  0.9873238E-001  0.1757820E+03  0.7818608E-02  0.1171972E+00
         21   -1    0    0  503  502  0.00000000000E+00  0.00000000000E+00  0.21768269952E+03  0.21768269952E+03  0.00000000000E+00 0. -1.
         21   -1    0    0  501  503 -0.00000000000E+00 -0.00000000000E+00 -0.14237414619E+03  0.14237414619E+03  0.00000000000E+00 0. -1.
          6    2    1    2  501    0 -0.22368617163E+01  0.35111767863E+02  0.48344914204E+02  0.18230889724E+03  0.17222503735E+03 0.  0.
         24    2    3    3    0    0  0.43153004327E+02 -0.21108630451E+02  0.18228001275E+02  0.10388637770E+03  0.90290439024E+02 0.  0.
         -6    2    1    2    0  502  0.22368617163E+01 -0.35111767863E+02  0.26963639122E+02  0.17774794848E+03  0.17213208754E+03 0.  0.
        -24    2    5    5    0    0  0.31593577838E+02  0.36245382868E+02  0.33689701428E+02  0.10015291219E+03  0.81140174378E+02 0.  0.
          5    1    3    3  501    0 -0.45389866043E+02  0.56220398314E+02  0.30116912929E+02  0.78422519536E+02  0.47000000000E+01 0. -1.
        -11    1    4    4    0    0 -0.12693300065E+01 -0.18654907223E+02  0.47217552418E+02  0.50784978276E+02  0.00000000000E+00 0.  1.
         12    1    4    4    0    0  0.44422334333E+02 -0.24537232279E+01 -0.28989551143E+02  0.53101399424E+02  0.00000000000E+00 0. -1.
         -5    1    5    5    0  502 -0.29356716122E+02 -0.71357150731E+02 -0.67260623060E+01  0.77595036285E+02  0.47000000000E+01 0.  1.
         13    1    6    6    0    0  0.39487411707E+02  0.80011058210E+00  0.47076909645E+02  0.61450234190E+02  0.00000000000E+00 0. -1.
        -14    1    6    6    0    0 -0.78938338690E+01  0.35445272286E+02 -0.13387208217E+02  0.38702678001E+02  0.00000000000E+00 0.  1.
</event>
<event>
12    1  0.9873238E-001  0.2010003E+03  0.7818608E-02  0.1149518E+00
         21   -1    0    0  503  502  0.00000000000E+00  0.00000000000E+00  0.38235690224E+03  0.38235690224E+03  0.00000000000E+00 0. -1.
         21   -1    0    0  501  503 -0.00000000000E+00 -0.00000000000E+00 -0.10636900741E+03  0.10636900741E+03  0.00000000000E+00 0. -1.
          6    2    1    2  501    0 -0.86892680896E+02 -0.59901752133E+02  0.17249002008E+03  0.26264417890E+03  0.16760250529E+03 0.  0.
         24    2    3    3    0    0 -0.74860169755E+02 -0.74934927036E+02  0.19337741482E+03  0.23384919789E+03  0.77918768505E+02 0.  0.
         -6    2    1    2    0  502  0.86892680896E+02  0.59901752133E+02  0.10349787475E+03  0.22608173075E+03  0.17106309070E+03 0.  0.
        -24    2    5    5    0    0  0.76996065301E+02  0.88239180721E+02  0.12465709272E+03  0.18905801721E+03  0.80554304795E+02 0.  0.
          5    1    3    3  501    0 -0.12032511140E+02  0.15033174903E+02 -0.20887394743E+02  0.28794981006E+02  0.47000000000E+01 0. -1.
        -13    1    4    4    0    0 -0.25639047329E+02 -0.29676169128E+01  0.11078286168E+03  0.11374976896E+03  0.00000000000E+00 0.  1.
         14    1    4    4    0    0 -0.49221122426E+02 -0.71967310123E+02  0.82594553144E+02  0.12009942893E+03  0.00000000000E+00 0. -1.
         -5    1    5    5    0  502  0.98966155942E+01 -0.28337428588E+02 -0.21159217969E+02  0.37023713540E+02  0.47000000000E+01 0.  1.
         11    1    6    6    0    0 -0.51872249231E+01  0.37560392920E+02  0.65907572665E+02  0.76036166088E+02  0.00000000000E+00 0. -1.
        -12    1    6    6    0    0  0.82183290225E+02  0.50678787802E+02  0.58749520051E+02  0.11302185112E+03  0.00000000000E+00 0.  1.
</event>
<event>
12    1  0.9873238E-001  0.3346306E+03  0.7818608E-02  0.1069268E+00
         21   -1    0    0  501  502  0.00000000000E+00  0.00000000000E+00  0.17655064472E+04  0.17655064472E+04  0.00000000000E+00 0.  1.
         21   -1    0    0  502  503 -0.00000000000E+00 -0.00000000000E+00 -0.86340970768E+02  0.86340970768E+02  0.00000000000E+00 0. -1.
         -6    2    1    2    0  503  0.12326810265E+03 -0.25913279404E+03  0.13208797366E+04  0.13626081277E+04  0.17214180543E+03 0.  0.
        -24    2    3    3    0    0  0.11752690433E+03 -0.24058404559E+03  0.89773286247E+03  0.93898992169E+03  0.63910284245E+02 0.  0.
          6    2    1    2  501    0 -0.12326810265E+03  0.25913279404E+03  0.35828573991E+03  0.48923929030E+03  0.16923823937E+03 0.  0.
         24    2    5    5    0    0 -0.14169512378E+03  0.22952094361E+03  0.35649585257E+03  0.45400137760E+03  0.79187033713E+02 0.  0.
          5    1    5    5  501    0  0.18427021130E+02  0.29611850439E+02  0.17898873398E+01  0.35237912691E+02  0.47000000000E+01 0. -1.
        -13    1    6    6    0    0 -0.55980205586E+02  0.54888834963E+02  0.15627696950E+03  0.17484009500E+03  0.00000000000E+00 0.  1.
         14    1    6    6    0    0 -0.85714918191E+02  0.17463210864E+03  0.20021888307E+03  0.27916128261E+03  0.00000000000E+00 0. -1.
         -5    1    3    3    0  503  0.57411983153E+01 -0.18548748455E+02  0.42314687410E+03  0.42361820603E+03  0.47000000000E+01 0.  1.
         11    1    4    4    0    0  0.25906625971E+02 -0.33223376009E+02  0.22990746189E+03  0.23373572045E+03  0.00000000000E+00 0. -1.
        -12    1    4    4    0    0  0.91620278362E+02 -0.20736066958E+03  0.66782540058E+03  0.70525420123E+03  0.00000000000E+00 0.  1.
</event>
<event>
12    1  0.9873238E-001  0.3219495E+03  0.7818608E-02  0.1074768E+00
         21   -1    0    0  503  502  0.00000000000E+00  0.00000000000E+00  0.26655399251E+03  0.26655399251E+03  0.00000000000E+00 0.  1.
         21   -1    0    0  501  503 -0.00000000000E+00 -0.00000000000E+00 -0.79815498917E+03  0.79815498917E+03  0.00000000000E+00 0.  1.
          6    2    1    2  501    0 -0.14408598492E+03 -0.23057918750E+03  0.11550452696E+03  0.34193860253E+03  0.17220098545E+03 0.  0.
         24    2    3    3    0    0 -0.10541722226E+03 -0.22699327355E+03  0.13767570121E+03  0.29697436171E+03  0.81243066320E+02 0.  0.
         -6    2    1    2    0  502  0.14408598492E+03  0.23057918750E+03 -0.64710552363E+03  0.72277037915E+03  0.17240629197E+03 0.  0.
        -24    2    5    5    0    0  0.86762045040E+02  0.95531489947E+02 -0.46294757466E+03  0.48727058113E+03  0.80363202552E+02 0.  0.
          5    1    3    3  501    0 -0.38668762655E+02 -0.35859139553E+01 -0.22171174254E+02  0.44964240814E+02  0.47000000000E+01 0. -1.
        -11    1    4    4    0    0  0.86000657320E+01 -0.18197993264E+01 -0.12377150605E+01  0.88772033182E+01  0.00000000000E+00 0.  1.
         12    1    4    4    0    0 -0.11401728800E+03 -0.22517347422E+03  0.13891341627E+03  0.28809715840E+03  0.00000000000E+00 0. -1.
         -5    1    5    5    0  502  0.57323939879E+02  0.13504769756E+03 -0.18415794897E+03  0.23549979802E+03  0.47000000000E+01 0.  1.
         11    1    6    6    0    0  0.81231743061E+02  0.38343382151E+02 -0.22021196500E+03  0.23782792217E+03  0.00000000000E+00 0. -1.
        -12    1    6    6    0    0  0.55303019792E+01  0.57188107796E+02 -0.24273560966E+03  0.24944265896E+03  0.00000000000E+00 0.  1.
</event>
<event>
12    1  0.9873238E-001  0.1944344E+03  0.7818608E-02  0.1154954E+00
         21   -1    0    0  501  502  0.00000000000E+00  0.00000000000E+00  0.76805638679E+02  0.76805638679E+02  0.00000000000E+00 0.  1.
         21   -1    0    0  502  503 -0.00000000000E+00 -0.00000000000E+00 -0.61081803855E+03  0.61081803855E+03  0.00000000000E+00 0.  1.
         -6    2    1    2    0  503 -0.30953702859E+01 -0.92757156845E+02 -0.42272522296E+03  0.46529705342E+03  0.17085450632E+03 0.  0.
        -24    2    3    3    0    0  0.12844009137E+02 -0.11540707031E+02 -0.14702923531E+03  0.17740724265E+03  0.97762862172E+02 0.  0.
          6    2    1    2  501    0  0.30953702859E+01  0.92757156845E+02 -0.11128717691E+03  0.22232662381E+03  0.16861441352E+03 0.  0.
         24    2    5    5    0    0 -0.24112784386E+02  0.44978253549E+02 -0.13294283308E+03  0.16304623308E+03  0.79409115285E+02 0.  0.
          5    1    5    5  501    0  0.27208154672E+02  0.47778903296E+02  0.21655656173E+02  0.59280390730E+02  0.47000000000E+01 0. -1.
        -11    1    6    6    0    0 -0.50992913676E+02  0.37367909733E+02 -0.70827728636E+02  0.94937901108E+02  0.00000000000E+00 0.  1.
         12    1    6    6    0    0  0.26880129290E+02  0.76103438154E+01 -0.62115104447E+02  0.68108331972E+02  0.00000000000E+00 0. -1.
         -5    1    3    3    0  503 -0.15939379423E+02 -0.81216449814E+02 -0.27569598765E+03  0.28788981077E+03  0.47000000000E+01 0.  1.
         11    1    4    4    0    0 -0.80610514464E+00 -0.48619763001E+02 -0.12015679615E+03  0.12962324954E+03  0.00000000000E+00 0. -1.
        -12    1    4    4    0    0  0.13650114282E+02  0.37079055970E+02 -0.26872439161E+02  0.47783993115E+02  0.00000000000E+00 0.  1.
</event>
<event>
12    1  0.9873238E-001  0.2102704E+03  0.7818608E-02  0.1142136E+00
         21   -1    0    0  503  502  0.00000000000E+00  0.00000000000E+00  0.23452998148E+03  0.23452998148E+03  0.00000000000E+00 0. -1.
         21   -1    0    0  501  503 -0.00000000000E+00 -0.00000000000E+00 -0.18792493801E+03  0.18792493801E+03  0.00000000000E+00 0. -1.
          6    2    1    2  501    0 -0.56919104263E+02 -0.95911849610E+02 -0.31888152774E+01  0.20636909439E+03  0.17360635717E+03 0.  0.
         24    2    3    3    0    0  0.73822527143E+01  0.65865470823E+01 -0.24725140947E+02  0.83379301491E+02  0.79011993170E+02 0.  0.
         -6    2    1    2    0  502  0.56919104263E+02  0.95911849610E+02  0.49793858756E+02  0.21608582510E+03  0.17825484037E+03 0.  0.
        -24    2    5    5    0    0  0.76643176633E+02  0.54767832646E+00  0.46504470913E+02  0.11853443214E+03  0.77545272665E+02 0.  0.
          5    1    3    3  501    0 -0.64301356977E+02 -0.10249839669E+03  0.21536325669E+02  0.12298979290E+03  0.47000000000E+01 0. -1.
        -13    1    4    4    0    0 -0.29440968423E+02 -0.10086959712E+02 -0.29244184531E+02  0.42705265563E+02  0.00000000000E+00 0.  1.
         14    1    4    4    0    0  0.36823221137E+02  0.16673506795E+02  0.45190435847E+01  0.40674035928E+02  0.00000000000E+00 0. -1.
         -5    1    5    5    0  502 -0.19724072371E+02  0.95364171284E+02  0.32893878428E+01  0.97551392957E+02  0.47000000000E+01 0.  1.
         11    1    6    6    0    0 -0.14620521669E+02  0.25665389611E+00 -0.26712646731E+01  0.14864763034E+02  0.00000000000E+00 0. -1.
        -12    1    6    6    0    0  0.91263698302E+02  0.29102443035E+00  0.49175735586E+02  0.10366966911E+03  0.00000000000E+00 0.  1.
</event>
<event>
12    1  0.9873238E-001  0.2607068E+03  0.7818608E-02  0.1106830E+00
         21   -1    0    0  501  502  0.00000000000E+00  0.00000000000E+00  0.52747361666E+03  0.52747361666E+03  0.00000000000E+00 0. -1.
         21   -1    0    0  502  503 -0.00000000000E+00 -0.00000000000E+00 -0.12849776186E+03  0.12849776186E+03  0.00000000000E+00 0. -1.
         -6    2    1    2    0  503 -0.19540627579E+03  0.81263377774E+01  0.19702144286E+03  0.32619325537E+03  0.17127446078E+03 0.  0.
        -24    2    3    3    0    0 -0.14614692772E+03  0.51486222537E+02  0.79546938513E+02  0.19154960661E+03  0.79710606405E+02 0.  0.
          6    2    1    2  501    0  0.19540627579E+03 -0.81263377774E+01  0.20195441194E+03  0.32977812315E+03  0.17239018540E+03 0.  0.
         24    2    5    5    0    0  0.13024148331E+03  0.26406557469E+02  0.20312965449E+03  0.25586978650E+03  0.80916876204E+02 0.  0.
          5    1    5    5  501    0  0.65164792475E+02 -0.34532895246E+02 -0.11752425452E+01  0.73908336657E+02  0.47000000000E+01 0. -1.
        -13    1    6    6    0    0  0.10906103175E+03 -0.14010440892E+02  0.14328833839E+03  0.18061602648E+03  0.00000000000E+00 0.  1.
         14    1    6    6    0    0  0.21180451564E+02  0.40416998360E+02  0.59841316096E+02  0.75253760019E+02  0.00000000000E+00 0. -1.
         -5    1    3    3    0  503 -0.49259348071E+02 -0.43359884760E+02  0.11747450435E+03  0.13464364876E+03  0.47000000000E+01 0.  1.
         11    1    4    4    0    0 -0.15670306143E+02  0.32106980942E+02  0.40451834876E+02  0.53970062670E+02  0.00000000000E+00 0. -1.
        -12    1    4    4    0    0 -0.13047662158E+03  0.19379241595E+02  0.39095103638E+02  0.13757954394E+03  0.00000000000E+00 0.  1.
</event>
<event>
12    1  0.9873238E-001  0.1883615E+03  0.7818608E-02  0.1161377E+00
         21   -1    0    0  503  502  0.00000000000E+00  0.00000000000E+00  0.21800438581E+03  0.21800438581E+03  0.00000000000E+00 0.  1.
         21   -1    0    0  501  503 -0.00000000000E+00 -0.00000000000E+00 -0.27012497148E+03  0.27012497148E+03  0.00000000000E+00 0.  1.
          6    2    1    2  501    0  0.54913602739E+02 -0.23540817644E+02  0.13128882250E+03  0.22960140679E+03  0.17863475928E+03 0.  0.
         24    2    3    3    0    0 -0.22547671924E+02  0.60344566803E+00  0.12158197085E+03  0.14775088759E+03  0.80866479410E+02 0.  0.
         -6    2    1    2    0  502 -0.54913602739E+02  0.23540817644E+02 -0.18340940817E+03  0.25852795050E+03  0.17212790687E+03 0.  0.
        -24    2    5    5    0    0  0.26335267088E+02  0.66871172784E+01 -0.14344578564E+03  0.16630752331E+03  0.79644428956E+02 0.  0.
          5    1    3    3  501    0  0.77461274663E+02 -0.24144263312E+02  0.97068516423E+01  0.81850519193E+02  0.47000000000E+01 0. -1.
        -11    1    4    4    0    0  0.14614272931E+02  0.64812586968E+01  0.10571677028E+03  0.10691875049E+03  0.00000000000E+00 0.  1.
         12    1    4    4    0    0 -0.37161944855E+02 -0.58778130288E+01  0.15865200575E+02  0.40832137107E+02  0.00000000000E+00 0. -1.
         -5    1    5    5    0  502 -0.81248869827E+02  0.16853700365E+02 -0.39963622531E+02  0.92220427184E+02  0.47000000000E+01 0.  1.
         13    1    6    6    0    0 -0.10857704789E+02  0.30813757662E+02 -0.29413441418E+02  0.43960527187E+02  0.00000000000E+00 0. -1.
        -14    1    6    6    0    0  0.37192971877E+02 -0.24126640383E+02 -0.11403234422E+03  0.12234699613E+03  0.00000000000E+00 0.  1.
</event>
<event>
12    1  0.9873238E-001  0.2833115E+03  0.7818608E-02  0.1093910E+00
         21   -1    0    0  501  502  0.00000000000E+00  0.00000000000E+00  0.11340939637E+04  0.11340939637E+04  0.00000000000E+00 0. -1.
         21   -1    0    0  502  503 -0.00000000000E+00 -0.00000000000E+00 -0.84039984841E+02  0.84039984841E+02  0.00000000000E+00 0.  1.
         -6    2    1    2    0  503  0.19661596110E+02 -0.22443864259E+03  0.76736396012E+03  0.81799317831E+03  0.17177342585E+03 0.  0.
        -24    2    3    3    0    0 -0.16263942827E+02 -0.22753144030E+03  0.60343536196E+03  0.65007985233E+03  0.80215373765E+02 0.  0.
          6    2    1    2  501    0 -0.19661596110E+02  0.22443864259E+03  0.28269001877E+03  0.40014077025E+03  0.17158002991E+03 0.  0.
         24    2    5    5    0    0 -0.69837136268E+02  0.10773049178E+03  0.18846218885E+03  0.24190249668E+03  0.80720114038E+02 0.  0.
          5    1    5    5  501    0  0.50175540158E+02  0.11670815080E+03  0.94227829911E+02  0.15823827357E+03  0.47000000000E+01 0. -1.
        -13    1    6    6    0    0 -0.32200649584E+02  0.10867898092E+03  0.13132594682E+03  0.17347768455E+03  0.00000000000E+00 0.  1.
         14    1    6    6    0    0 -0.37636486684E+02 -0.94848913882E+00  0.57136242030E+02  0.68424812129E+02  0.00000000000E+00 0. -1.
         -5    1    3    3    0  503  0.35925538937E+02  0.30927977188E+01  0.16392859816E+03  0.16791332598E+03  0.47000000000E+01 0.  1.
         13    1    4    4    0    0 -0.41926115274E+02 -0.10634043899E+03  0.23396757375E+03  0.26039760689E+03  0.00000000000E+00 0. -1.
        -14    1    4    4    0    0  0.25662172447E+02 -0.12119100132E+03  0.36946778821E+03  0.38968224545E+03  0.00000000000E+00 0.  1.
</event>
<event>
12    1  0.9873238E-001  0.1876012E+03  0.7818608E-02  0.1160787E+00
         21   -1    0    0  501  502  0.00000000000E+00  0.00000000000E+00  0.84236603614E+03  0.84236603614E+03  0.00000000000E+00 0.  1.
         21   -1    0    0  502  503 -0.00000000000E+00 -0.00000000000E+00 -0.41972844548E+02  0.41972844548E+02  0.00000000000E+00 0.  1.
         -6    2    1    2    0  503  0.69109620635E+02  0.30090541222E+02  0.43884943253E+03  0.47702070685E+03  0.17110917565E+03 0.  0.
        -24    2    3    3    0    0  0.17086858293E+02  0.79891452535E+02  0.28138843719E+03  0.30380825457E+03  0.80283236398E+02 0.  0.
          6    2    1    2  501    0 -0.69109620635E+02 -0.30090541222E+02  0.36154375906E+03  0.40731817384E+03  0.17179238834E+03 0.  0.
         24    2    5    5    0    0 -0.10076032953E+03  0.62576984870E+01  0.31409769547E+03  0.33952303498E+03  0.80166864626E+02 0.  0.
          5    1    5    5  501    0  0.31650708891E+02 -0.36348239709E+02  0.47446063585E+02  0.67795138860E+02  0.47000000000E+01 0. -1.
        -11    1    6    6    0    0  0.74087635778E+01  0.14230963853E+02  0.78986603012E+02  0.80599587873E+02  0.00000000000E+00 0.  1.
         12    1    6    6    0    0 -0.10816909310E+03 -0.79732653657E+01  0.23511109246E+03  0.25892344711E+03  0.00000000000E+00 0. -1.
         -5    1    3    3    0  503  0.52022762342E+02 -0.49800911313E+02  0.15746099535E+03  0.17321245228E+03  0.47000000000E+01 0.  1.
         11    1    4    4    0    0  0.12344305179E+02  0.34598719473E+02  0.23829823196E+03  0.24111304530E+03  0.00000000000E+00 0. -1.
        -12    1    4    4    0    0  0.47425531141E+01  0.45292733062E+02  0.43090205223E+02  0.62695209262E+02  0.00000000000E+00 0.  1.
</event>
<event>
12    1  0.9873238E-001  0.2898729E+03  0.7818608E-02  0.1090446E+00
         21   -1    0    0  501  502  0.00000000000E+00  0.00000000000E+00  0.14084276356E+04  0.14084276356E+04  0.00000000000E+00 0.  1.
         21   -1    0    0  502  503 -0.00000000000E+00 -0.00000000000E+00 -0.68172796640E+02  0.68172796640E+02  0.00000000000E+00 0. -1.
         -6    2    1    2    0  503 -0.16860184120E+03  0.16108558560E+03  0.93152516633E+03  0.97551536808E+03  0.17180206959E+03 0.  0.
        -24    2    3    3    0    0 -0.19061773156E+03  0.16784713676E+03  0.84028550412E+03  0.88129655912E+03  0.78077626631E+02 0.  0.
          6    2    1    2  501    0  0.16860184120E+03 -0.16108558560E+03  0.40872967267E+03  0.50108506420E+03  0.17219509139E+03 0.  0.
         24    2    5    5    0    0  0.44962577241E+02 -0.99206332097E+01  0.17010157117E+03  0.19269736787E+03  0.77959468654E+02 0.  0.
          5    1    5    5  501    0  0.12363926396E+03 -0.15116495239E+03  0.23862810150E+03  0.30838769634E+03  0.47000000000E+01 0. -1.
        -11    1    6    6    0    0 -0.33995967713E+01 -0.82572752895E+01 -0.55420343324E+01  0.10509709699E+02  0.00000000000E+00 0.  1.
         12    1    6    6    0    0  0.48362174013E+02 -0.16633579202E+01  0.17564360550E+03  0.18218765817E+03  0.00000000000E+00 0. -1.
         -5    1    3    3    0  503  0.22015890358E+02 -0.67615511557E+01  0.91239662208E+02  0.94218808962E+02  0.47000000000E+01 0.  1.
         13    1    4    4    0    0 -0.60791437660E+02  0.85829349939E+02  0.24703358679E+03  0.26849184198E+03  0.00000000000E+00 0. -1.
        -14    1    4    4    0    0 -0.12982629390E+03  0.82017786818E+02  0.59325191733E+03  0.61280471714E+03  0.00000000000E+00 0.  1.
</event>
<event>
12    1  0.9873238E-001  0.2652454E+03  0.7818608E-02  0.1104279E+00
         21   -1    0    0  503  502  0.00000000000E+00  0.00000000000E+00  0.31996480024E+03  0.31996480024E+03  0.00000000000E+00 0.  1.
         21   -1    0    0  501  503 -0.00000000000E+00 -0.00000000000E+00 -0.23709607129E+03  0.23709607129E+03  0.00000000000E+00 0.  1.
          6    2    1    2  501    0 -0.17705250104E+03 -0.95731311455E+02 -0.36703957696E+02  0.26610943952E+03  0.17016163250E+03 0.  0.
         24    2    3    3    0    0 -0.29418642950E+02 -0.59300518210E+02 -0.44785076671E+02  0.11375999504E+03  0.80954464766E+02 0.  0.
         -6    2    1    2    0  502  0.17705250104E+03  0.95731311455E+02  0.11957268665E+03  0.29095143201E+03  0.17275137128E+03 0.  0.
        -24    2    5    5    0    0  0.20040623400E+03  0.83307011470E+02  0.12615768764E+03  0.26328896084E+03  0.79388903276E+02 0.  0.
          5    1    3    3  501    0 -0.14763385809E+03 -0.36430793245E+02  0.80811189753E+01  0.15234944448E+03  0.47000000000E+01 0. -1.
        -11    1    4    4    0    0  0.50787832996E+01 -0.68223798369E+02 -0.23954393267E+02  0.72485127167E+02  0.00000000000E+00 0.  1.
         12    1    4    4    0    0 -0.34497426250E+02  0.89232801585E+01 -0.20830683404E+02  0.41274867871E+02  0.00000000000E+00 0. -1.
         -5    1    5    5    0  502 -0.23353732962E+02  0.12424299985E+02 -0.65850009895E+01  0.27662471173E+02  0.47000000000E+01 0.  1.
         11    1    6    6    0    0  0.16571762720E+03  0.96547763278E+02  0.91508077504E+02  0.21250301364E+03  0.00000000000E+00 0. -1.
        -12    1    6    6    0    0  0.34688606800E+02 -0.13240751808E+02  0.34649610133E+02  0.50785947195E+02  0.00000000000E+00 0.  1.
</event>
<event>
12    1  0.9873238E-001  0.4353033E+03  0.7818608E-02  0.1032200E+00
         21   -1    0    0  501  502  0.00000000000E+00  0.00000000000E+00  0.42276772123E+03  0.42276772123E+03  0.00000000000E+00 0.  1.
         21   -1    0    0  502  503 -0.00000000000E+00 -0.00000000000E+00 -0.46896223807E+03  0.46896223807E+03  0.00000000000E+00 0. -1.
         -6    2    1    2    0  503  0.35462646643E+03 -0.18500261617E+03 -0.11695981431E+03  0.45071215293E+03  0.17168560786E+03 0.  0.
        -24    2    3    3    0    0  0.24493342896E+03 -0.11223261017E+03 -0.10385061561E+02  0.28127690226E+03  0.80126792236E+02 0.  0.
          6    2    1    2  501    0 -0.35462646643E+03  0.18500261617E+03  0.70765297478E+02  0.44101780637E+03  0.17176460498E+03 0.  0.
         24    2    5    5    0    0 -0.18041536246E+03  0.27461805901E+02  0.46316669206E+02  0.20482203784E+03  0.80641053702E+02 0.  0.
          5    1    5    5  501    0 -0.17421110398E+03  0.15754081027E+03  0.24448628272E+02  0.23619576854E+03  0.47000000000E+01 0. -1.
        -11    1    6    6    0    0 -0.30412431689E+02  0.16296451789E+02 -0.20606288444E+02  0.40188424522E+02  0.00000000000E+00 0.  1.
         12    1    6    6    0    0 -0.15000293077E+03  0.11165354112E+02  0.66922957650E+02  0.16463361331E+03  0.00000000000E+00 0. -1.
         -5    1    3    3    0  503  0.10969303747E+03 -0.72770006001E+02 -0.10657475275E+03  0.16943525066E+03  0.47000000000E+01 0.  1.
         13    1    4    4    0    0  0.26173596946E+02 -0.17645281941E+02  0.25084104790E+02  0.40319045933E+02  0.00000000000E+00 0. -1.
        -14    1    4    4    0    0  0.21875983202E+03 -0.94587328232E+02 -0.35469166350E+02  0.24095785633E+03  0.00000000000E+00 0.  1.
</event>
<event>
12    1  0.9873238E-001  0.1742634E+03  0.7818608E-02  0.1173492E+00
         21   -1    0    0  503  502  0.00000000000E+00  0.00000000000E+00  0.27961464699E+03  0.27961464699E+03  0.00000000000E+00 0. -1.
         21   -1    0    0  501  503 -0.00000000000E+00 -0.00000000000E+00 -0.13513248354E+03  0.13513248354E+03  0.00000000000E+00 0. -1.
          6    2    1    2  501    0  0.22645101079E+02  0.19129770794E+02  0.16418778039E+03  0.23937311429E+03  0.17164822132E+03 0.  0.
         24    2    3    3    0    0  0.30264223445E+02  0.16557668896E+02  0.19211646438E+03  0.20993218829E+03  0.77283298144E+02 0.  0.
         -6    2    1    2    0  502 -0.22645101079E+02 -0.19129770794E+02 -0.19705616934E+02  0.17537401624E+03  0.17172357293E+03 0.  0.
        -24    2    5    5    0    0  0.53930989052E+02 -0.13231104544E+02 -0.11260128381E+02  0.97965307943E+02  0.79917440911E+02 0.  0.
          5    1    3    3  501    0 -0.76191223661E+01  0.25721018982E+01 -0.27928683997E+02  0.29440925997E+02  0.47000000000E+01 0. -1.
        -13    1    4    4    0    0 -0.21071660372E+02 -0.13667306388E+01  0.18751900571E+02  0.28240336374E+02  0.00000000000E+00 0.  1.
         14    1    4    4    0    0  0.51335883818E+02  0.17924399534E+02  0.17336456381E+03  0.18169185191E+03  0.00000000000E+00 0. -1.
         -5    1    5    5    0  502 -0.76576090131E+02 -0.58986662497E+01 -0.84454885537E+01  0.77408708297E+02  0.47000000000E+01 0.  1.
         13    1    6    6    0    0  0.13837555341E+02  0.65256320170E+00  0.33524142060E+02  0.36273569957E+02  0.00000000000E+00 0. -1.
        -14    1    6    6    0    0  0.40093433711E+02 -0.13883667746E+02 -0.44784270441E+02  0.61691737986E+02  0.00000000000E+00 0.  1.
</event>
<event>
12    1  0.9873238E-001  0.1965417E+03  0.7818608E-02  0.1154007E+00
         21   -1    0    0  501  502  0.00000000000E+00  0.00000000000E+00  0.33217517988E+03  0.33217517988E+03  0.00000000000E+00 0. -1.
         21   -1    0    0  502  503 -0.00000000000E+00 -0.00000000000E+00 -0.13122117848E+03  0.13122117848E+03  0.00000000000E+00 0. -1.
         -6    2    1    2    0  503  0.60914071943E+02  0.55777548745E+02  0.12256222180E+02  0.19093448172E+03  0.17170935392E+03 0.  0.
        -24    2    3    3    0    0  0.72819932482E+02 -0.77713744593E+01 -0.39780378340E+02  0.10780739258E+03  0.68387269037E+02 0.  0.
          6    2    1    2  501    0 -0.60914071943E+02 -0.55777548745E+02  0.18869777922E+03  0.27246187663E+03  0.17834506786E+03 0.  0.
         24    2    5    5    0    0  0.83123054594E+01  0.30129764278E+02  0.59318872244E+02  0.10236381865E+03  0.77348081078E+02 0.  0.
          5    1    5    5  501    0 -0.69226377402E+02 -0.85907313023E+02  0.12937890698E+03  0.17009805799E+03  0.47000000000E+01 0. -1.
        -11    1    6    6    0    0  0.22181554362E+02 -0.13536773649E+02 -0.17203135268E+01  0.26042754719E+02  0.00000000000E+00 0.  1.
         12    1    6    6    0    0 -0.13869248903E+02  0.43666537927E+02  0.61039185771E+02  0.76321063929E+02  0.00000000000E+00 0. -1.
         -5    1    3    3    0  503 -0.11905860539E+02  0.63548923204E+02  0.52036600519E+02  0.83127089142E+02  0.47000000000E+01 0.  1.
         11    1    4    4    0    0  0.20371892225E+02 -0.14449866613E+02  0.17007525662E+02  0.30217024458E+02  0.00000000000E+00 0. -1.
        -12    1    4    4    0    0  0.52448040257E+02  0.66784921540E+01 -0.56787904002E+02  0.77590368121E+02  0.00000000000E+00 0.  1.
</event>
<event>
12    1  0.9873238E-001  0.2159099E+03  0.7818608E-02  0.1137127E+00
         21   -1    0    0  501  502  0.00000000000E+00  0.00000000000E+00  0.38050245980E+02  0.38050245980E+02  0.00000000000E+00 0.  1.
         21   -1    0    0  502  503 -0.00000000000E+00 -0.00000000000E+00 -0.21222322749E+04  0.21222322749E+04  0.00000000000E+00 0.  1.
         -6    2    1    2    0  503 -0.12790049546E+03 -0.53027474207E+01 -0.33914626889E+03  0.40204137627E+03  0.17386897555E+03 0.  0.
        -24    2    3    3    0    0  0.55516175723E+01 -0.56860046672E+01 -0.12710750444E+03  0.15145777547E+03  0.81975538782E+02 0.  0.
          6    2    1    2  501    0  0.12790049546E+03  0.53027474207E+01 -0.17450357600E+04  0.17582411446E+04  0.17284519940E+03 0.  0.
         24    2    5    5    0    0  0.57090749976E+02 -0.57410150943E+02 -0.73967550088E+03  0.74843013835E+03  0.80452136299E+02 0.  0.
          5    1    5    5  501    0  0.70809745484E+02  0.62712898363E+02 -0.10053602592E+04  0.10098110063E+04  0.47000000000E+01 0. -1.
        -11    1    6    6    0    0  0.45292740689E+02 -0.54832818156E+02 -0.72854106611E+03  0.73200420444E+03  0.00000000000E+00 0.  1.
         12    1    6    6    0    0  0.11798009287E+02 -0.25773327871E+01 -0.11134434766E+02  0.16425933915E+02  0.00000000000E+00 0. -1.
         -5    1    3    3    0  503 -0.13345211303E+03  0.38325724655E+00 -0.21203876445E+03  0.25058360080E+03  0.47000000000E+01 0.  1.
         11    1    4    4    0    0 -0.30397867605E+02 -0.24653548180E+02 -0.81210967128E+02  0.90150146837E+02  0.00000000000E+00 0. -1.
        -12    1    4    4    0    0  0.35949485178E+02  0.18967543513E+02 -0.45896537316E+02  0.61307628636E+02  0.00000000000E+00 0.  1.
</event>
<event>
12    1  0.9873238E-001  0.2080581E+03  0.7818608E-02  0.1143115E+00
         21   -1    0    0  503  502  0.00000000000E+00  0.00000000000E+00  0.21370530782E+03  0.21370530782E+03  0.00000000000E+00 0.  1.
         21   -1    0    0  501  503 -0.00000000000E+00 -0.00000000000E+00 -0.22811052890E+03  0.22811052890E+03  0.00000000000E+00 0.  1.
          6    2    1    2  501    0  0.13570453223E+02 -0.11631216291E+03  0.66745287071E+02  0.21849187936E+03  0.17196247137E+03 0.  0.
         24    2    3    3    0    0  0.18500320018E+02 -0.14889847161E+03  0.35145315391E+02  0.17259177793E+03  0.77715583551E+02 0.  0.
         -6    2    1    2    0  502 -0.13570453223E+02  0.11631216291E+03 -0.81150508150E+02  0.22332395735E+03  0.17197531367E+03 0.  0.
        -24    2    5    5    0    0 -0.27030482133E+02  0.14758727627E+03 -0.82968341341E+02  0.18890449175E+03  0.79300127730E+02 0.  0.
          5    1    3    3  501    0 -0.49298667949E+01  0.32586308701E+02  0.31599971680E+02  0.45900101433E+02  0.47000000000E+01 0. -1.
        -11    1    4    4    0    0 -0.49414841684E+01 -0.37270369583E+02 -0.23498910253E+02  0.44336187226E+02  0.00000000000E+00 0.  1.
         12    1    4    4    0    0  0.23441804187E+02 -0.11162810203E+03  0.58644225644E+02  0.12825559071E+03  0.00000000000E+00 0. -1.
         -5    1    5    5    0  502  0.13460028910E+02 -0.31275113363E+02  0.18178331902E+01  0.34419465592E+02  0.47000000000E+01 0.  1.
         11    1    6    6    0    0 -0.25352629295E+02  0.24740190901E+02 -0.50752712808E+02  0.61892412421E+02  0.00000000000E+00 0. -1.
        -12    1    6    6    0    0 -0.16778528384E+01  0.12284708537E+03 -0.32215628533E+02  0.12701207933E+03  0.00000000000E+00 0.  1.
</event>
<event>
12    1  0.9873238E-001  0.1924730E+03  0.7818608E-02  0.1156361E+00
         21   -1    0    0  501  502  0.00000000000E+00  0.00000000000E+00  0.75981857008E+03  0.75981857008E+03  0.00000000000E+00 0. -1.
         21   -1    0    0  502  503 -0.00000000000E+00 -0.00000000000E+00 -0.50263733026E+02  0.50263733026E+02  0.00000000000E+00 0. -1.
         -6    2    1    2    0  503 -0.56197042764E+02 -0.56047702145E+02  0.42736174802E+03  0.46849950714E+03  0.17479780314E+03 0.  0.
        -24    2    3    3    0    0  0.10100831865E+02  0.25501942510E+02  0.15404741852E+03  0.17563679965E+03  0.79782845043E+02 0.  0.
          6    2    1    2  501    0  0.56197042764E+02  0.56047702145E+02  0.28219308903E+03  0.34158279597E+03  0.17534655536E+03 0.  0.
         24    2    5    5    0    0  0.79632600874E+02 -0.14202741734E+01  0.24327840044E+03  0.26817818662E+03  0.79948679512E+02 0.  0.
          5    1    5    5  501    0 -0.23435558111E+02  0.57467976318E+02  0.38914688588E+02  0.73404609351E+02  0.47000000000E+01 0. -1.
        -11    1    6    6    0    0  0.57874628935E+02  0.34694945327E+02  0.11720589054E+03  0.13524212614E+03  0.00000000000E+00 0.  1.
         12    1    6    6    0    0  0.21757971939E+02 -0.36115219501E+02  0.12607250990E+03  0.13293606048E+03  0.00000000000E+00 0. -1.
         -5    1    3    3    0  503 -0.66297874629E+02 -0.81549644654E+02  0.27331432950E+03  0.29286270748E+03  0.47000000000E+01 0.  1.
         11    1    4    4    0    0  0.98174218846E+01  0.50180526348E+02  0.13531268635E+03  0.14465127060E+03  0.00000000000E+00 0. -1.
        -12    1    4    4    0    0  0.28340998053E+00 -0.24678583838E+02  0.18734732168E+02  0.30985529056E+02  0.00000000000E+00 0.  1.
</event>
<event>
12    1  0.9873238E-001  0.2491176E+03  0.7818608E-02  0.1113893E+00
         21   -1    0    0  503  502  0.00000000000E+00  0.00000000000E+00  0.32694823417E+03  0.32694823417E+03  0.00000000000E+00 0. -1.
         21   -1    0    0  501  503 -0.00000000000E+00 -0.00000000000E+00 -0.19661993103E+03  0.19661993103E+03  0.00000000000E+00 0. -1.
          6    2    1    2  501    0 -0.17119943303E+02  0.17889545785E+03  0.11434019398E+03  0.27393808814E+03  0.17225480799E+03 0.  0.
         24    2    3    3    0    0 -0.10279704733E+02  0.19891259385E+03  0.12653081601E+03  0.24907494548E+03  0.79726963715E+02 0.  0.
         -6    2    1    2    0  502  0.17119943303E+02 -0.17889545785E+03  0.15988109155E+02  0.24963007705E+03  0.17251921179E+03 0.  0.
        -24    2    5    5    0    0  0.38390913953E+02 -0.18569622343E+03  0.46605091037E+02  0.21144376819E+03  0.81114011893E+02 0.  0.
          5    1    3    3  501    0 -0.68402385700E+01 -0.20017136000E+02 -0.12190622033E+02  0.24863142659E+02  0.47000000000E+01 0. -1.
        -11    1    4    4    0    0  0.78401907369E+01  0.17071665903E+03  0.72819364711E+02  0.18576411423E+03  0.00000000000E+00 0.  1.
         12    1    4    4    0    0 -0.18119895470E+02  0.28195934829E+02  0.53711451302E+02  0.63310831251E+02  0.00000000000E+00 0. -1.
         -5    1    5    5    0  502 -0.21270970650E+02  0.68007655796E+01 -0.30616981882E+02  0.38186308861E+02  0.47000000000E+01 0.  1.
         11    1    6    6    0    0  0.18418457588E+02 -0.72947263422E+02  0.59901170280E+02  0.96170125411E+02  0.00000000000E+00 0. -1.
        -12    1    6    6    0    0  0.19972456365E+02 -0.11274896001E+03 -0.13296079243E+02  0.11527364278E+03  0.00000000000E+00 0.  1.
</event>
<event>
12    1  0.9873238E-001  0.2179010E+03  0.7818608E-02  0.1135571E+00
         21   -1    0    0  501  502  0.00000000000E+00  0.00000000000E+00  0.10854937434E+04  0.10854937434E+04  0.00000000000E+00 0.  1.
         21   -1    0    0  502  503 -0.00000000000E+00 -0.00000000000E+00 -0.51758161491E+02  0.51758161491E+02  0.00000000000E+00 0.  1.
         -6    2    1    2    0  503  0.13263163212E+03 -0.13178897152E+02  0.74173064611E+03  0.77290626023E+03  0.17162430641E+03 0.  0.
        -24    2    3    3    0    0  0.85146436855E+02 -0.68933452688E+02  0.36777533644E+03  0.39181824171E+03  0.79127111849E+02 0.  0.
          6    2    1    2  501    0 -0.13263163212E+03  0.13178897152E+02  0.29200493584E+03  0.36434564470E+03  0.17238338983E+03 0.  0.
         24    2    5    5    0    0 -0.26364217113E+02  0.24056817092E+02  0.52227979169E+02  0.10180770157E+03  0.79769943574E+02 0.  0.
          5    1    5    5  501    0 -0.10626741501E+03 -0.10877919940E+02  0.23977695667E+03  0.26253794314E+03  0.47000000000E+01 0. -1.
        -13    1    6    6    0    0  0.10815750853E+02 -0.14286283838E+02 -0.94181920532E+01  0.20243041124E+02  0.00000000000E+00 0.  1.
         14    1    6    6    0    0 -0.37179967966E+02  0.38343100930E+02  0.61646171222E+02  0.81564660443E+02  0.00000000000E+00 0. -1.
         -5    1    3    3    0  503  0.47485195270E+02  0.55754555536E+02  0.37395530967E+03  0.38108801852E+03  0.47000000000E+01 0.  1.
         13    1    4    4    0    0  0.22637714868E+02  0.67954103022E+01  0.16313540614E+03  0.16483872261E+03  0.00000000000E+00 0. -1.
        -14    1    4    4    0    0  0.62508721987E+02 -0.75728862990E+02  0.20463993030E+03  0.22697951909E+03  0.00000000000E+00 0.  1.
</event>
<event>
12    1  0.9873238E-001  0.1731381E+03  0.7818608E-02  0.1174814E+00
         21   -1    0    0  503  502  0.00000000000E+00  0.00000000000E+00  0.68731618705E+02  0.68731618705E+02  0.00000000000E+00 0. -1.
         21   -1    0    0  501  503 -0.00000000000E+00 -0.00000000000E+00 -0.43861379985E+03  0.43861379985E+03  0.00000000000E+00 0. -1.
          6    2    1    2  501    0 -0.46113619810E+01 -0.81902039402E+01 -0.21087820796E+03  0.27284869927E+03  0.17288276375E+03 0.  0.
         24    2    3    3    0    0 -0.45833627702E+02 -0.47502395668E+02 -0.17894832311E+03  0.20737862094E+03  0.81401419263E+02 0.  0.
         -6    2    1    2    0  502  0.46113619810E+01  0.81902039402E+01 -0.15900397319E+03  0.23449671929E+03  0.17209911030E+03 0.  0.
        -24    2    5    5    0    0 -0.46792087851E+02 -0.20224267475E+02 -0.42374927490E+02  0.10382873874E+03  0.79914028980E+02 0.  0.
          5    1    3    3  501    0  0.41222265721E+02  0.39312191728E+02 -0.31929884847E+02  0.65470078325E+02  0.47000000000E+01 0. -1.
        -13    1    4    4    0    0 -0.68784000100E+01 -0.44044448338E+02 -0.30871240712E+02  0.54224158077E+02  0.00000000000E+00 0.  1.
         14    1    4    4    0    0 -0.38955227692E+02 -0.34579473299E+01 -0.14807708240E+03  0.15315446287E+03  0.00000000000E+00 0. -1.
         -5    1    5    5    0  502  0.51403449832E+02  0.28414471415E+02 -0.11662904570E+03  0.13066798055E+03  0.47000000000E+01 0.  1.
         13    1    6    6    0    0 -0.11383640905E+02 -0.48283065885E+02 -0.22599437785E+02  0.54512166712E+02  0.00000000000E+00 0. -1.
        -14    1    6    6    0    0 -0.35408446946E+02  0.28058798410E+02 -0.19775489705E+02  0.49316572026E+02  0.00000000000E+00 0.  1.
</event>
<event>
12    1  0.9873238E-001  0.1792711E+03  0.7818608E-02  0.1169524E+00
         21   -1    0    0  503  502  0.00000000000E+00  0.00000000000E+00  0.13239675954E+03  0.13239675954E+03  0.00000000000E+00 0. -1.
         21   -1    0    0  501  503 -0.00000000000E+00 -0.00000000000E+00 -0.23785073722E+03  0.23785073722E+03  0.00000000000E+00 0.  1.
          6    2    1    2  501    0  0.16401584073E+02  0.21967150329E+02 -0.42414812923E+02  0.18021573512E+03  0.17299458713E+03 0.  0.
         24    2    3    3    0    0  0.19513076645E+02 -0.47522202350E+02 -0.52615116939E+02  0.10975590455E+03  0.81479372714E+02 0.  0.
         -6    2    1    2    0  502 -0.16401584073E+02 -0.21967150329E+02 -0.63039164751E+02  0.19003176164E+03  0.17716254256E+03 0.  0.
        -24    2    5    5    0    0 -0.34007079842E+02  0.23660860517E+02  0.23584987790E+02  0.90444098454E+02  0.76860688887E+02 0.  0.
          5    1    3    3  501    0 -0.31114925719E+01  0.69489352678E+02  0.10200304016E+02  0.70459830568E+02  0.47000000000E+01 0. -1.
        -11    1    4    4    0    0  0.28892349286E+02  0.81522552702E+01 -0.43063469035E+02  0.52494661430E+02  0.00000000000E+00 0.  1.
         12    1    4    4    0    0 -0.93792726416E+01 -0.55674457620E+02 -0.95516479033E+01  0.57261243125E+02  0.00000000000E+00 0. -1.
         -5    1    5    5    0  502  0.17605495769E+02 -0.45628010845E+02 -0.86624152541E+02  0.99587663184E+02  0.47000000000E+01 0.  1.
         11    1    6    6    0    0 -0.50908283103E+02  0.15218704698E+02 -0.79074252310E+01  0.53719546116E+02  0.00000000000E+00 0. -1.
        -12    1    6    6    0    0  0.16901203260E+02  0.84421558188E+01  0.31492413021E+02  0.36724552338E+02  0.00000000000E+00 0.  1.
</event>
<event>
12    1  0.9873238E-001  0.2776895E+03  0.7818608E-02  0.1097185E+00
         21   -1    0    0  503  502  0.00000000000E+00  0.00000000000E+00  0.15673359910E+04  0.15673359910E+04  0.00000000000E+00 0.  1.
         21   -1    0    0  501  503 -0.00000000000E+00 -0.00000000000E+00 -0.20766642031E+03  0.20766642031E+03  0.00000000000E+00 0.  1.
          6    2    1    2  501    0  0.21422256639E+03 -0.26724875541E+02  0.14562951129E+04  0.14825339492E+04  0.17465946212E+03 0.  0.
         24    2    3    3    0    0  0.14077144378E+03  0.30502530366E+02  0.11671248627E+04  0.11787057625E+04  0.80123815235E+02 0.  0.
         -6    2    1    2    0  502 -0.21422256639E+03  0.26724875541E+02 -0.96625542198E+02  0.29246846214E+03  0.17203423791E+03 0.  0.
        -24    2    5    5    0    0 -0.15501027129E+03  0.57521752282E+02 -0.12270893850E+03  0.22065636656E+03  0.79339853315E+02 0.  0.
          5    1    3    3  501    0  0.73451122609E+02 -0.57227405907E+02  0.28917025018E+03  0.30382818662E+03  0.47000000000E+01 0. -1.
        -11    1    4    4    0    0  0.70639857677E+02  0.33422957238E+02  0.35231068019E+03  0.36087379918E+03  0.00000000000E+00 0.  1.
         12    1    4    4    0    0  0.70131586107E+02 -0.29204268720E+01  0.81481418251E+03  0.81783196336E+03  0.00000000000E+00 0. -1.
         -5    1    5    5    0  502 -0.59212295104E+02 -0.30796876740E+02  0.26083396303E+02  0.71812095577E+02  0.47000000000E+01 0.  1.
         13    1    6    6    0    0 -0.15356214678E+03  0.41700256595E+02 -0.86498610058E+02  0.18111392510E+03  0.00000000000E+00 0. -1.
        -14    1    6    6    0    0 -0.14481245079E+01  0.15821495686E+02 -0.36210328442E+02  0.39542441455E+02  0.00000000000E+00 0.  1.
</event>
<event>
12    1  0.9873238E-001  0.1863830E+03  0.7818608E-02  0.1162895E+00
         21   -1    0    0  501  502  0.00000000000E+00  0.00000000000E+00  0.49882074870E+02  0.49882074870E+02  0.00000000000E+00 0.  1.
         21   -1    0    0  502  503 -0.00000000000E+00 -0.00000000000E+00 -0.74261625858E+03  0.74261625858E+03  0.00000000000E+00 0.  1.
         -6    2    1    2    0  503 -0.59696312795E+02  0.16599092084E+01 -0.46692227487E+03  0.50274746731E+03  0.17655650670E+03 0.  0.
        -24    2    3    3    0    0 -0.76854509013E+02  0.46125491892E+02 -0.21612782305E+03  0.24742112945E+03  0.80447516088E+02 0.  0.
          6    2    1    2  501    0  0.59696312795E+02 -0.16599092084E+01 -0.22581190884E+03  0.28975086614E+03  0.17145886152E+03 0.  0.
         24    2    5    5    0    0  0.23661911698E+02 -0.66244165232E+02 -0.14407586517E+03  0.17942192604E+03  0.80536930207E+02 0.  0.
          5    1    5    5  501    0  0.36034401098E+02  0.64584256023E+02 -0.81736043670E+02  0.11032894010E+03  0.47000000000E+01 0. -1.
        -11    1    6    6    0    0  0.45262310402E+02 -0.23062568091E+02 -0.10733684595E+03  0.11875082016E+03  0.00000000000E+00 0.  1.
         12    1    6    6    0    0 -0.21600398704E+02 -0.43181597140E+02 -0.36739019224E+02  0.60671105885E+02  0.00000000000E+00 0. -1.
         -5    1    3    3    0  503  0.17158196218E+02 -0.44465582684E+02 -0.25079445182E+03  0.25532633786E+03  0.47000000000E+01 0.  1.
         13    1    4    4    0    0 -0.16603886663E+02  0.14184772994E+02 -0.15281707919E+03  0.15436954534E+03  0.00000000000E+00 0. -1.
        -14    1    4    4    0    0 -0.60250622350E+02  0.31940718898E+02 -0.63310743864E+02  0.93051584113E+02  0.00000000000E+00 0.  1.
</event>
<event>
12    1  0.9873238E-001  0.1774828E+03  0.7818608E-02  0.1170365E+00
         21   -1    0    0  501  502  0.00000000000E+00  0.00000000000E+00  0.72959938823E+03  0.72959938823E+03  0.00000000000E+00 0.  1.
         21   -1    0    0  502  503 -0.00000000000E+00 -0.00000000000E+00 -0.44064058440E+02  0.44064058440E+02  0.00000000000E+00 0.  1.
         -6    2    1    2    0  503  0.10574701618E+02  0.42552568395E+02  0.40038579251E+03  0.43779085070E+03  0.17155028628E+03 0.  0.
        -24    2    3    3    0    0  0.67951522623E+02  0.61035472849E+02  0.29119644789E+03  0.31297851026E+03  0.69407767963E+02 0.  0.
          6    2    1    2  501    0 -0.10574701618E+02 -0.42552568395E+02  0.28514953728E+03  0.33587259597E+03  0.17198138481E+03 0.  0.
         24    2    5    5    0    0 -0.35777283779E+01 -0.20500177306E+02  0.38654320444E+02  0.88249399336E+02  0.76555486964E+02 0.  0.
          5    1    5    5  501    0 -0.69969732396E+01 -0.22052391089E+02  0.24649521683E+03  0.24762319663E+03  0.47000000000E+01 0. -1.
        -13    1    6    6    0    0  0.20756704305E+02 -0.40707014835E+02  0.32378580117E+02  0.56002448882E+02  0.00000000000E+00 0.  1.
         14    1    6    6    0    0 -0.24334432683E+02  0.20206837528E+02  0.62757403267E+01  0.32246950454E+02  0.00000000000E+00 0. -1.
         -5    1    3    3    0  503 -0.57376821005E+02 -0.18482904454E+02  0.10918934463E+03  0.12481234044E+03  0.47000000000E+01 0.  1.
         13    1    4    4    0    0 -0.13340410926E+02  0.16984316066E+02  0.42990194442E+02  0.48110189920E+02  0.00000000000E+00 0. -1.
        -14    1    4    4    0    0  0.81291933549E+02  0.44051156784E+02  0.24820625344E+03  0.26486832034E+03  0.00000000000E+00 0.  1.
</event>
<event>
12    1  0.9873238E-001  0.2080201E+03  0.7818608E-02  0.1143164E+00
         21   -1    0    0  503  502  0.00000000000E+00  0.00000000000E+00  0.14175708814E+03  0.14175708814E+03  0.00000000000E+00 0.  1.
         21   -1    0    0  501  503 -0.00000000000E+00 -0.00000000000E+00 -0.36617147984E+03  0.36617147984E+03  0.00000000000E+00 0.  1.
          6    2    1    2  501    0  0.11044232500E+03 -0.37591633193E+02 -0.21594445167E+03  0.29984059325E+03  0.17222583174E+03 0.  0.
         24    2    3    3    0    0  0.44708393930E+01  0.23965536143E+02 -0.51944740545E+02  0.95054763404E+02  0.75781374018E+02 0.  0.
         -6    2    1    2    0  502 -0.11044232500E+03  0.37591633193E+02 -0.84699400311E+01  0.20808797473E+03  0.17209946922E+03 0.  0.
        -24    2    5    5    0    0 -0.24973632377E+02 -0.87391573924E+01 -0.58888826372E+02  0.98472311273E+02  0.74356217156E+02 0.  0.
          5    1    3    3  501    0  0.10597148561E+03 -0.61557169335E+02 -0.16399971112E+03  0.20478582985E+03  0.47000000000E+01 0. -1.
        -11    1    4    4    0    0  0.51386415710E+01  0.47341645486E+02 -0.12556571747E+02  0.49247380931E+02  0.00000000000E+00 0.  1.
         12    1    4    4    0    0 -0.66780217802E+00 -0.23376109343E+02 -0.39388168798E+02  0.45807382473E+02  0.00000000000E+00 0. -1.
         -5    1    5    5    0  502 -0.85468692626E+02  0.46330790585E+02  0.50418886341E+02  0.10961566346E+03  0.47000000000E+01 0.  1.
         11    1    6    6    0    0 -0.73607705013E+01  0.27867601255E+02 -0.48700271860E+02  0.56590640757E+02  0.00000000000E+00 0. -1.
        -12    1    6    6    0    0 -0.17612861876E+02 -0.36606758647E+02 -0.10188554513E+02  0.41881670516E+02  0.00000000000E+00 0.  1.
</event>
<event>
12    1  0.9873238E-001  0.2434566E+03  0.7818608E-02  0.1117769E+00
         21   -1    0    0  503  502  0.00000000000E+00  0.00000000000E+00  0.14133269888E+03  0.14133269888E+03  0.00000000000E+00 0.  1.
         21   -1    0    0  501  503 -0.00000000000E+00 -0.00000000000E+00 -0.42947993910E+03  0.42947993910E+03  0.00000000000E+00 0.  1.
          6    2    1    2  501    0  0.14630995576E+02  0.16944018965E+03 -0.94345073471E+02  0.25963682739E+03  0.17200652705E+03 0.  0.
         24    2    3    3    0    0 -0.54087435921E+02  0.13015347263E+03 -0.78440454436E+02  0.17876213501E+03  0.77055946285E+02 0.  0.
         -6    2    1    2    0  502 -0.14630995576E+02 -0.16944018965E+03 -0.19380216675E+03  0.31117581059E+03  0.17420407963E+03 0.  0.
        -24    2    5    5    0    0 -0.31456574948E+02 -0.15988498458E+03 -0.84717304779E+02  0.20028848410E+03  0.79910767305E+02 0.  0.
          5    1    3    3  501    0  0.68718431497E+02  0.39286717022E+02 -0.15904619036E+02  0.80874692386E+02  0.47000000000E+01 0. -1.
        -11    1    4    4    0    0 -0.68306240044E+01  0.48144989280E+02 -0.67915174057E+02  0.83528847019E+02  0.00000000000E+00 0.  1.
         12    1    4    4    0    0 -0.47256811917E+02  0.82008483351E+02 -0.10525280378E+02  0.95233287988E+02  0.00000000000E+00 0. -1.
         -5    1    5    5    0  502  0.16825579371E+02 -0.95552050686E+01 -0.10908486197E+03  0.11088732649E+03  0.47000000000E+01 0.  1.
         11    1    6    6    0    0  0.24450881961E+02 -0.29433837411E+02 -0.85233801128E+01  0.39202607336E+02  0.00000000000E+00 0. -1.
        -12    1    6    6    0    0 -0.55907456909E+02 -0.13045114717E+03 -0.76193924667E+02  0.16108587676E+03  0.00000000000E+00 0.  1.
</event>
<event>
12    1  0.9873238E-001  0.2652394E+03  0.7818608E-02  0.1104228E+00
         21   -1    0    0  501  502  0.00000000000E+00  0.00000000000E+00  0.90882643005E+02  0.90882643005E+02  0.00000000000E+00 0.  1.
         21   -1    0    0  502  503 -0.00000000000E+00 -0.00000000000E+00 -0.77270147832E+03  0.77270147832E+03  0.00000000000E+00 0.  1.
         -6    2    1    2    0  503 -0.14701519095E+03 -0.13237396618E+03 -0.31582214030E+03  0.41158243904E+03  0.17470016179E+03 0.  0.
        -24    2    3    3    0    0 -0.44091928954E+02 -0.29448618847E+02 -0.21359181969E+03  0.23364999839E+03  0.78482717576E+02 0.  0.
          6    2    1    2  501    0  0.14701519095E+03  0.13237396618E+03 -0.36599669501E+03  0.45200168228E+03  0.17667938967E+03 0.  0.
         24    2    5    5    0    0  0.55210898677E+02 -0.48526647012E+01 -0.16011727201E+03  0.18805546973E+03  0.81581414630E+02 0.  0.
          5    1    5    5  501    0  0.91804292274E+02  0.13722663088E+03 -0.20587942300E+03  0.26394621255E+03  0.47000000000E+01 0. -1.
        -11    1    6    6    0    0  0.73857543504E+02  0.10320589343E+02 -0.12233205252E+03  0.14327101022E+03  0.00000000000E+00 0.  1.
         12    1    6    6    0    0 -0.18646644827E+02 -0.15173254044E+02 -0.37785219492E+02  0.44784459510E+02  0.00000000000E+00 0. -1.
         -5    1    3    3    0  503 -0.10292326200E+03 -0.10292534733E+03 -0.10223032061E+03  0.17793244065E+03  0.47000000000E+01 0.  1.
         13    1    4    4    0    0 -0.57601631537E+02 -0.41579870620E+01 -0.18220352300E+03  0.19113702050E+03  0.00000000000E+00 0. -1.
        -14    1    4    4    0    0  0.13509702583E+02 -0.25290631785E+02 -0.31388296693E+02  0.42512977892E+02  0.00000000000E+00 0.  1.
</event>
<event>
12    1  0.9873238E-001  0.1917048E+03  0.7818608E-02  0.1156946E+00
         21   -1    0    0  503  502  0.00000000000E+00  0.00000000000E+00  0.10750756898E+04  0.10750756898E+04  0.00000000000E+00 0.  1.
         21   -1    0    0  501  503 -0.00000000000E+00 -0.00000000000E+00 -0.56085405834E+02  0.56085405834E+02  0.00000000000E+00 0.  1.
          6    2    1    2  501    0  0.29020138260E+02 -0.79647849961E+02  0.86305711111E+03  0.88409178905E+03  0.17194407811E+03 0.  0.
         24    2    3    3    0    0  0.77510901696E+02 -0.17972979772E+02  0.44233007467E+03  0.45608656368E+03  0.77640780059E+02 0.  0.
         -6    2    1    2    0  502 -0.29020138260E+02  0.79647849961E+02  0.15593317287E+03  0.24706930660E+03  0.17187826923E+03 0.  0.
        -24    2    5    5    0    0 -0.49740878542E+02  0.94938952324E+02  0.17003629055E+03  0.21733456567E+03  0.82670512679E+02 0.  0.
          5    1    3    3  501    0 -0.48490763436E+02 -0.61674870189E+02  0.42072703644E+03  0.42800522536E+03  0.47000000000E+01 0. -1.
        -11    1    4    4    0    0  0.32179789434E+02  0.21003934371E+02  0.28849575423E+03  0.29104381855E+03  0.00000000000E+00 0.  1.
         12    1    4    4    0    0  0.45331112262E+02 -0.38976914143E+02  0.15383432044E+03  0.16504274513E+03  0.00000000000E+00 0. -1.
         -5    1    5    5    0  502  0.20720740282E+02 -0.15291102363E+02 -0.14103117683E+02  0.29734740922E+02  0.47000000000E+01 0.  1.
         13    1    6    6    0    0  0.23018842465E+02  0.17259616754E+02  0.32043217342E+02  0.43064245686E+02  0.00000000000E+00 0. -1.
        -14    1    6    6    0    0 -0.72759721007E+02  0.77679335570E+02  0.13799307321E+03  0.17427031999E+03  0.00000000000E+00 0.  1.
</event>
<event>
12    1  0.9873238E-001  0.2418471E+03  0.7818608E-02  0.1118646E+00
         21   -1    0    0  503  502  0.00000000000E+00  0.00000000000E+00  0.17260126742E+03  0.17260126742E+03  0.00000000000E+00 0. -1.
         21   -1    0    0  501  503 -0.00000000000E+00 -0.00000000000E+00 -0.37763893971E+03  0.37763893971E+03  0.00000000000E+00 0. -1.
          6    2    1    2  501    0 -0.10208534346E+03 -0.13528922337E+03 -0.13537936137E+02  0.24175654001E+03  0.17186726742E+03 0.  0.
         24    2    3    3    0    0 -0.63915587037E+02 -0.66559161301E+00 -0.77282534484E+01  0.10162697515E+03  0.78629961836E+02 0.  0.
         -6    2    1    2    0  502  0.10208534346E+03  0.13528922337E+03 -0.19149973615E+03  0.30848366713E+03  0.17252661427E+03 0.  0.
        -24    2    5    5    0    0 -0.37201566133E+01  0.49937242442E+02 -0.34631193579E+02  0.10085516681E+03  0.80404461048E+02 0.  0.
          5    1    3    3  501    0 -0.38169756427E+02 -0.13462363176E+03 -0.58096826883E+01  0.14012956486E+03  0.47000000000E+01 0. -1.
        -13    1    4    4    0    0 -0.31896407968E+01 -0.26910078719E+02 -0.20840496994E+02  0.34185559232E+02  0.00000000000E+00 0.  1.
         14    1    4    4    0    0 -0.60725946240E+02  0.26244487106E+02  0.13112243546E+02  0.67441415918E+02  0.00000000000E+00 0. -1.
         -5    1    5    5    0  502  0.10580550008E+03  0.85351980930E+02 -0.15686854258E+03  0.20762850032E+03  0.47000000000E+01 0.  1.
         13    1    6    6    0    0 -0.11484024346E+02  0.54552939802E+01 -0.51201467809E+02  0.52756358417E+02  0.00000000000E+00 0. -1.
        -14    1    6    6    0    0  0.77638677324E+01  0.44481948462E+02  0.16570274230E+02  0.48098808397E+02  0.00000000000E+00 0.  1.
</event>
<event>
12    1  0.9873238E-001  0.2141639E+03  0.7818608E-02  0.1138315E+00
         21   -1    0    0  503  502  0.00000000000E+00  0.00000000000E+00  0.15382235363E+03  0.15382235363E+03  0.00000000000E+00 0.  1.
         21   -1    0    0  501  503 -0.00000000000E+00 -0.00000000000E+00 -0.31799714489E+03  0.31799714489E+03  0.00000000000E+00 0.  1.
          6    2    1    2  501    0 -0.11042185397E+03 -0.64167946751E+02 -0.14103023943E+03  0.25640863416E+03  0.17188760285E+03 0.  0.
         24    2    3    3    0    0 -0.17300075967E+02 -0.41155432554E+02 -0.13261528953E+03  0.16000249986E+03  0.77594604767E+02 0.  0.
         -6    2    1    2    0  502  0.11042185397E+03  0.64167946751E+02 -0.23144551835E+02  0.21541086436E+03  0.17191759357E+03 0.  0.
        -24    2    5    5    0    0  0.73460397386E+02  0.45019513431E+02 -0.84909379939E+02  0.14077980003E+03  0.72015017333E+02 0.  0.
          5    1    3    3  501    0 -0.93121778004E+02 -0.23012514197E+02 -0.84149499041E+01  0.96406134298E+02  0.47000000000E+01 0. -1.
        -11    1    4    4    0    0 -0.17504094681E+00 -0.91573620757E+01  0.95770292468E+01  0.13251694560E+02  0.00000000000E+00 0.  1.
         12    1    4    4    0    0 -0.17125035020E+02 -0.31998070478E+02 -0.14219231878E+03  0.14675080530E+03  0.00000000000E+00 0. -1.
         -5    1    5    5    0  502  0.36961456585E+02  0.19148433320E+02  0.61764828104E+02  0.74631064324E+02  0.47000000000E+01 0.  1.
         13    1    6    6    0    0  0.68638692335E+02  0.14291102494E+02 -0.84332758085E+02  0.10967004961E+03  0.00000000000E+00 0. -1.
        -14    1    6    6    0    0  0.48217050515E+01  0.30728410937E+02 -0.57662185405E+00  0.31109750418E+02  0.00000000000E+00 0.  1.
</event>
<event>
12    1  0.9873238E-001  0.4885509E+03  0.7818608E-02  0.1016845E+00
         21   -1    0    0  501  502  0.00000000000E+00  0.00000000000E+00  0.28408057695E+03  0.28408057695E+03  0.00000000000E+00 0. -1.
         21   -1    0    0  502  503 -0.00000000000E+00 -0.00000000000E+00 -0.85339146661E+03  0.85339146661E+03  0.00000000000E+00 0. -1.
         -6    2    1    2    0  503 -0.43090922608E+03 -0.15269002189E+03 -0.21151974535E+03  0.53191734203E+03  0.17087554587E+03 0.  0.
        -24    2    3    3    0    0 -0.14842657430E+03 -0.59810994274E+02 -0.24524989456E+02  0.18061677121E+03  0.80082082521E+02 0.  0.
          6    2    1    2  501    0  0.43090922608E+03  0.15269002189E+03 -0.35779114431E+03  0.60555470153E+03  0.17229332459E+03 0.  0.
         24    2    5    5    0    0  0.38550688839E+03  0.10887305131E+03 -0.24558634984E+03  0.47673969821E+03  0.80617506320E+02 0.  0.
          5    1    5    5  501    0  0.45402337687E+02  0.43816970581E+02 -0.11220479447E+03  0.12881500332E+03  0.47000000000E+01 0. -1.
        -13    1    6    6    0    0  0.28777084422E+03  0.46063267478E+02 -0.19042112958E+03  0.34812941557E+03  0.00000000000E+00 0.  1.
         14    1    6    6    0    0  0.97736044170E+02  0.62809783831E+02 -0.55165220258E+02  0.12861028264E+03  0.00000000000E+00 0. -1.
         -5    1    3    3    0  503 -0.28248265178E+03 -0.92879027616E+02 -0.18699475589E+03  0.35130057082E+03  0.47000000000E+01 0.  1.
         13    1    4    4    0    0  0.44990641835E+01 -0.16502407657E+02 -0.12572212803E+02  0.21228084506E+02  0.00000000000E+00 0. -1.
        -14    1    4    4    0    0 -0.15292563848E+03 -0.43308586617E+02 -0.11952776653E+02  0.15938868671E+03  0.00000000000E+00 0.  1.
</event>
<event>
12    1  0.9873238E-001  0.2766476E+03  0.7818608E-02  0.1097546E+00
         21   -1    0    0  503  502  0.00000000000E+00  0.00000000000E+00  0.41958258131E+03  0.41958258131E+03  0.00000000000E+00 0.  1.
         21   -1    0    0  501  503 -0.00000000000E+00 -0.00000000000E+00 -0.18420115272E+03  0.18420115272E+03  0.00000000000E+00 0.  1.
          6    2    1    2  501    0 -0.71025453275E+02 -0.20490547070E+03  0.14794291498E+03  0.31364691391E+03  0.17162870849E+03 0.  0.
         24    2    3    3    0    0 -0.83671621401E+00 -0.23967998862E+02  0.26942568400E+02  0.84893768803E+02  0.76849755537E+02 0.  0.
         -6    2    1    2    0  502  0.71025453275E+02  0.20490547070E+03  0.87438513612E+02  0.29013682012E+03  0.17176441363E+03 0.  0.
        -24    2    5    5    0    0  0.36154350978E+02  0.19510866311E+02  0.67742764268E+01  0.84915080836E+02  0.74005872290E+02 0.  0.
          5    1    3    3  501    0 -0.70188737061E+02 -0.18093747184E+03  0.12100034658E+03  0.22875314511E+03  0.47000000000E+01 0. -1.
        -11    1    4    4    0    0  0.26632785868E+02 -0.29084098691E+02 -0.79119951966E+01  0.40221757144E+02  0.00000000000E+00 0.  1.
         12    1    4    4    0    0 -0.27469502082E+02  0.51160998298E+01  0.34854563597E+02  0.44672011659E+02  0.00000000000E+00 0. -1.
         -5    1    5    5    0  502  0.34871102297E+02  0.18539460439E+03  0.80664237186E+02  0.20522173928E+03  0.47000000000E+01 0.  1.
         13    1    6    6    0    0  0.51104984900E+02  0.17193675221E+02 -0.17173530573E+02  0.56588621662E+02  0.00000000000E+00 0. -1.
        -14    1    6    6    0    0 -0.14950633922E+02  0.23171910901E+01  0.23947807000E+02  0.28326459174E+02  0.00000000000E+00 0.  1.
</event>
<event>
12    1  0.9873238E-001  0.1862448E+03  0.7818608E-02  0.1162623E+00
         21   -1    0    0  503  502  0.00000000000E+00  0.00000000000E+00  0.44177701700E+02  0.44177701700E+02  0.00000000000E+00 0. -1.
         21   -1    0    0  501  503 -0.00000000000E+00 -0.00000000000E+00 -0.78268681833E+03  0.78268681833E+03  0.00000000000E+00 0. -1.
          6    2    1    2  501    0  0.71068912312E+02  0.26672430195E+01 -0.32411285516E+03  0.37381312389E+03  0.17213135749E+03 0.  0.
         24    2    3    3    0    0  0.86656710503E+02 -0.23269543370E+02 -0.32105316825E+03  0.34303735380E+03  0.80923619135E+02 0.  0.
         -6    2    1    2    0  502 -0.71068912312E+02 -0.26672430195E+01 -0.41439626148E+03  0.45305139615E+03  0.16874063393E+03 0.  0.
        -24    2    5    5    0    0 -0.89525341772E+01 -0.39153210961E+02 -0.33053301139E+03  0.34239514913E+03  0.79807548076E+02 0.  0.
          5    1    3    3  501    0 -0.15587798191E+02  0.25936786390E+02 -0.30596869083E+01  0.30775770090E+02  0.47000000000E+01 0. -1.
        -11    1    4    4    0    0  0.48902765895E+01  0.10997625668E+02 -0.14900254710E+03  0.14948786445E+03  0.00000000000E+00 0.  1.
         12    1    4    4    0    0  0.81766433914E+02 -0.34267169038E+02 -0.17205062114E+03  0.19354948934E+03  0.00000000000E+00 0. -1.
         -5    1    5    5    0  502 -0.62116378135E+02  0.36485967942E+02 -0.83863250089E+02  0.11065624702E+03  0.47000000000E+01 0.  1.
         13    1    6    6    0    0  0.11418895617E+01 -0.49903261962E+02 -0.10375220349E+03  0.11513539506E+03  0.00000000000E+00 0. -1.
        -14    1    6    6    0    0 -0.10094423739E+02  0.10750051001E+02 -0.22678080790E+03  0.22725975407E+03  0.00000000000E+00 0.  1.
</event>
<event>
12    1  0.9873238E-001  0.2541757E+03  0.7818608E-02  0.1110781E+00
         21   -1    0    0  503  502  0.00000000000E+00  0.00000000000E+00  0.29562059197E+02  0.29562059197E+02  0.00000000000E+00 0.  1.
         21   -1    0    0  501  503 -0.00000000000E+00 -0.00000000000E+00 -0.22672577801E+04  0.22672577801E+04  0.00000000000E+00 0.  1.
          6    2    1    2  501    0  0.10014042252E+03  0.15574029154E+03 -0.89308430727E+03  0.92839551351E+03  0.17330755028E+03 0.  0.
         24    2    3    3    0    0  0.74605381975E+02  0.15608468175E+03 -0.51010657646E+03  0.54453852296E+03  0.79906775314E+02 0.  0.
         -6    2    1    2    0  502 -0.10014042252E+03 -0.15574029154E+03 -0.13446114136E+04  0.13684243258E+04  0.17413253314E+03 0.  0.
        -24    2    5    5    0    0  0.15577126137E+02 -0.46884000850E+02 -0.45812564403E+03  0.46780267782E+03  0.80743317097E+02 0.  0.
          5    1    3    3  501    0  0.25535040541E+02 -0.34439020751E+00 -0.38297773081E+03  0.38385699055E+03  0.47000000000E+01 0. -1.
        -13    1    4    4    0    0  0.32391728646E+02  0.15666758269E+02 -0.49769985067E+02  0.61414353476E+02  0.00000000000E+00 0.  1.
         14    1    4    4    0    0  0.42213653329E+02  0.14041792348E+03 -0.46033659139E+03  0.48312416948E+03  0.00000000000E+00 0. -1.
         -5    1    5    5    0  502 -0.11571754865E+03 -0.10885629069E+03 -0.88648576957E+03  0.90062164794E+03  0.47000000000E+01 0.  1.
         13    1    6    6    0    0 -0.45982989950E+01 -0.66372342524E+02 -0.33068964208E+03  0.33731598181E+03  0.00000000000E+00 0. -1.
        -14    1    6    6    0    0  0.20175425132E+02  0.19488341674E+02 -0.12743600196E+03  0.13048669601E+03  0.00000000000E+00 0.  1.
</event>
<event>
12    1  0.9873238E-001  0.4246296E+03  0.7818608E-02  0.1035613E+00
         21   -1    0    0  501  502  0.00000000000E+00  0.00000000000E+00  0.65367122640E+03  0.65367122640E+03  0.00000000000E+00 0.  1.
         21   -1    0    0  502  503 -0.00000000000E+00 -0.00000000000E+00 -0.27626275066E+03  0.27626275066E+03  0.00000000000E+00 0.  1.
         -6    2    1    2    0  503  0.38763852243E+03 -0.24090759347E+02  0.16402531387E+03  0.45470490889E+03  0.17031811949E+03 0.  0.
        -24    2    3    3    0    0  0.35230988685E+03  0.11458766187E+02  0.10315405460E+03  0.37571578646E+03  0.79170913365E+02 0.  0.
          6    2    1    2  501    0 -0.38763852243E+03  0.24090759347E+02  0.21338316187E+03  0.47522906816E+03  0.17165752152E+03 0.  0.
         24    2    5    5    0    0 -0.80831848682E+02  0.91248905363E+01  0.45926890744E+02  0.12534622344E+03  0.83578376686E+02 0.  0.
          5    1    5    5  501    0 -0.30680667375E+03  0.14965868810E+02  0.16745627113E+03  0.34988284472E+03  0.47000000000E+01 0. -1.
        -13    1    6    6    0    0 -0.22847176238E+02 -0.17319306475E+02 -0.18979486008E+02  0.34382738808E+02  0.00000000000E+00 0.  1.
         14    1    6    6    0    0 -0.57984672443E+02  0.26444197011E+02  0.64906376752E+02  0.90963484635E+02  0.00000000000E+00 0. -1.
         -5    1    3    3    0  503  0.35328635586E+02 -0.35549525534E+02  0.60871259270E+02  0.78989122436E+02  0.47000000000E+01 0. -1.
         11    1    4    4    0    0  0.15394760586E+03  0.25787335917E+02  0.80275794563E+02  0.17552508435E+03  0.00000000000E+00 0. -1.
        -12    1    4    4    0    0  0.19836228098E+03 -0.14328569730E+02  0.22878260032E+02  0.20019070210E+03  0.00000000000E+00 0.  1.
</event>
<event>
12    1  0.9873238E-001  0.2286788E+03  0.7818608E-02  0.1127840E+00
         21   -1    0    0  503  502  0.00000000000E+00  0.00000000000E+00  0.32498078940E+02  0.32498078940E+02  0.00000000000E+00 0.  1.
         21   -1    0    0  501  503 -0.00000000000E+00 -0.00000000000E+00 -0.16183447911E+04  0.16183447911E+04  0.00000000000E+00 0.  1.
          6    2    1    2  501    0  0.11012434663E+03  0.10436467115E+03 -0.88665484259E+03  0.91566959859E+03  0.17109835649E+03 0.  0.
         24    2    3    3    0    0  0.57752664602E+02  0.13553418282E+03 -0.64606303063E+03  0.66743414279E+03  0.79787282402E+02 0.  0.
         -6    2    1    2    0  502 -0.11012434663E+03 -0.10436467115E+03 -0.69919186953E+03  0.73517327140E+03  0.16908906608E+03 0.  0.
        -24    2    5    5    0    0 -0.12720960869E+03 -0.12225527109E+03 -0.66552033055E+03  0.69312755482E+03  0.79874032217E+02 0.  0.
          5    1    3    3  501    0  0.52371682025E+02 -0.31169511668E+02 -0.24059181196E+03  0.24823545580E+03  0.47000000000E+01 0. -1.
        -11    1    4    4    0    0 -0.76401067328E+01  0.71216835093E+02 -0.21157090345E+03  0.22336619265E+03  0.00000000000E+00 0.  1.
         12    1    4    4    0    0  0.65392771334E+02  0.64317347730E+02 -0.43449212718E+03  0.44406795014E+03  0.00000000000E+00 0. -1.
         -5    1    5    5    0  502  0.17085262067E+02  0.17890599934E+02 -0.33671538978E+02  0.42045716583E+02  0.47000000000E+01 0.  1.
         13    1    6    6    0    0 -0.57953295260E+02 -0.84953760324E+01 -0.16096774854E+03  0.17129323372E+03  0.00000000000E+00 0. -1.
        -14    1    6    6    0    0 -0.69256313433E+02 -0.11375989506E+03 -0.50455258200E+03  0.52183432110E+03  0.00000000000E+00 0.  1.
</event>
<event>
12    1  0.9873238E-001  0.1971866E+03  0.7818608E-02  0.1152251E+00
         21   -1    0    0  503  502  0.00000000000E+00  0.00000000000E+00  0.55543396682E+02  0.55543396682E+02  0.00000000000E+00 0. -1.
         21   -1    0    0  501  503 -0.00000000000E+00 -0.00000000000E+00 -0.71535745894E+03  0.71535745894E+03  0.00000000000E+00 0. -1.
          6    2    1    2  501    0  0.31398677829E+02 -0.90842182059E+02 -0.39018720207E+03  0.43718257664E+03  0.17217541535E+03 0.  0.
         24    2    3    3    0    0 -0.35303964815E+02 -0.82633044850E+02 -0.17885699426E+03  0.21537369674E+03  0.79507325578E+02 0.  0.
         -6    2    1    2    0  502 -0.31398677829E+02  0.90842182059E+02 -0.26962686018E+03  0.33371827898E+03  0.17155485122E+03 0.  0.
        -24    2    5    5    0    0 -0.14224564914E+02 -0.61655101119E+01 -0.69831443761E+02  0.11090503673E+03  0.84753435760E+02 0.  0.
          5    1    3    3  501    0  0.66702642644E+02 -0.82091372086E+01 -0.21133020781E+03  0.22180887990E+03  0.47000000000E+01 0. -1.
        -13    1    4    4    0    0 -0.34990379018E+02 -0.58461035420E+02 -0.50621807442E+02  0.84879836681E+02  0.00000000000E+00 0.  1.
         14    1    4    4    0    0 -0.31358579656E+00 -0.24172009430E+02 -0.12823518682E+03  0.13049386006E+03  0.00000000000E+00 0. -1.
         -5    1    5    5    0  502 -0.17174112915E+02  0.97007692171E+02 -0.19979541642E+03  0.22281324224E+03  0.47000000000E+01 0.  1.
         11    1    6    6    0    0 -0.22048415413E+02 -0.69152241798E+01 -0.88066856589E+02  0.91047922420E+02  0.00000000000E+00 0. -1.
        -12    1    6    6    0    0  0.78238504988E+01  0.74971406787E+00  0.18235412828E+02  0.19857114312E+02  0.00000000000E+00 0.  1.
</event>
<event>
12    1  0.9873238E-001  0.1945267E+03  0.7818608E-02  0.1156401E+00
         21   -1    0    0  501  502  0.00000000000E+00  0.00000000000E+00  0.67168931878E+03  0.67168931878E+03  0.00000000000E+00 0.  1.
         21   -1    0    0  502  503 -0.00000000000E+00 -0.00000000000E+00 -0.83631366439E+02  0.83631366439E+02  0.00000000000E+00 0.  1.
         -6    2    1    2    0  503  0.23824874672E+02  0.66866909478E+02  0.64281143934E+02  0.19658750150E+03  0.17168509558E+03 0.  0.
        -24    2    3    3    0    0  0.80716509187E+02  0.61428888694E+02  0.43380360384E+02  0.13555338890E+03  0.78766759190E+02 0.  0.
          6    2    1    2  501    0 -0.23824874672E+02 -0.66866909478E+02  0.52377680841E+03  0.55873318372E+03  0.18111271995E+03 0.  0.
         24    2    5    5    0    0 -0.42066636700E+02  0.31660047409E+02  0.20182222767E+03  0.22151342574E+03  0.74592396905E+02 0.  0.
          5    1    5    5  501    0  0.18241762028E+02 -0.98526956887E+02  0.32195458073E+03  0.33721975798E+03  0.47000000000E+01 0. -1.
        -13    1    6    6    0    0 -0.53204058871E+02  0.16120243857E+02  0.75535975197E+02  0.93788153257E+02  0.00000000000E+00 0.  1.
         14    1    6    6    0    0  0.11137422171E+02  0.15539803553E+02  0.12628625248E+03  0.12772527249E+03  0.00000000000E+00 0. -1.
         -5    1    3    3    0  503 -0.56891634515E+02  0.54380207839E+01  0.20900783550E+02  0.61034112600E+02  0.47000000000E+01 0.  1.
         13    1    4    4    0    0  0.24552972774E+02  0.44642150181E+02  0.55877044827E+02  0.75617552086E+02  0.00000000000E+00 0. -1.
        -14    1    4    4    0    0  0.56163536414E+02  0.16786738513E+02 -0.12496684444E+02  0.59935836813E+02  0.00000000000E+00 0.  1.
</event>
<event>
12    1  0.9873238E-001  0.2356382E+03  0.7818608E-02  0.1122869E+00
         21   -1    0    0  503  502  0.00000000000E+00  0.00000000000E+00  0.73081055440E+02  0.73081055440E+02  0.00000000000E+00 0.  1.
         21   -1    0    0  501  503 -0.00000000000E+00 -0.00000000000E+00 -0.91218075107E+03  0.91218075107E+03  0.00000000000E+00 0.  1.
          6    2    1    2  501    0 -0.14021820020E+03  0.77770206838E+02 -0.21591192591E+03  0.31901233067E+03  0.17158542663E+03 0.  0.
         24    2    3    3    0    0 -0.61301022994E+01  0.49844198476E+02 -0.58066321491E+02  0.10997452362E+03  0.78744370459E+02 0.  0.
         -6    2    1    2    0  502  0.14021820020E+03 -0.77770206838E+02 -0.62318776972E+03  0.66624947584E+03  0.17267315654E+03 0.  0.
        -24    2    5    5    0    0  0.12283237443E+03 -0.12005711630E+03 -0.49490032131E+03  0.52997692149E+03  0.80297608285E+02 0.  0.
          5    1    3    3  501    0 -0.13408809790E+03  0.27926008362E+02 -0.15784560442E+03  0.20903780705E+03  0.47000000000E+01 0. -1.
        -13    1    4    4    0    0  0.16005105810E+02 -0.16337521175E+02 -0.20534833020E+02  0.30736905786E+02  0.00000000000E+00 0.  1.
         14    1    4    4    0    0 -0.22135208109E+02  0.66181719650E+02 -0.37531488471E+02  0.79237617838E+02  0.00000000000E+00 0. -1.
         -5    1    5    5    0  502  0.17385825764E+02  0.42286909463E+02 -0.12828744841E+03  0.13627255435E+03  0.47000000000E+01 0.  1.
         13    1    6    6    0    0  0.45648751582E+02 -0.31636052322E+02 -0.71081762624E+02  0.90206791902E+02  0.00000000000E+00 0. -1.
        -14    1    6    6    0    0  0.77183622851E+02 -0.88421063979E+02 -0.42381855868E+03  0.43977012959E+03  0.00000000000E+00 0.  1.
</event>
<event>
12    1  0.9873238E-001  0.2582986E+03  0.7818608E-02  0.1108207E+00
         21   -1    0    0  501  502  0.00000000000E+00  0.00000000000E+00  0.70082343716E+02  0.70082343716E+02  0.00000000000E+00 0.  1.
         21   -1    0    0  502  503 -0.00000000000E+00 -0.00000000000E+00 -0.10067216061E+04  0.10067216061E+04  0.00000000000E+00 0.  1.
         -6    2    1    2    0  503  0.17174776717E+03  0.87484297348E+02 -0.34155965851E+03  0.42808373418E+03  0.17158637864E+03 0.  0.
        -24    2    3    3    0    0  0.36070110142E+02  0.85576593524E+02 -0.17485284606E+03  0.21308299634E+03  0.78780958048E+02 0.  0.
          6    2    1    2  501    0 -0.17174776717E+03 -0.87484297348E+02 -0.59507960387E+03  0.64872021564E+03  0.17195169503E+03 0.  0.
         24    2    5    5    0    0 -0.87788341855E+02 -0.10229918615E+03 -0.26218101127E+03  0.30504561811E+03  0.78371104409E+02 0.  0.
          5    1    5    5  501    0 -0.83959425315E+02  0.14814888798E+02 -0.33289859261E+03  0.34367459753E+03  0.47000000000E+01 0. -1.
        -13    1    6    6    0    0  0.36255442710E+01  0.85109040731E+01 -0.51278077882E+01  0.10577072946E+02  0.00000000000E+00 0.  1.
         14    1    6    6    0    0 -0.91413886126E+02 -0.11081009022E+03 -0.25705320348E+03  0.29446854516E+03  0.00000000000E+00 0. -1.
         -5    1    3    3    0  503  0.13567765703E+03  0.19077038242E+01 -0.16670681245E+03  0.21500073783E+03  0.47000000000E+01 0.  1.
         11    1    4    4    0    0  0.59502079795E+02  0.44077379893E+02 -0.10271117307E+03  0.12662108036E+03  0.00000000000E+00 0. -1.
        -12    1    4    4    0    0 -0.23431969653E+02  0.41499213631E+02 -0.72141672988E+02  0.86461915982E+02  0.00000000000E+00 0.  1.
</event>
<event>
12    1  0.9873238E-001  0.1979489E+03  0.7818608E-02  0.1151521E+00
         21   -1    0    0  501  502  0.00000000000E+00  0.00000000000E+00  0.10138376823E+03  0.10138376823E+03  0.00000000000E+00 0. -1.
         21   -1    0    0  502  503 -0.00000000000E+00 -0.00000000000E+00 -0.54543840246E+03  0.54543840246E+03  0.00000000000E+00 0. -1.
         -6    2    1    2    0  503  0.96477553112E+02 -0.14537774100E+02 -0.39673975831E+03  0.44329707858E+03  0.17201918185E+03 0.  0.
        -24    2    3    3    0    0  0.13282023951E+03 -0.28252329498E+02 -0.33636168273E+03  0.37134930658E+03  0.79509218020E+02 0.  0.
          6    2    1    2  501    0 -0.96477553112E+02  0.14537774100E+02 -0.47314875931E+02  0.20352509211E+03  0.17223385412E+03 0.  0.
         24    2    5    5    0    0 -0.26796601510E+02  0.71262081549E+01 -0.88122571507E+02  0.12229871497E+03  0.80140797215E+02 0.  0.
          5    1    5    5  501    0 -0.69680951602E+02  0.74115659450E+01  0.40807695577E+02  0.81226377146E+02  0.47000000000E+01 0. -1.
        -11    1    6    6    0    0 -0.12707535783E+02  0.43751120867E+02 -0.46986462230E+02  0.65447457366E+02  0.00000000000E+00 0.  1.
         12    1    6    6    0    0 -0.14089065728E+02 -0.36624912712E+02 -0.41136109277E+02  0.56851257600E+02  0.00000000000E+00 0. -1.
         -5    1    3    3    0  503 -0.36342686393E+02  0.13714555398E+02 -0.60378075582E+02  0.71947771995E+02  0.47000000000E+01 0.  1.
         11    1    4    4    0    0  0.10229385765E+03 -0.50964474880E+02 -0.28776838874E+03  0.30963213104E+03  0.00000000000E+00 0. -1.
        -12    1    4    4    0    0  0.30526381857E+02  0.22712145382E+02 -0.48593293985E+02  0.61717175547E+02  0.00000000000E+00 0.  1.
</event>
<event>
12    1  0.9873238E-001  0.2523323E+03  0.7818608E-02  0.1111874E+00
         21   -1    0    0  501  502  0.00000000000E+00  0.00000000000E+00  0.43155302011E+03  0.43155302011E+03  0.00000000000E+00 0.  1.
         21   -1    0    0  502  503 -0.00000000000E+00 -0.00000000000E+00 -0.17480188152E+03  0.17480188152E+03  0.00000000000E+00 0.  1.
         -6    2    1    2    0  503 -0.18354132760E+03  0.81373948201E+01  0.24843697351E+03  0.35410804924E+03  0.17296804501E+03 0.  0.
        -24    2    3    3    0    0 -0.17903192787E+03  0.29929738613E+02  0.26134309520E+03  0.32795658826E+03  0.79417189113E+02 0.  0.
          6    2    1    2  501    0  0.18354132760E+03 -0.81373948201E+01  0.83141650769E+01  0.25224685240E+03  0.17264331169E+03 0.  0.
         24    2    5    5    0    0  0.18005862150E+03  0.39450306953E+02  0.21839959583E+02  0.20242962928E+03  0.80767178232E+02 0.  0.
          5    1    5    5  501    0  0.34827060969E+01 -0.47587701773E+02 -0.13525794506E+02  0.49817223114E+02  0.47000000000E+01 0. -1.
        -13    1    6    6    0    0  0.21309217767E+01  0.19565901008E+02  0.12155184345E+02  0.23132527237E+02  0.00000000000E+00 0.  1.
         14    1    6    6    0    0  0.17792769973E+03  0.19884405945E+02  0.96847752373E+01  0.17929710204E+03  0.00000000000E+00 0. -1.
         -5    1    3    3    0  503 -0.45093997275E+01 -0.21792343792E+02 -0.12906121690E+02  0.26151460972E+02  0.47000000000E+01 0.  1.
         13    1    4    4    0    0 -0.12671232098E+03  0.22106344456E+01  0.11922731195E+03  0.17400014686E+03  0.00000000000E+00 0. -1.
        -14    1    4    4    0    0 -0.52319606896E+02  0.27719104167E+02  0.14211578325E+03  0.15395644141E+03  0.00000000000E+00 0.  1.
</event>
<event>
12    1  0.9873238E-001  0.4298079E+03  0.7818608E-02  0.1034035E+00
         21   -1    0    0  501  502  0.00000000000E+00  0.00000000000E+00  0.35604844250E+03  0.35604844250E+03  0.00000000000E+00 0.  1.
         21   -1    0    0  502  503 -0.00000000000E+00 -0.00000000000E+00 -0.58538750525E+03  0.58538750525E+03  0.00000000000E+00 0. -1.
         -6    2    1    2    0  503 -0.18321423153E+03 -0.34854534407E+03  0.45917660315E+02  0.43225372402E+03  0.17228911426E+03 0.  0.
        -24    2    3    3    0    0 -0.34495612298E+02 -0.18857389295E+03  0.50107216970E+02  0.21374117229E+03  0.80152948590E+02 0.  0.
          6    2    1    2  501    0  0.18321423153E+03  0.34854534407E+03 -0.27525672307E+03  0.50918222374E+03  0.16866820053E+03 0.  0.
         24    2    5    5    0    0  0.13060923705E+03  0.13693679335E+03 -0.94146234730E+02  0.22568872617E+03  0.79129194543E+02 0.  0.
          5    1    5    5  501    0  0.52604994487E+02  0.21160855071E+03 -0.18111048834E+03  0.28349349757E+03  0.47000000000E+01 0. -1.
        -11    1    6    6    0    0  0.42779846888E+02  0.10194576580E+03 -0.49460835079E+02  0.12111741687E+03  0.00000000000E+00 0.  1.
         12    1    6    6    0    0  0.87829390158E+02  0.34991027555E+02 -0.44685399651E+02  0.10457130929E+03  0.00000000000E+00 0. -1.
         -5    1    3    3    0  503 -0.14871861924E+03 -0.15997145111E+03 -0.41895566542E+01  0.21851255173E+03  0.47000000000E+01 0.  1.
         11    1    4    4    0    0  0.20766526891E+02 -0.18222849818E+02  0.14286809051E+02  0.31103597982E+02  0.00000000000E+00 0. -1.
        -12    1    4    4    0    0 -0.55262139190E+02 -0.17035104313E+03  0.35820407919E+02  0.18263757430E+03  0.00000000000E+00 0.  1.
</event>
<event>
12    1  0.1189160E+000  0.3458138E+03  0.7818608E-02  0.1064367E+00
         21   -1    0    0  503  502  0.00000000000E+00  0.00000000000E+00  0.23375779847E+03  0.23375779847E+03  0.00000000000E+00 0. -1.
         21   -1    0    0  501  503 -0.00000000000E+00 -0.00000000000E+00 -0.15470382459E+04  0.15470382459E+04  0.00000000000E+00 0. -1.
          6    2    1    2  501    0  0.83668917998E+01  0.29999333987E+03  0.71848839445E+02  0.35319888147E+03  0.17181730209E+03 0.  0.
         24    2    3    3    0    0  0.39998650821E+01  0.12207819202E+03  0.94820056640E+02  0.17369223096E+03  0.79114246937E+02 0.  0.
         -6    2    1    2    0  502 -0.83668917998E+01 -0.29999333987E+03 -0.13851292869E+04  0.14275971629E+04  0.17141910431E+03 0.  0.
        -24    2    5    5    0    0  0.60966856935E+02 -0.17366349375E+03 -0.85384335589E+03  0.87709445701E+03  0.79813804631E+02 0.  0.
          5    1    3    3  501    0  0.43670267177E+01  0.17791514786E+03 -0.22971217195E+02  0.17950665051E+03  0.47000000000E+01 0. -1.
        -13    1    4    4    0    0 -0.32238105191E+02  0.74330559591E+02  0.32708390723E+02  0.87373716524E+02  0.00000000000E+00 0.  1.
         14    1    4    4    0    0  0.36237970273E+02  0.47747632426E+02  0.62111665917E+02  0.86318514438E+02  0.00000000000E+00 0. -1.
         -5    1    5    5    0  502 -0.69333748735E+02 -0.12632984612E+03 -0.53128593096E+03  0.55050270587E+03  0.47000000000E+01 0.  1.
         13    1    6    6    0    0 -0.10118234318E+01 -0.25781515056E+02 -0.39955194110E+02  0.47561831773E+02  0.00000000000E+00 0. -1.
        -14    1    6    6    0    0  0.61978680367E+02 -0.14788197870E+03 -0.81388816178E+03  0.82953262524E+03  0.00000000000E+00 0.  1.
</event>
<event>
12    1  0.9873238E-001  0.1832458E+03  0.7818608E-02  0.1165211E+00
         21   -1    0    0  503  502  0.00000000000E+00  0.00000000000E+00  0.13879452367E+04  0.13879452367E+04  0.00000000000E+00 0.  1.
         21   -1    0    0  501  503 -0.00000000000E+00 -0.00000000000E+00 -0.24279458631E+02  0.24279458631E+02  0.00000000000E+00 0.  1.
          6    2    1    2  501    0 -0.24793894990E+02 -0.50933086486E+02  0.59865539035E+03  0.62607292276E+03  0.17427022607E+03 0.  0.
         24    2    3    3    0    0  0.47330480852E+02 -0.44058085696E+02  0.43367457749E+03  0.44582323528E+03  0.80643838086E+02 0.  0.
         -6    2    1    2    0  502  0.24793894990E+02  0.50933086486E+02  0.76501038772E+03  0.78615177257E+03  0.17200232459E+03 0.  0.
        -24    2    5    5    0    0 -0.25361241040E+02  0.59876651233E+02  0.26723099076E+03  0.28574999094E+03  0.77538693490E+02 0.  0.
          5    1    3    3  501    0 -0.72124375842E+02 -0.68750007909E+01  0.16498081286E+03  0.18024968749E+03  0.47000000000E+01 0. -1.
        -11    1    4    4    0    0  0.22589704942E+02  0.22751088442E+02  0.14188707370E+03  0.14546425155E+03  0.00000000000E+00 0.  1.
         12    1    4    4    0    0  0.24740775910E+02 -0.66809174137E+02  0.29178750379E+03  0.30035898373E+03  0.00000000000E+00 0. -1.
         -5    1    5    5    0  502  0.50155136030E+02 -0.89435647470E+01  0.49777939696E+03  0.50040178163E+03  0.47000000000E+01 0.  1.
         13    1    6    6    0    0 -0.52379162548E+02  0.31045127052E+02  0.14414093237E+03  0.15647359192E+03  0.00000000000E+00 0. -1.
        -14    1    6    6    0    0  0.27017921508E+02  0.28831524182E+02  0.12309005839E+03  0.12927639902E+03  0.00000000000E+00 0.  1.
</event>
<event>
12    1  0.9873238E-001  0.2132883E+03  0.7818608E-02  0.1139033E+00
         21   -1    0    0  503  502  0.00000000000E+00  0.00000000000E+00  0.12531446002E+03  0.12531446002E+03  0.00000000000E+00 0.  1.
         21   -1    0    0  501  503 -0.00000000000E+00 -0.00000000000E+00 -0.13339864962E+04  0.13339864962E+04  0.00000000000E+00 0.  1.
          6    2    1    2  501    0 -0.10564005750E+03 -0.70137730156E+02  0.18202900042E+02  0.21406366775E+03  0.17150156075E+03 0.  0.
         24    2    3    3    0    0 -0.61437586785E+02  0.19997852747E+02  0.59378928028E+02  0.10545502627E+03  0.58484308048E+02 0.  0.
         -6    2    1    2    0  502  0.10564005750E+03  0.70137730156E+02 -0.12268749362E+04  0.12452372885E+04  0.17121528129E+03 0.  0.
        -24    2    5    5    0    0  0.12146898438E+03  0.45635700038E+02 -0.11709126417E+04  0.11819540141E+04  0.95611430842E+02 0.  0.
          5    1    3    3  501    0 -0.44202470714E+02 -0.90135582904E+02 -0.41176027986E+02  0.10860864148E+03  0.47000000000E+01 0. -1.
        -11    1    4    4    0    0 -0.89107567050E+01  0.31665493081E+02  0.27775598947E+02  0.43053326630E+02  0.00000000000E+00 0.  1.
         12    1    4    4    0    0 -0.52526830080E+02 -0.11667640333E+02  0.31603329081E+02  0.62401699642E+02  0.00000000000E+00 0. -1.
         -5    1    5    5    0  502 -0.15828926880E+02  0.24502030118E+02 -0.55962294539E+02  0.63283274379E+02  0.47000000000E+01 0.  1.
         13    1    6    6    0    0  0.61881453068E+02  0.94132885469E+01 -0.22708027452E+03  0.23554909321E+03  0.00000000000E+00 0. -1.
        -14    1    6    6    0    0  0.59587531311E+02  0.36222411491E+02 -0.94383236718E+03  0.94640492091E+03  0.00000000000E+00 0.  1.
</event>
<event>
12    1  0.9873238E-001  0.2055380E+03  0.7818608E-02  0.1147208E+00
         21   -1    0    0  503  502  0.00000000000E+00  0.00000000000E+00  0.13523192790E+03  0.13523192790E+03  0.00000000000E+00 0. -1.
         21   -1    0    0  501  503 -0.00000000000E+00 -0.00000000000E+00 -0.44590431181E+03  0.44590431181E+03  0.00000000000E+00 0. -1.
          6    2    1    2  501    0 -0.52239743546E+01 -0.95047187917E+02 -0.32541852226E+03  0.38489358206E+03  0.18216639932E+03 0.  0.
         24    2    3    3    0    0  0.20367703221E+02 -0.11206389859E+03 -0.32521791901E+03  0.35380286568E+03  0.80228500026E+02 0.  0.
         -6    2    1    2    0  502  0.52239743546E+01  0.95047187917E+02  0.14746138354E+02  0.19624265764E+03  0.17097506907E+03 0.  0.
        -24    2    5    5    0    0  0.37053158200E+02  0.22788896315E+02 -0.41492601894E+02  0.99189870179E+02  0.78896920132E+02 0.  0.
          5    1    3    3  501    0 -0.25591677576E+02  0.17016710675E+02 -0.20060325088E+00  0.31090716380E+02  0.47000000000E+01 0. -1.
        -11    1    4    4    0    0  0.78905845516E+00 -0.11232525287E+03 -0.22262474860E+03  0.24935790290E+03  0.00000000000E+00 0.  1.
         12    1    4    4    0    0  0.19578644766E+02  0.26135428015E+00 -0.10259317041E+03  0.10444496279E+03  0.00000000000E+00 0. -1.
         -5    1    5    5    0  502 -0.31829183845E+02  0.72258291602E+02  0.56238740249E+02  0.97052787462E+02  0.47000000000E+01 0.  1.
         11    1    6    6    0    0  0.47185462762E+02 -0.73059858186E+01 -0.10355428440E+01  0.47758953860E+02  0.00000000000E+00 0. -1.
        -12    1    6    6    0    0 -0.10132304562E+02  0.30094882134E+02 -0.40457059050E+02  0.51430916319E+02  0.00000000000E+00 0.  1.
</event>
<event>
12    1  0.9873238E-001  0.2230102E+03  0.7818608E-02  0.1131740E+00
         21   -1    0    0  503  502  0.00000000000E+00  0.00000000000E+00  0.13371790340E+03  0.13371790340E+03  0.00000000000E+00 0. -1.
         21   -1    0    0  501  503 -0.00000000000E+00 -0.00000000000E+00 -0.55665269477E+03  0.55665269477E+03  0.00000000000E+00 0. -1.
          6    2    1    2  501    0  0.85713538220E+02  0.11222018381E+03 -0.12362211627E+02  0.22335262218E+03  0.17260761649E+03 0.  0.
         24    2    3    3    0    0  0.11844581155E+03  0.10450624426E+03 -0.37397566828E+02  0.18116535407E+03  0.80444652689E+02 0.  0.
         -6    2    1    2    0  502 -0.85713538220E+02 -0.11222018381E+03 -0.41057257974E+03  0.46701797599E+03  0.17203420116E+03 0.  0.
        -24    2    5    5    0    0 -0.53452924185E+02 -0.72100195538E+02 -0.11359014196E+03  0.16556977310E+03  0.80342865962E+02 0.  0.
          5    1    3    3  501    0 -0.32732273332E+02  0.77139395519E+01  0.25035355201E+02  0.42187268114E+02  0.47000000000E+01 0. -1.
        -11    1    4    4    0    0 -0.47323251456E+01  0.91325434674E+01 -0.22413913052E+02  0.24661341200E+02  0.00000000000E+00 0.  1.
         12    1    4    4    0    0  0.12317813670E+03  0.95373700795E+02 -0.14983653776E+02  0.15650401287E+03  0.00000000000E+00 0. -1.
         -5    1    5    5    0  502 -0.32260614036E+02 -0.40119988276E+02 -0.29698243778E+03  0.30144820289E+03  0.47000000000E+01 0.  1.
         11    1    6    6    0    0 -0.17840364432E+02 -0.64479435200E+02 -0.11029855210E+03  0.12900250680E+03  0.00000000000E+00 0. -1.
        -12    1    6    6    0    0 -0.35612559753E+02 -0.76207603388E+01 -0.32915898676E+01  0.36567266293E+02  0.00000000000E+00 0.  1.
</event>
<event>
12    1  0.9873238E-001  0.2168062E+03  0.7818608E-02  0.1136386E+00
         21   -1    0    0  503  502  0.00000000000E+00  0.00000000000E+00  0.11194815062E+03  0.11194815062E+03  0.00000000000E+00 0.  1.
         21   -1    0    0  501  503 -0.00000000000E+00 -0.00000000000E+00 -0.79786371520E+03  0.79786371520E+03  0.00000000000E+00 0.  1.
          6    2    1    2  501    0  0.13013018583E+02 -0.13160496391E+03 -0.65670193961E+03  0.69156515304E+03  0.17180139184E+03 0.  0.
         24    2    3    3    0    0 -0.18489569754E+02 -0.15714737392E+03 -0.52849433548E+03  0.55701364790E+03  0.76946604762E+02 0.  0.
         -6    2    1    2    0  502 -0.13013018583E+02  0.13160496391E+03 -0.29213624968E+02  0.21824671277E+03  0.17114025410E+03 0.  0.
        -24    2    5    5    0    0  0.42586712332E+01  0.47212275004E+01 -0.38094022459E+02  0.89799271010E+02  0.81069897354E+02 0.  0.
          5    1    3    3  501    0  0.31502588337E+02  0.25542410014E+02 -0.12820760413E+03  0.13455150515E+03  0.47000000000E+01 0. -1.
        -11    1    4    4    0    0 -0.34519065586E+02 -0.24909316651E+02 -0.11762682853E+03  0.12509240878E+03  0.00000000000E+00 0.  1.
         12    1    4    4    0    0  0.16029495832E+02 -0.13223805727E+03 -0.41086750695E+03  0.43192123912E+03  0.00000000000E+00 0. -1.
         -5    1    5    5    0  502 -0.17271689816E+02  0.12688373641E+03  0.88803974915E+01  0.12844744176E+03  0.47000000000E+01 0.  1.
         11    1    6    6    0    0 -0.29352560694E+02 -0.13064268058E+02  0.47899447008E+01  0.32483711140E+02  0.00000000000E+00 0. -1.
        -12    1    6    6    0    0  0.33611231927E+02  0.17785495558E+02 -0.42883967160E+02  0.57315559871E+02  0.00000000000E+00 0.  1.
</event>
<event>
12    1  0.9873238E-001  0.3725452E+03  0.7818608E-02  0.1053878E+00
         21   -1    0    0  503  502  0.00000000000E+00  0.00000000000E+00  0.17183225906E+03  0.17183225906E+03  0.00000000000E+00 0.  1.
         21   -1    0    0  501  503 -0.00000000000E+00 -0.00000000000E+00 -0.83463943184E+03  0.83463943184E+03  0.00000000000E+00 0.  1.
          6    2    1    2  501    0  0.32234123965E+03  0.59560683419E+02 -0.42819462205E+03  0.56757428545E+03  0.17702707522E+03 0.  0.
         24    2    3    3    0    0  0.22988924544E+03  0.81971990243E+02 -0.21814811966E+03  0.33694197836E+03  0.79829958759E+02 0.  0.
         -6    2    1    2    0  502 -0.32234123965E+03 -0.59560683419E+02 -0.23461255072E+03  0.43889740545E+03  0.17359877237E+03 0.  0.
        -24    2    5    5    0    0 -0.95635558250E+02 -0.11884526323E+01 -0.33252660104E+02  0.13007597022E+03  0.81648308031E+02 0.  0.
          5    1    3    3  501    0  0.92451994205E+02 -0.22411306824E+02 -0.21004650239E+03  0.23063230709E+03  0.47000000000E+01 0. -1.
        -11    1    4    4    0    0  0.61592969091E+02 -0.10095951630E+02 -0.75069182047E+02  0.97626861949E+02  0.00000000000E+00 0.  1.
         12    1    4    4    0    0  0.16829627635E+03  0.92067941873E+02 -0.14307893762E+03  0.23931511641E+03  0.00000000000E+00 0. -1.
         -5    1    5    5    0  502 -0.22670568140E+03 -0.58372230787E+02 -0.20135989062E+03  0.30882143522E+03  0.47000000000E+01 0.  1.
         13    1    6    6    0    0 -0.84002410125E+02 -0.25561223227E+02 -0.47192263473E+02  0.99683954433E+02  0.00000000000E+00 0. -1.
        -14    1    6    6    0    0 -0.11633148124E+02  0.24372770595E+02  0.13939603369E+02  0.30392015791E+02  0.00000000000E+00 0.  1.
</event>
<event>
12    1  0.9873238E-001  0.2754007E+03  0.7818608E-02  0.1099174E+00
         21   -1    0    0  501  502  0.00000000000E+00  0.00000000000E+00  0.25268501457E+03  0.25268501457E+03  0.00000000000E+00 0.  1.
         21   -1    0    0  502  503 -0.00000000000E+00 -0.00000000000E+00 -0.32597519353E+03  0.32597519353E+03  0.00000000000E+00 0.  1.
         -6    2    1    2    0  503 -0.77188628817E+02  0.19087823810E+03  0.55909070406E+02  0.27445960459E+03  0.17265475434E+03 0.  0.
        -24    2    3    3    0    0 -0.25312694686E+02  0.19782357720E+03  0.34779963767E+02  0.21782145998E+03  0.80384341395E+02 0.  0.
          6    2    1    2  501    0  0.77188628817E+02 -0.19087823810E+03 -0.12919924936E+03  0.30420060352E+03  0.18290154440E+03 0.  0.
         24    2    5    5    0    0 -0.12666899620E+02 -0.12313576824E+03 -0.12215327549E+03  0.19135205917E+03  0.79820549164E+02 0.  0.
          5    1    5    5  501    0  0.89855528437E+02 -0.67742469858E+02 -0.70459738726E+01  0.11284854435E+03  0.47000000000E+01 0. -1.
        -11    1    6    6    0    0  0.17027364841E+02 -0.74091162303E+02 -0.10838503117E+03  0.13238861909E+03  0.00000000000E+00 0.  1.
         12    1    6    6    0    0 -0.29694264461E+02 -0.49044605941E+02 -0.13768244323E+02  0.58963440075E+02  0.00000000000E+00 0. -1.
         -5    1    3    3    0  503 -0.51875934132E+02 -0.69453390952E+01  0.21129106639E+02  0.56638144607E+02  0.47000000000E+01 0.  1.
         13    1    4    4    0    0  0.52509547927E+01  0.61164988814E+02  0.46911911033E+02  0.77262253265E+02  0.00000000000E+00 0. -1.
        -14    1    4    4    0    0 -0.30563649478E+02  0.13665858838E+03 -0.12131947266E+02  0.14055920672E+03  0.00000000000E+00 0.  1.
</event>
<event>
12    1  0.9873238E-001  0.4051984E+03  0.7818608E-02  0.1042087E+00
         21   -1    0    0  501  502  0.00000000000E+00  0.00000000000E+00  0.29469122329E+03  0.29469122329E+03  0.00000000000E+00 0. -1.
         21   -1    0    0  502  503 -0.00000000000E+00 -0.00000000000E+00 -0.70944158747E+03  0.70944158747E+03  0.00000000000E+00 0. -1.
         -6    2    1    2    0  503  0.19620134914E+02  0.36511132502E+03  0.26165107724E+02  0.40604228955E+03  0.17462674104E+03 0.  0.
        -24    2    3    3    0    0  0.55112176213E+02  0.28212582083E+03 -0.24803988979E+02  0.30228190346E+03  0.90148658046E+02 0.  0.
          6    2    1    2  501    0 -0.19620134914E+02 -0.36511132502E+03 -0.44091547191E+03  0.59809052122E+03  0.17208889810E+03 0.  0.
         24    2    5    5    0    0 -0.49193442907E+02 -0.23840711602E+03 -0.20203579713E+03  0.32603514791E+03  0.78882866042E+02 0.  0.
          5    1    5    5  501    0  0.29573307993E+02 -0.12670420900E+03 -0.23887967478E+03  0.27205537331E+03  0.47000000000E+01 0. -1.
        -11    1    6    6    0    0 -0.11263824480E+02 -0.14728066873E+03 -0.16278491840E+03  0.21981218979E+03  0.00000000000E+00 0.  1.
         12    1    6    6    0    0 -0.37929618426E+02 -0.91126447284E+02 -0.39250878733E+02  0.10622295811E+03  0.00000000000E+00 0. -1.
         -5    1    3    3    0  503 -0.35492041300E+02  0.82985504192E+02  0.50969096704E+02  0.10376038608E+03  0.47000000000E+01 0.  1.
         13    1    4    4    0    0  0.33655134876E+02  0.68074190559E+02 -0.41448791999E+02  0.86514541448E+02  0.00000000000E+00 0. -1.
        -14    1    4    4    0    0  0.21457041337E+02  0.21405163027E+03  0.16644803019E+02  0.21576736201E+03  0.00000000000E+00 0.  1.
</event>
<event>
12    1  0.9873238E-001  0.2175582E+03  0.7818608E-02  0.1135743E+00
         21   -1    0    0  501  502  0.00000000000E+00  0.00000000000E+00  0.93368903144E+03  0.93368903144E+03  0.00000000000E+00 0.  1.
         21   -1    0    0  502  503 -0.00000000000E+00 -0.00000000000E+00 -0.58856716713E+02  0.58856716713E+02  0.00000000000E+00 0.  1.
         -6    2    1    2    0  503  0.10299873950E+03  0.84392890586E+02  0.62272337704E+03  0.65963321135E+03  0.17204844922E+03 0.  0.
        -24    2    3    3    0    0  0.96087031432E+02  0.28848717923E+02  0.56687938611E+03  0.58042735204E+03  0.74018284679E+02 0.  0.
          6    2    1    2  501    0 -0.10299873950E+03 -0.84392890586E+02  0.25210893768E+03  0.33291253680E+03  0.17187478110E+03 0.  0.
         24    2    5    5    0    0 -0.43680279165E+02 -0.11734158440E+03  0.15804178882E+03  0.21683060601E+03  0.79757698511E+02 0.  0.
          5    1    5    5  501    0 -0.59318460340E+02  0.32948693815E+02  0.94067148863E+02  0.11608193079E+03  0.47000000000E+01 0. -1.
        -11    1    6    6    0    0 -0.23690934631E+02 -0.93474293704E+02  0.15869038981E+03  0.18569152858E+03  0.00000000000E+00 0.  1.
         12    1    6    6    0    0 -0.19989344533E+02 -0.23867290697E+02 -0.64860099146E+00  0.31139077432E+02  0.00000000000E+00 0. -1.
         -5    1    3    3    0  503  0.69117080728E+01  0.55544172663E+02  0.55843990932E+02  0.79205859306E+02  0.47000000000E+01 0.  1.
         13    1    4    4    0    0  0.59834797003E+02  0.48935179015E+02  0.27635133922E+03  0.28695804112E+03  0.00000000000E+00 0. -1.
        -14    1    4    4    0    0  0.36252234429E+02 -0.20086461092E+02  0.29052804689E+03  0.29346931092E+03  0.00000000000E+00 0.  1.
</event>
<event>
12    1  0.9873238E-001  0.2730267E+03  0.7818608E-02  0.1099737E+00
         21   -1    0    0  503  502  0.00000000000E+00  0.00000000000E+00  0.24483924698E+03  0.24483924698E+03  0.00000000000E+00 0.  1.
         21   -1    0    0  501  503 -0.00000000000E+00 -0.00000000000E+00 -0.30613191834E+03  0.30613191834E+03  0.00000000000E+00 0.  1.
          6    2    1    2  501    0 -0.14379484866E+03 -0.15340158599E+03 -0.58293232830E+02  0.27918040222E+03  0.17416828330E+03 0.  0.
         24    2    3    3    0    0 -0.12835070476E+03 -0.39170050706E+02 -0.14260509669E+02  0.15569624962E+03  0.77651553275E+02 0.  0.
         -6    2    1    2    0  502  0.14379484866E+03  0.15340158599E+03 -0.29994385319E+01  0.27179076309E+03  0.17219819159E+03 0.  0.
        -24    2    5    5    0    0  0.16929048273E+03  0.13136947896E+03  0.22601236927E+02  0.22921229811E+03  0.78168114648E+02 0.  0.
          5    1    3    3  501    0 -0.15444143899E+02 -0.11423153529E+03 -0.44032723161E+02  0.12348415260E+03  0.47000000000E+01 0. -1.
        -11    1    4    4    0    0 -0.12730711617E+02  0.92434079631E+01 -0.25376270988E+02  0.29857440251E+02  0.00000000000E+00 0.  1.
         12    1    4    4    0    0 -0.11561999314E+03 -0.48413458670E+02  0.11115761320E+02  0.12583880937E+03  0.00000000000E+00 0. -1.
         -5    1    5    5    0  502 -0.25495634070E+02  0.22032107032E+02 -0.25600675459E+02  0.42578464989E+02  0.47000000000E+01 0.  1.
         11    1    6    6    0    0  0.40754880767E+02  0.34514903626E+02 -0.28263676066E+02  0.60424119881E+02  0.00000000000E+00 0. -1.
        -12    1    6    6    0    0  0.12853560196E+03  0.96854575334E+02  0.50864912992E+02  0.16878817822E+03  0.00000000000E+00 0.  1.
</event>
<event>
12    1  0.9873238E-001  0.2237663E+03  0.7818608E-02  0.1131273E+00
         21   -1    0    0  501  502  0.00000000000E+00  0.00000000000E+00  0.97608716740E+02  0.97608716740E+02  0.00000000000E+00 0. -1.
         21   -1    0    0  502  503 -0.00000000000E+00 -0.00000000000E+00 -0.20351745663E+04  0.20351745663E+04  0.00000000000E+00 0. -1.
         -6    2    1    2    0  503 -0.27610969755E+02 -0.13918487701E+03 -0.18921691749E+04  0.19053544379E+04  0.17302182578E+03 0.  0.
        -24    2    3    3    0    0 -0.68335051798E+01 -0.65179937867E+02 -0.46802947432E+03  0.47913411458E+03  0.78884661601E+02 0.  0.
          6    2    1    2  501    0  0.27610969755E+02  0.13918487701E+03 -0.45396674721E+02  0.22742884513E+03  0.17183778945E+03 0.  0.
         24    2    5    5    0    0  0.68238308934E+02  0.82243754502E+02 -0.72460603243E+02  0.15227953809E+03  0.80734235232E+02 0.  0.
          5    1    5    5  501    0 -0.40627339179E+02  0.56941122512E+02  0.27063928522E+02  0.75149307041E+02  0.47000000000E+01 0. -1.
        -13    1    6    6    0    0  0.27762490847E+02  0.70968335844E+02 -0.97961244639E+01  0.76832445263E+02  0.00000000000E+00 0.  1.
         14    1    6    6    0    0  0.40475818088E+02  0.11275418658E+02 -0.62664478779E+02  0.75447092829E+02  0.00000000000E+00 0. -1.
         -5    1    3    3    0  503 -0.20777464575E+02 -0.74004939148E+02 -0.14241397006E+04  0.14262203234E+04  0.47000000000E+01 0.  1.
         13    1    4    4    0    0 -0.40990964577E+02 -0.40918887912E+02 -0.32394003420E+03  0.32907713431E+03  0.00000000000E+00 0. -1.
        -14    1    4    4    0    0  0.34157459397E+02 -0.24261049955E+02 -0.14408944011E+03  0.15005698027E+03  0.00000000000E+00 0.  1.
</event>
<event>
12    1  0.9873238E-001  0.1944778E+03  0.7818608E-02  0.1154571E+00
         21   -1    0    0  503  502  0.00000000000E+00  0.00000000000E+00  0.30135624105E+02  0.30135624105E+02  0.00000000000E+00 0.  1.
         21   -1    0    0  501  503 -0.00000000000E+00 -0.00000000000E+00 -0.13023713637E+04  0.13023713637E+04  0.00000000000E+00 0.  1.
          6    2    1    2  501    0  0.88465351735E+02 -0.17385972009E+02 -0.76590161534E+03  0.79010875449E+03  0.17186671887E+03 0.  0.
         24    2    3    3    0    0  0.12080883563E+03 -0.16339093175E+02 -0.71350624098E+03  0.72834661269E+03  0.80844861057E+02 0.  0.
         -6    2    1    2    0  502 -0.88465351735E+02  0.17385972009E+02 -0.50633412426E+03  0.54239823332E+03  0.17231717164E+03 0.  0.
        -24    2    5    5    0    0 -0.83805979460E+02  0.74227671417E+02 -0.38131868617E+03  0.40490773074E+03  0.77544442662E+02 0.  0.
          5    1    3    3  501    0 -0.32343483894E+02 -0.10468788332E+01 -0.52395374360E+02  0.61762141802E+02  0.47000000000E+01 0. -1.
        -11    1    4    4    0    0  0.63016343015E+02  0.25735307109E+02 -0.23968439842E+03  0.24916255008E+03  0.00000000000E+00 0.  1.
         12    1    4    4    0    0  0.57792492614E+02 -0.42074400285E+02 -0.47382184257E+03  0.47918406260E+03  0.00000000000E+00 0. -1.
         -5    1    5    5    0  502 -0.46593722747E+01 -0.56841699408E+02 -0.12501543808E+03  0.13749050258E+03  0.47000000000E+01 0.  1.
         13    1    6    6    0    0 -0.50146558762E+02  0.44377744016E+02 -0.10218173586E+03  0.12216860752E+03  0.00000000000E+00 0. -1.
        -14    1    6    6    0    0 -0.33659420698E+02  0.29849927402E+02 -0.27913695032E+03  0.28273912322E+03  0.00000000000E+00 0.  1.
</event>
<event>
12    1  0.9873238E-001  0.2590179E+03  0.7818608E-02  0.1108136E+00
         21   -1    0    0  503  502  0.00000000000E+00  0.00000000000E+00  0.21182330030E+04  0.21182330030E+04  0.00000000000E+00 0.  1.
         21   -1    0    0  501  503 -0.00000000000E+00 -0.00000000000E+00 -0.33170736245E+02  0.33170736245E+02  0.00000000000E+00 0.  1.
          6    2    1    2  501    0 -0.30831998711E+02 -0.18777900969E+03  0.79560173249E+03  0.83670328245E+03  0.17572335502E+03 0.  0.
         24    2    3    3    0    0  0.32303834581E+02 -0.17432396450E+03  0.62584994484E+03  0.65503068931E+03  0.77101674186E+02 0.  0.
         -6    2    1    2    0  502  0.30831998711E+02  0.18777900969E+03  0.12894605342E+04  0.13147004568E+04  0.17180585856E+03 0.  0.
        -24    2    5    5    0    0  0.58730930638E+02  0.83812571456E+02  0.94150706595E+03  0.95044631914E+03  0.80242015110E+02 0.  0.
          5    1    3    3  501    0 -0.63135833291E+02 -0.13455045192E+02  0.16975178765E+03  0.18167259314E+03  0.47000000000E+01 0. -1.
        -13    1    4    4    0    0  0.13484016516E+02 -0.70046680511E+02  0.13303211983E+03  0.15094999523E+03  0.00000000000E+00 0.  1.
         14    1    4    4    0    0  0.18819818064E+02 -0.10427728399E+03  0.49281782500E+03  0.50408069409E+03  0.00000000000E+00 0. -1.
         -5    1    5    5    0  502 -0.27898931928E+02  0.10396643824E+03  0.34795346830E+03  0.36425413764E+03  0.47000000000E+01 0.  1.
         11    1    6    6    0    0 -0.69023721423E+01  0.56359385057E+02  0.50463696528E+03  0.50782131676E+03  0.00000000000E+00 0. -1.
        -12    1    6    6    0    0  0.65633302781E+02  0.27453186399E+02  0.43687010066E+03  0.44262500238E+03  0.00000000000E+00 0.  1.
</event>
<event>
12    1  0.9873238E-001  0.2070527E+03  0.7818608E-02  0.1144462E+00
         21   -1    0    0  501  502  0.00000000000E+00  0.00000000000E+00  0.13972897191E+04  0.13972897191E+04  0.00000000000E+00 0.  1.
         21   -1    0    0  502  503 -0.00000000000E+00 -0.00000000000E+00 -0.50141636799E+02  0.50141636799E+02  0.00000000000E+00 0.  1.
         -6    2    1    2    0  503 -0.46191487765E+02  0.10102635395E+03  0.22081804604E+03  0.30270685314E+03  0.17473079793E+03 0.  0.
        -24    2    3    3    0    0 -0.68204280357E+02  0.11222353552E+03  0.22932287354E+03  0.27616703393E+03  0.80207883140E+02 0.  0.
          6    2    1    2  501    0  0.46191487765E+02 -0.10102635395E+03  0.11263300363E+04  0.11447245028E+04  0.17156590249E+03 0.  0.
         24    2    5    5    0    0 -0.12569311435E+02 -0.10575693370E+03  0.56452006057E+03  0.57981057242E+03  0.78453071868E+02 0.  0.
          5    1    5    5  501    0  0.58760799200E+02  0.47305797502E+01  0.56180997574E+03  0.56491393039E+03  0.47000000000E+01 0. -1.
        -13    1    6    6    0    0  0.81067154393E+01  0.17981015033E+01  0.50455760340E+01  0.97164727008E+01  0.00000000000E+00 0.  1.
         14    1    6    6    0    0 -0.20676026874E+02 -0.10755503520E+03  0.55947448454E+03  0.57009409972E+03  0.00000000000E+00 0. -1.
         -5    1    3    3    0  503  0.22012792592E+02 -0.11197181570E+02 -0.85048275002E+01  0.26539819209E+02  0.47000000000E+01 0.  1.
         11    1    4    4    0    0 -0.48902648449E+01  0.80048613888E+02  0.95851975450E+02  0.12497718381E+03  0.00000000000E+00 0. -1.
        -12    1    4    4    0    0 -0.63314015512E+02  0.32174921633E+02  0.13347089809E+03  0.15118985012E+03  0.00000000000E+00 0.  1.
</event>
<event>
12    1  0.9873238E-001  0.2743514E+03  0.7818608E-02  0.1099160E+00
         21   -1    0    0  501  502  0.00000000000E+00  0.00000000000E+00  0.15157327714E+03  0.15157327714E+03  0.00000000000E+00 0.  1.
         21   -1    0    0  502  503 -0.00000000000E+00 -0.00000000000E+00 -0.49450621318E+03  0.49450621318E+03  0.00000000000E+00 0.  1.
         -6    2    1    2    0  503  0.18621562195E+03  0.97650336705E+02 -0.19295437899E+03  0.33340989593E+03  0.17239176376E+03 0.  0.
        -24    2    3    3    0    0  0.20589714897E+03  0.10828644575E+03 -0.16022022629E+03  0.29348366302E+03  0.79640123431E+02 0.  0.
          6    2    1    2  501    0 -0.18621562195E+03 -0.97650336705E+02 -0.14997855705E+03  0.31266959440E+03  0.17622957065E+03 0.  0.
         24    2    5    5    0    0 -0.18571110962E+03 -0.38585739985E+02 -0.80226362743E+02  0.22114724888E+03  0.80575187525E+02 0.  0.
          5    1    5    5  501    0 -0.50451233594E+00 -0.59064596720E+02 -0.69752194306E+02  0.91522345517E+02  0.47000000000E+01 0. -1.
        -13    1    6    6    0    0 -0.26100214986E+02 -0.17504022185E+02 -0.47346482401E+02  0.56826942648E+02  0.00000000000E+00 0.  1.
         14    1    6    6    0    0 -0.15961089463E+03 -0.21081717800E+02 -0.32879880343E+02  0.16432030624E+03  0.00000000000E+00 0. -1.
         -5    1    3    3    0  503 -0.19681527015E+02 -0.10636109043E+02 -0.32734152699E+02  0.39926232907E+02  0.47000000000E+01 0.  1.
         11    1    4    4    0    0  0.15860379077E+03  0.46037566491E+02 -0.12791839465E+03  0.20889647116E+03  0.00000000000E+00 0. -1.
        -12    1    4    4    0    0  0.47293358199E+02  0.62248879257E+02 -0.32301831640E+02  0.84587191854E+02  0.00000000000E+00 0.  1.
</event>
<event>
12    1  0.9873238E-001  0.1737654E+03  0.7818608E-02  0.1174394E+00
         21   -1    0    0  501  502  0.00000000000E+00  0.00000000000E+00  0.70853848816E+02  0.70853848816E+02  0.00000000000E+00 0. -1.
         21   -1    0    0  502  503 -0.00000000000E+00 -0.00000000000E+00 -0.43623663209E+03  0.43623663209E+03  0.00000000000E+00 0. -1.
         -6    2    1    2    0  503 -0.17169541487E+02  0.75132024299E+01 -0.22742895415E+03  0.28522187703E+03  0.17110332722E+03 0.  0.
        -24    2    3    3    0    0 -0.43000374367E+02  0.59531962399E+02 -0.13348197251E+03  0.17467184910E+03  0.85438464062E+02 0.  0.
          6    2    1    2  501    0  0.17169541487E+02 -0.75132024299E+01 -0.13795382912E+03  0.22186860387E+03  0.17275177871E+03 0.  0.
         24    2    5    5    0    0  0.68680322960E+02 -0.34856092677E+02 -0.11184193551E+03  0.15779899139E+03  0.80373933507E+02 0.  0.
          5    1    5    5  501    0 -0.51510781473E+02  0.27342890247E+02 -0.26111893610E+02  0.64069612477E+02  0.47000000000E+01 0. -1.
        -11    1    6    6    0    0  0.67583448813E+02 -0.22652536211E+02 -0.33953181190E+02  0.78952380985E+02  0.00000000000E+00 0.  1.
         12    1    6    6    0    0  0.10968741465E+01 -0.12203556466E+02 -0.77888754318E+02  0.78846610406E+02  0.00000000000E+00 0. -1.
         -5    1    3    3    0  503  0.25830832880E+02 -0.52018759969E+02 -0.93946981641E+02  0.11055002793E+03  0.47000000000E+01 0.  1.
         11    1    4    4    0    0 -0.89462021229E+01  0.69822298118E+01  0.11859698698E+02  0.16414582504E+02  0.00000000000E+00 0. -1.
        -12    1    4    4    0    0 -0.34054172244E+02  0.52549732587E+02 -0.14534167121E+03  0.15825726660E+03  0.00000000000E+00 0.  1.
</event>
<event>
12    1  0.9873238E-001  0.3576594E+03  0.7818608E-02  0.1059627E+00
         21   -1    0    0  503  502  0.00000000000E+00  0.00000000000E+00  0.18431393423E+03  0.18431393423E+03  0.00000000000E+00 0. -1.
         21   -1    0    0  501  503 -0.00000000000E+00 -0.00000000000E+00 -0.81996162876E+03  0.81996162876E+03  0.00000000000E+00 0. -1.
          6    2    1    2  501    0  0.31062892248E+03 -0.45146917842E+02 -0.11976865434E+03  0.37718001484E+03  0.17143996432E+03 0.  0.
         24    2    3    3    0    0  0.30030214232E+03 -0.79147696109E+02 -0.91790333356E+02  0.33170945562E+03  0.71832883608E+02 0.  0.
         -6    2    1    2    0  502 -0.31062892248E+03  0.45146917842E+02 -0.51587904019E+03  0.62709554814E+03  0.16908302909E+03 0.  0.
        -24    2    5    5    0    0 -0.28147506634E+03  0.80580547989E+02 -0.39601699704E+03  0.49866467623E+03  0.78202044027E+02 0.  0.
          5    1    3    3  501    0  0.10326780157E+02  0.34000778267E+02 -0.27978320981E+02  0.45470559224E+02  0.47000000000E+01 0. -1.
        -13    1    4    4    0    0  0.17672735334E+03 -0.12732481818E+02 -0.65931994244E+02  0.18905475761E+03  0.00000000000E+00 0.  1.
         14    1    4    4    0    0  0.12357478898E+03 -0.66415214291E+02 -0.25858339112E+02  0.14265469801E+03  0.00000000000E+00 0. -1.
         -5    1    5    5    0  502 -0.29153856138E+02 -0.35433630147E+02 -0.11986204315E+03  0.12843087192E+03  0.47000000000E+01 0.  1.
         11    1    6    6    0    0 -0.13838688456E+03  0.33932095089E+02 -0.12925947087E+03  0.19238068433E+03  0.00000000000E+00 0. -1.
        -12    1    6    6    0    0 -0.14308818178E+03  0.46648452900E+02 -0.26675752617E+03  0.30628399190E+03  0.00000000000E+00 0.  1.
</event>
<event>
12    1  0.9873238E-001  0.2196564E+03  0.7818608E-02  0.1134256E+00
         21   -1    0    0  503  502  0.00000000000E+00  0.00000000000E+00  0.21511603894E+02  0.21511603894E+02  0.00000000000E+00 0. -1.
         21   -1    0    0  501  503 -0.00000000000E+00 -0.00000000000E+00 -0.24550710185E+04  0.24550710185E+04  0.00000000000E+00 0. -1.
          6    2    1    2  501    0 -0.13098536769E+03  0.37377685874E+02 -0.84575907483E+03  0.87366064257E+03  0.17152331553E+03 0.  0.
         24    2    3    3    0    0 -0.10663579378E+03  0.34726666771E+00 -0.79550738837E+03  0.80649312298E+03  0.78916660781E+02 0.  0.
         -6    2    1    2    0  502  0.13098536769E+03 -0.37377685874E+02 -0.15878003397E+04  0.16029219798E+04  0.17232149156E+03 0.  0.
        -24    2    5    5    0    0  0.77662704200E+02  0.28452367881E+02 -0.53467889054E+03  0.54638812837E+03  0.76272131052E+02 0.  0.
          5    1    3    3  501    0 -0.24349573917E+02  0.37030419207E+02 -0.50251686459E+02  0.67167519595E+02  0.47000000000E+01 0. -1.
        -11    1    4    4    0    0 -0.84606827018E+02 -0.32206643574E+02 -0.47169955631E+03  0.48030829109E+03  0.00000000000E+00 0.  1.
         12    1    4    4    0    0 -0.22028966759E+02  0.32553910242E+02 -0.32380783206E+03  0.32618483188E+03  0.00000000000E+00 0. -1.
         -5    1    5    5    0  502  0.53322663493E+02 -0.65830053756E+02 -0.10531214492E+04  0.10565338514E+04  0.47000000000E+01 0.  1.
         11    1    6    6    0    0  0.70545069012E+02  0.11702463432E+02 -0.22314187063E+03  0.23431997107E+03  0.00000000000E+00 0. -1.
        -12    1    6    6    0    0  0.71176351875E+01  0.16749904449E+02 -0.31153701991E+03  0.31206815731E+03  0.00000000000E+00 0.  1.
</event>
<event>
12    1  0.9873238E-001  0.2701553E+03  0.7818608E-02  0.1101460E+00
         21   -1    0    0  501  502  0.00000000000E+00  0.00000000000E+00  0.62451249439E+03  0.62451249439E+03  0.00000000000E+00 0. -1.
         21   -1    0    0  502  503 -0.00000000000E+00 -0.00000000000E+00 -0.11698698281E+03  0.11698698281E+03  0.00000000000E+00 0. -1.
         -6    2    1    2    0  503 -0.53626492306E+02 -0.19910313289E+03  0.28772569470E+03  0.39467705216E+03  0.17454524316E+03 0.  0.
        -24    2    3    3    0    0 -0.24130185241E+02 -0.16699322138E+03  0.12127087673E+03  0.22254229399E+03  0.79683406321E+02 0.  0.
          6    2    1    2  501    0  0.53626492306E+02  0.19910313289E+03  0.21979981687E+03  0.34682242504E+03  0.17162743605E+03 0.  0.
         24    2    5    5    0    0 -0.29669367843E+01  0.14474787271E+03  0.21021654856E+03  0.26763126671E+03  0.80465820471E+02 0.  0.
          5    1    5    5  501    0  0.56593429090E+02  0.54355260179E+02  0.95832683121E+01  0.79191158325E+02  0.47000000000E+01 0. -1.
        -11    1    6    6    0    0  0.26350856793E+02  0.15398961126E+02  0.59472899632E+02  0.66847000293E+02  0.00000000000E+00 0.  1.
         12    1    6    6    0    0 -0.29317793577E+02  0.12934891159E+03  0.15074364893E+03  0.20078426642E+03  0.00000000000E+00 0. -1.
         -5    1    3    3    0  503 -0.29496307065E+02 -0.32109911512E+02  0.16645481797E+03  0.17213475818E+03  0.47000000000E+01 0.  1.
         13    1    4    4    0    0 -0.51669081555E+02 -0.79346557264E+02  0.63826557757E+02  0.11419019053E+03  0.00000000000E+00 0. -1.
        -14    1    4    4    0    0  0.27538896313E+02 -0.87646664117E+02  0.57444318974E+02  0.10835210346E+03  0.00000000000E+00 0.  1.
</event>
<event>
12    1  0.9873238E-001  0.1955721E+03  0.7818608E-02  0.1155070E+00
         21   -1    0    0  503  502  0.00000000000E+00  0.00000000000E+00  0.22820443325E+04  0.22820443325E+04  0.00000000000E+00 0. -1.
         21   -1    0    0  501  503 -0.00000000000E+00 -0.00000000000E+00 -0.16209932548E+02  0.16209932548E+02  0.00000000000E+00 0. -1.
          6    2    1    2  501    0 -0.80367576559E+02  0.19138648004E+02  0.10551828272E+04  0.10719077879E+04  0.16955905086E+03 0.  0.
         24    2    3    3    0    0 -0.11639826254E+03  0.13452397238E+02  0.66308325428E+03  0.67808713218E+03  0.79957702672E+02 0.  0.
         -6    2    1    2    0  502  0.80367576559E+02 -0.19138648004E+02  0.12106515728E+04  0.12263464772E+04  0.17726594768E+03 0.  0.
        -24    2    5    5    0    0 -0.11438812060E+02 -0.46992304559E+02  0.76930011520E+03  0.77466358146E+03  0.77083552647E+02 0.  0.
          5    1    3    3  501    0  0.36030685984E+02  0.56862507661E+01  0.39209957291E+03  0.39382065570E+03  0.47000000000E+01 0. -1.
        -11    1    4    4    0    0 -0.17896012474E+02 -0.12938137608E+02  0.30409768929E+03  0.30489845407E+03  0.00000000000E+00 0.  1.
         12    1    4    4    0    0 -0.98502250069E+02  0.26390534846E+02  0.35898556499E+03  0.37318867811E+03  0.00000000000E+00 0. -1.
         -5    1    5    5    0  502  0.91806388619E+02  0.27853656555E+02  0.44135145757E+03  0.45168289571E+03  0.47000000000E+01 0.  1.
         13    1    6    6    0    0  0.80068332750E+01 -0.63409365540E+02  0.61061166679E+03  0.61394744453E+03  0.00000000000E+00 0. -1.
        -14    1    6    6    0    0 -0.19445645335E+02  0.16417060981E+02  0.15868844841E+03  0.16071613694E+03  0.00000000000E+00 0.  1.
</event>
<event>
12    1  0.9873238E-001  0.2977662E+03  0.7818608E-02  0.1086422E+00
         21   -1    0    0  501  502  0.00000000000E+00  0.00000000000E+00  0.63468577166E+03  0.63468577166E+03  0.00000000000E+00 0.  1.
         21   -1    0    0  502  503 -0.00000000000E+00 -0.00000000000E+00 -0.18605215888E+03  0.18605215888E+03  0.00000000000E+00 0.  1.
         -6    2    1    2    0  503 -0.72725540360E+02  0.23138380081E+03  0.18866112397E+02  0.29789493010E+03  0.17192437780E+03 0.  0.
        -24    2    3    3    0    0  0.12625113701E+02  0.10727944463E+03 -0.34006266971E+02  0.13819457358E+03  0.79202533027E+02 0.  0.
          6    2    1    2  501    0  0.72725540360E+02 -0.23138380081E+03  0.42976750038E+03  0.52284300044E+03  0.17273456870E+03 0.  0.
         24    2    5    5    0    0  0.36953428147E+02 -0.20148412990E+03  0.23271137127E+03  0.32029216150E+03  0.80442998136E+02 0.  0.
          5    1    5    5  501    0  0.35772112212E+02 -0.29899670911E+02  0.19705612911E+03  0.20255083893E+03  0.47000000000E+01 0. -1.
        -11    1    6    6    0    0  0.50171026220E+01  0.42405555992E+01 -0.16922183340E+01  0.67836003273E+01  0.00000000000E+00 0.  1.
         12    1    6    6    0    0  0.31936325525E+02 -0.20572468550E+03  0.23440358960E+03  0.31350856118E+03  0.00000000000E+00 0. -1.
         -5    1    3    3    0  503 -0.85350654061E+02  0.12410435618E+03  0.52872379369E+02  0.15970035652E+03  0.47000000000E+01 0.  1.
         11    1    4    4    0    0  0.12232029721E+02  0.55495038939E+02  0.22886224795E+02  0.61262559392E+02  0.00000000000E+00 0. -1.
        -12    1    4    4    0    0  0.39308398033E+00  0.51784405695E+02 -0.56892491767E+02  0.76932014192E+02  0.00000000000E+00 0.  1.
</event>
<event>
12    1  0.9873238E-001  0.2313949E+03  0.7818608E-02  0.1125969E+00
         21   -1    0    0  503  502  0.00000000000E+00  0.00000000000E+00  0.21991788224E+03  0.21991788224E+03  0.00000000000E+00 0. -1.
         21   -1    0    0  501  503 -0.00000000000E+00 -0.00000000000E+00 -0.25035862240E+03  0.25035862240E+03  0.00000000000E+00 0. -1.
          6    2    1    2  501    0  0.13901455181E+03  0.63905417428E+02  0.28633092465E+02  0.23315973739E+03  0.17359337880E+03 0.  0.
         24    2    3    3    0    0  0.11407701761E+03  0.80992900252E+02  0.75196808252E+02  0.17744499689E+03  0.79112269028E+02 0.  0.
         -6    2    1    2    0  502 -0.13901455181E+03 -0.63905417428E+02 -0.59073832623E+02  0.23711676725E+03  0.17124746893E+03 0.  0.
        -24    2    5    5    0    0 -0.17272623133E+02  0.17704374504E+02 -0.82751151437E+01  0.81927028425E+02  0.77664483965E+02 0.  0.
          5    1    3    3  501    0  0.24937534200E+02 -0.17087482824E+02 -0.46563715787E+02  0.55714740501E+02  0.47000000000E+01 0. -1.
        -13    1    4    4    0    0  0.35814422003E+02  0.68679727978E+02  0.17424813245E+02  0.79392707317E+02  0.00000000000E+00 0.  1.
         14    1    4    4    0    0  0.78262595609E+02  0.12313172274E+02  0.57771995007E+02  0.98052289570E+02  0.00000000000E+00 0. -1.
         -5    1    5    5    0  502 -0.12174192868E+03 -0.81609791933E+02 -0.50798717480E+02  0.15518973882E+03  0.47000000000E+01 0.  1.
         13    1    6    6    0    0 -0.39122247147E+02 -0.72929644366E+01  0.13727785535E+02  0.42097382909E+02  0.00000000000E+00 0. -1.
        -14    1    6    6    0    0  0.21849624014E+02  0.24997338941E+02 -0.22002900679E+02  0.39829645516E+02  0.00000000000E+00 0.  1.
</event>
<event>
12    1  0.9873238E-001  0.2012242E+03  0.7818608E-02  0.1148781E+00
         21   -1    0    0  503  502  0.00000000000E+00  0.00000000000E+00  0.43315768625E+02  0.43315768625E+02  0.00000000000E+00 0.  1.
         21   -1    0    0  501  503 -0.00000000000E+00 -0.00000000000E+00 -0.18072295156E+04  0.18072295156E+04  0.00000000000E+00 0.  1.
          6    2    1    2  501    0 -0.88736677283E+02 -0.56763669814E+02 -0.23812242518E+03  0.31154225604E+03  0.17105547585E+03 0.  0.
         24    2    3    3    0    0 -0.10538118841E+03  0.68633212979E+01 -0.17781802124E+03  0.22218821370E+03  0.81216091873E+02 0.  0.
         -6    2    1    2    0  502  0.88736677283E+02  0.56763669814E+02 -0.15257913218E+04  0.15390030282E+04  0.17144926650E+03 0.  0.
        -24    2    5    5    0    0  0.11341974924E+03  0.10774845600E+01 -0.10783197490E+04  0.10873802833E+04  0.82202182775E+02 0.  0.
          5    1    3    3  501    0  0.16644511124E+02 -0.63626991112E+02 -0.60304403935E+02  0.89354042340E+02  0.47000000000E+01 0. -1.
        -13    1    4    4    0    0 -0.23765644399E+02  0.11949605137E+02 -0.11776562775E+03  0.12073252253E+03  0.00000000000E+00 0.  1.
         14    1    4    4    0    0 -0.81615544008E+02 -0.50862838390E+01 -0.60052393494E+02  0.10145569117E+03  0.00000000000E+00 0. -1.
         -5    1    5    5    0  502 -0.24683071962E+02  0.55686185254E+02 -0.44747157281E+03  0.45162274493E+03  0.47000000000E+01 0.  1.
         13    1    6    6    0    0  0.29989007720E+02  0.60756615572E+01 -0.66451697690E+03  0.66522106614E+03  0.00000000000E+00 0. -1.
        -14    1    6    6    0    0  0.83430741525E+02 -0.49981769972E+01 -0.41380277213E+03  0.42215921716E+03  0.00000000000E+00 0.  1.
</event>
<event>
12    1  0.9873238E-001  0.1778291E+03  0.7818608E-02  0.1169975E+00
         21   -1    0    0  503  502  0.00000000000E+00  0.00000000000E+00  0.11167524983E+03  0.11167524983E+03  0.00000000000E+00 0.  1.
         21   -1    0    0  501  503 -0.00000000000E+00 -0.00000000000E+00 -0.29558055264E+03  0.29558055264E+03  0.00000000000E+00 0.  1.
          6    2    1    2  501    0  0.22536199809E+01  0.47932533454E+02 -0.49698701761E+02  0.18464332178E+03  0.17123255752E+03 0.  0.
         24    2    3    3    0    0  0.47111155069E+02  0.16516020288E+02  0.20079992295E+02  0.95815669001E+02  0.79279231059E+02 0.  0.
         -6    2    1    2    0  502 -0.22536199809E+01 -0.47932533454E+02 -0.13420660104E+03  0.22261248069E+03  0.17100379595E+03 0.  0.
        -24    2    5    5    0    0 -0.38137992726E+02  0.27906820740E+02 -0.81891125801E+02  0.12362614425E+03  0.79649042210E+02 0.  0.
          5    1    3    3  501    0 -0.44857535088E+02  0.31416513166E+02 -0.69778694056E+02  0.88827652777E+02  0.47000000000E+01 0. -1.
        -11    1    4    4    0    0  0.45745725181E+02 -0.16386189311E+01 -0.21389405492E+02  0.50525865769E+02  0.00000000000E+00 0.  1.
         12    1    4    4    0    0  0.13654298878E+01  0.18154639219E+02  0.41469397787E+02  0.45289803232E+02  0.00000000000E+00 0. -1.
         -5    1    5    5    0  502  0.35884372746E+02 -0.75839354194E+02 -0.52315475242E+02  0.98986336439E+02  0.47000000000E+01 0.  1.
         11    1    6    6    0    0  0.27410074036E+00  0.18790896011E+02  0.11639107596E+02  0.22105242133E+02  0.00000000000E+00 0. -1.
        -12    1    6    6    0    0 -0.38412093467E+02  0.91159247287E+01 -0.93530233397E+02  0.10152090212E+03  0.00000000000E+00 0.  1.
</event>
<event>
12    1  0.9873238E-001  0.3734787E+03  0.7818608E-02  0.1053396E+00
         21   -1    0    0  501  502  0.00000000000E+00  0.00000000000E+00  0.37718291115E+03  0.37718291115E+03  0.00000000000E+00 0. -1.
         21   -1    0    0  502  503 -0.00000000000E+00 -0.00000000000E+00 -0.40721267379E+03  0.40721267379E+03  0.00000000000E+00 0. -1.
         -6    2    1    2    0  503  0.32631160829E+03  0.58042071732E+02  0.10425746456E+03  0.38775756495E+03  0.17215737703E+03 0.  0.
        -24    2    3    3    0    0  0.12816431181E+03  0.87667447221E+02  0.36678135477E+02  0.17626508354E+03  0.74916099268E+02 0.  0.
          6    2    1    2  501    0 -0.32631160829E+03 -0.58042071732E+02 -0.13428722720E+03  0.39663801999E+03  0.17158237590E+03 0.  0.
         24    2    5    5    0    0 -0.24924168365E+03 -0.17220840532E+02 -0.15758728189E+03  0.30624372399E+03  0.80830024447E+02 0.  0.
          5    1    5    5  501    0 -0.77069924644E+02 -0.40821231200E+02  0.23300054693E+02  0.90394296004E+02  0.47000000000E+01 0. -1.
        -11    1    6    6    0    0 -0.12131697018E+03 -0.90296647835E+01 -0.12404193351E+03  0.17374044828E+03  0.00000000000E+00 0.  1.
         12    1    6    6    0    0 -0.12792471347E+03 -0.81911757484E+01 -0.33545348386E+02  0.13250327571E+03  0.00000000000E+00 0. -1.
         -5    1    3    3    0  503  0.19814729648E+03 -0.29625375489E+02  0.67579329080E+02  0.21149248141E+03  0.47000000000E+01 0.  1.
         13    1    4    4    0    0  0.59705188860E+01  0.17788215435E+02 -0.17285574365E+02  0.25511934173E+02  0.00000000000E+00 0. -1.
        -14    1    4    4    0    0  0.12219379293E+03  0.69879231786E+02  0.53963709842E+02  0.15075314937E+03  0.00000000000E+00 0.  1.
</event>
<event>
12    1  0.9873238E-001  0.1904319E+03  0.7818608E-02  0.1159605E+00
         21   -1    0    0  503  502  0.00000000000E+00  0.00000000000E+00  0.57700343098E+03  0.57700343098E+03  0.00000000000E+00 0.  1.
         21   -1    0    0  501  503 -0.00000000000E+00 -0.00000000000E+00 -0.70339760779E+02  0.70339760779E+02  0.00000000000E+00 0.  1.
          6    2    1    2  501    0  0.49374819851E+02 -0.45791506316E+02  0.13719010199E+03  0.23470284849E+03  0.17812795434E+03 0.  0.
         24    2    3    3    0    0 -0.28880812341E+02  0.94441980187E+01  0.98513223965E+02  0.13129628247E+03  0.81305376793E+02 0.  0.
         -6    2    1    2    0  502 -0.49374819851E+02  0.45791506316E+02  0.36947356821E+03  0.41264034327E+03  0.17095789073E+03 0.  0.
        -24    2    5    5    0    0 -0.80330513450E+02  0.79918397558E+02  0.28442972072E+03  0.31580313107E+03  0.77404198223E+02 0.  0.
          5    1    3    3  501    0  0.78255632192E+02 -0.55235704335E+02  0.38676878029E+02  0.10340656603E+03  0.47000000000E+01 0. -1.
        -11    1    4    4    0    0  0.74371274055E+01  0.38989885001E+02  0.39912214372E+02  0.56289491493E+02  0.00000000000E+00 0.  1.
         12    1    4    4    0    0 -0.36317939747E+02 -0.29545686982E+02  0.58601009593E+02  0.75006790973E+02  0.00000000000E+00 0. -1.
         -5    1    5    5    0  502  0.30955693600E+02 -0.34126891242E+02  0.85043847489E+02  0.96837212206E+02  0.47000000000E+01 0.  1.
         13    1    6    6    0    0 -0.40093024707E+02  0.84760759119E+02  0.16626943541E+03  0.19088573039E+03  0.00000000000E+00 0. -1.
        -14    1    6    6    0    0 -0.40237488743E+02 -0.48423615614E+01  0.11816028531E+03  0.12491740067E+03  0.00000000000E+00 0.  1.
</event>
<event>
12    1  0.9873238E-001  0.2040877E+03  0.7818608E-02  0.1147104E+00
         21   -1    0    0  503  502  0.00000000000E+00  0.00000000000E+00  0.56944887480E+02  0.56944887480E+02  0.00000000000E+00 0. -1.
         21   -1    0    0  501  503 -0.00000000000E+00 -0.00000000000E+00 -0.72389852196E+03  0.72389852196E+03  0.00000000000E+00 0. -1.
          6    2    1    2  501    0  0.89482852032E+01  0.99293133301E+02 -0.37107100159E+03  0.42349201099E+03  0.17808031060E+03 0.  0.
         24    2    3    3    0    0 -0.58426762727E+02  0.56194554983E+02 -0.27946944198E+03  0.30179640606E+03  0.80039909406E+02 0.  0.
         -6    2    1    2    0  502 -0.89482852032E+01 -0.99293133301E+02 -0.29588263289E+03  0.35735139845E+03  0.17382258599E+03 0.  0.
        -24    2    5    5    0    0 -0.55562857497E+02 -0.68974803709E+02 -0.93957984464E+02  0.14785730998E+03  0.72034204316E+02 0.  0.
          5    1    3    3  501    0  0.67375047930E+02  0.43098578318E+02 -0.91601559610E+02  0.12169560493E+03  0.47000000000E+01 0. -1.
        -11    1    4    4    0    0 -0.47427564667E+02  0.75720305746E+02 -0.24395923403E+03  0.25980578604E+03  0.00000000000E+00 0.  1.
         12    1    4    4    0    0 -0.10999198060E+02 -0.19525750763E+02 -0.35510207947E+02  0.41990620015E+02  0.00000000000E+00 0. -1.
         -5    1    5    5    0  502  0.46614572294E+02 -0.30318329592E+02 -0.20192464843E+03  0.20949408847E+03  0.47000000000E+01 0.  1.
         13    1    6    6    0    0 -0.31064617486E+02  0.49361383980E+01 -0.48160863091E+02  0.57522557797E+02  0.00000000000E+00 0. -1.
        -14    1    6    6    0    0 -0.24498240011E+02 -0.73910942107E+02 -0.45797121374E+02  0.90334752188E+02  0.00000000000E+00 0.  1.
</event>
<event>
12    1  0.9873238E-001  0.2041652E+03  0.7818608E-02  0.1146864E+00
         21   -1    0    0  501  502  0.00000000000E+00  0.00000000000E+00  0.21936576302E+03  0.21936576302E+03  0.00000000000E+00 0.  1.
         21   -1    0    0  502  503 -0.00000000000E+00 -0.00000000000E+00 -0.20266307005E+03  0.20266307005E+03  0.00000000000E+00 0.  1.
         -6    2    1    2    0  503 -0.41201580183E+02 -0.10125842589E+03 -0.49679381829E+02  0.20734295689E+03  0.16903319724E+03 0.  0.
        -24    2    3    3    0    0 -0.20113382425E+02  0.13943797425E+02 -0.36454513448E+01  0.81416481926E+02  0.77565305224E+02 0.  0.
          6    2    1    2  501    0  0.41201580183E+02  0.10125842589E+03  0.66382074798E+02  0.21468587618E+03  0.17243145465E+03 0.  0.
         24    2    5    5    0    0  0.80904505295E+02  0.11438829200E+03  0.58598736762E+02  0.17189118028E+03  0.80514257022E+02 0.  0.
          5    1    5    5  501    0 -0.39702925112E+02 -0.13129866108E+02  0.77833380358E+01  0.42794695903E+02  0.47000000000E+01 0. -1.
        -13    1    6    6    0    0 -0.63394111377E+01  0.10713720850E+02 -0.13533969363E+02  0.18388590885E+02  0.00000000000E+00 0.  1.
         14    1    6    6    0    0  0.87243916433E+02  0.10367457115E+03  0.72132706125E+02  0.15350258939E+03  0.00000000000E+00 0. -1.
         -5    1    3    3    0  503 -0.21088197758E+02 -0.11520222331E+03 -0.46033930484E+02  0.12592647496E+03  0.47000000000E+01 0.  1.
         13    1    4    4    0    0  0.58224303367E+00 -0.15465223877E+02 -0.32049733868E+02  0.35590695378E+02  0.00000000000E+00 0. -1.
        -14    1    4    4    0    0 -0.20695625459E+02  0.29409021303E+02  0.28404282523E+02  0.45825786548E+02  0.00000000000E+00 0.  1.
</event>
<event>
12    1  0.9873238E-001  0.2755104E+03  0.7818608E-02  0.1098931E+00
         21   -1    0    0  501  502  0.00000000000E+00  0.00000000000E+00  0.58796524448E+03  0.58796524448E+03  0.00000000000E+00 0.  1.
         21   -1    0    0  502  503 -0.00000000000E+00 -0.00000000000E+00 -0.13130353905E+03  0.13130353905E+03  0.00000000000E+00 0.  1.
         -6    2    1    2    0  503 -0.17037566356E+03  0.12963061413E+03  0.29442052588E+03  0.39953735261E+03  0.16466537954E+03 0.  0.
        -24    2    3    3    0    0 -0.13598918492E+03  0.33119324784E+02  0.22016732028E+03  0.27291789350E+03  0.80128519148E+02 0.  0.
          6    2    1    2  501    0  0.17037566356E+03 -0.12963061413E+03  0.16224117956E+03  0.31973143092E+03  0.17341864006E+03 0.  0.
         24    2    5    5    0    0  0.67886298900E+02 -0.12626596901E+03  0.58050501629E+02  0.17346736126E+03  0.78545656635E+02 0.  0.
          5    1    5    5  501    0  0.10248936466E+03 -0.33646451216E+01  0.10419067793E+03  0.14626406965E+03  0.47000000000E+01 0. -1.
        -13    1    6    6    0    0  0.74588656198E+01 -0.20230404057E+02  0.46032384340E+02  0.50831922378E+02  0.00000000000E+00 0.  1.
         14    1    6    6    0    0  0.60427433280E+02 -0.10603556495E+03  0.12018117289E+02  0.12263543889E+03  0.00000000000E+00 0. -1.
         -5    1    3    3    0  503 -0.34386478640E+02  0.96511289346E+02  0.74253205597E+02  0.12661945911E+03  0.47000000000E+01 0.  1.
         11    1    4    4    0    0 -0.82577308761E+02 -0.27689974536E+01  0.65627468583E+02  0.10551608362E+03  0.00000000000E+00 0. -1.
        -12    1    4    4    0    0 -0.53411876158E+02  0.35888322237E+02  0.15453985170E+03  0.16740180988E+03  0.00000000000E+00 0.  1.
</event>
<event>
12    1  0.9873238E-001  0.2503976E+03  0.7818608E-02  0.1113227E+00
         21   -1    0    0  503  502  0.00000000000E+00  0.00000000000E+00  0.83344286660E+03  0.83344286660E+03  0.00000000000E+00 0.  1.
         21   -1    0    0  501  503 -0.00000000000E+00 -0.00000000000E+00 -0.75097231185E+02  0.75097231185E+02  0.00000000000E+00 0.  1.
          6    2    1    2  501    0  0.65060465134E+01 -0.18061718032E+03  0.35508134692E+03  0.43386015727E+03  0.17171772965E+03 0.  0.
         24    2    3    3    0    0 -0.17243896254E+00 -0.12820034482E+03  0.11881833330E+03  0.19171468774E+03  0.78748758862E+02 0.  0.
         -6    2    1    2    0  502 -0.65060465134E+01  0.18061718032E+03  0.40326428850E+03  0.47467994051E+03  0.17330339026E+03 0.  0.
        -24    2    5    5    0    0  0.81605904134E+01  0.18582487561E+03  0.40969192161E+03  0.45719752659E+03  0.81145721125E+02 0.  0.
          5    1    3    3  501    0  0.66784854760E+01 -0.52416835503E+02  0.23626301361E+03  0.24214546953E+03  0.47000000000E+01 0. -1.
        -13    1    4    4    0    0  0.22891818629E+02 -0.42679227806E+01  0.10644052974E+02  0.25603640146E+02  0.00000000000E+00 0.  1.
         14    1    4    4    0    0 -0.23064257592E+02 -0.12393242203E+03  0.10817428033E+03  0.16611104760E+03  0.00000000000E+00 0. -1.
         -5    1    5    5    0  502 -0.14666636927E+02 -0.52076952933E+01 -0.64276331106E+01  0.17482413918E+02  0.47000000000E+01 0.  1.
         13    1    6    6    0    0  0.36590273943E+02  0.12599335878E+03  0.31868494534E+03  0.34463497935E+03  0.00000000000E+00 0. -1.
        -14    1    6    6    0    0 -0.28429683529E+02  0.59831516836E+02  0.91006976271E+02  0.11256254725E+03  0.00000000000E+00 0.  1.
</event>
<event>
12    1  0.9873238E-001  0.2269871E+03  0.7818608E-02  0.1129757E+00
         21   -1    0    0  503  502  0.00000000000E+00  0.00000000000E+00  0.76361164971E+02  0.76361164971E+02  0.00000000000E+00 0. -1.
         21   -1    0    0  501  503 -0.00000000000E+00 -0.00000000000E+00 -0.67667689976E+03  0.67667689976E+03  0.00000000000E+00 0. -1.
          6    2    1    2  501    0 -0.12076679599E+03 -0.67150753449E+02 -0.23542205259E+03  0.32330496383E+03  0.17323023434E+03 0.  0.
         24    2    3    3    0    0 -0.46111061095E+02 -0.88152333935E+02 -0.20152168142E+03  0.23853545103E+03  0.79944414324E+02 0.  0.
         -6    2    1    2    0  502  0.12076679599E+03  0.67150753449E+02 -0.36489368220E+03  0.42973310090E+03  0.18008135939E+03 0.  0.
        -24    2    5    5    0    0  0.15458781851E+03  0.64720283482E+02 -0.26169514795E+03  0.32100501704E+03  0.80459690389E+02 0.  0.
          5    1    3    3  501    0 -0.74655734895E+02  0.21001580486E+02 -0.33900371174E+02  0.84769512806E+02  0.47000000000E+01 0. -1.
        -13    1    4    4    0    0 -0.47908411440E+02 -0.25226830960E+02 -0.47056290110E+02  0.71734951912E+02  0.00000000000E+00 0.  1.
         14    1    4    4    0    0  0.17973503451E+01 -0.62925502976E+02 -0.15446539131E+03  0.16680049911E+03  0.00000000000E+00 0. -1.
         -5    1    5    5    0  502 -0.33821022524E+02  0.24304699672E+01 -0.10319853425E+03  0.10872808387E+03  0.47000000000E+01 0.  1.
         13    1    6    6    0    0 -0.82483526125E+01 -0.39023230950E+01 -0.14888373293E+02  0.17462162113E+02  0.00000000000E+00 0. -1.
        -14    1    6    6    0    0  0.16283617113E+03  0.68622606577E+02 -0.24680677465E+03  0.30354285492E+03  0.00000000000E+00 0.  1.
</event>
<event>
12    1  0.9873238E-001  0.3160041E+03  0.7818608E-02  0.1077587E+00
         21   -1    0    0  503  502  0.00000000000E+00  0.00000000000E+00  0.64531134405E+02  0.64531134405E+02  0.00000000000E+00 0.  1.
         21   -1    0    0  501  503 -0.00000000000E+00 -0.00000000000E+00 -0.18096333718E+04  0.18096333718E+04  0.00000000000E+00 0.  1.
          6    2    1    2  501    0  0.13265539247E+03  0.22899278857E+03 -0.51433626842E+03  0.60365582881E+03  0.17269456355E+03 0.  0.
         24    2    3    3    0    0  0.52838031374E+02  0.13610436739E+03 -0.41184762300E+03  0.44389011797E+03  0.78126281617E+02 0.  0.
         -6    2    1    2    0  502 -0.13265539247E+03 -0.22899278857E+03 -0.12307659690E+04  0.12705086774E+04  0.17138342560E+03 0.  0.
        -24    2    5    5    0    0 -0.69186826083E+02 -0.19853661037E+03 -0.10931099602E+04  0.11158247918E+04  0.77278576200E+02 0.  0.
          5    1    3    3  501    0  0.79817361094E+02  0.92888421183E+02 -0.10248864543E+03  0.15976571085E+03  0.47000000000E+01 0. -1.
        -11    1    4    4    0    0 -0.99930950178E+01  0.34232701027E+02 -0.41683761659E+02  0.54856866057E+02  0.00000000000E+00 0.  1.
         12    1    4    4    0    0  0.62831126391E+02  0.10187166636E+03 -0.37016386134E+03  0.38903325191E+03  0.00000000000E+00 0. -1.
         -5    1    5    5    0  502 -0.63468566385E+02 -0.30456178204E+02 -0.13765600873E+03  0.15468388555E+03  0.47000000000E+01 0.  1.
         11    1    6    6    0    0 -0.10774259954E+02 -0.58422601705E+02 -0.16471128575E+03  0.17509738068E+03  0.00000000000E+00 0. -1.
        -12    1    6    6    0    0 -0.58412566129E+02 -0.14011400866E+03 -0.92839867448E+03  0.94072741115E+03  0.00000000000E+00 0.  1.
</event>
<event>
12    1  0.9873238E-001  0.2376801E+03  0.7818608E-02  0.1123162E+00
         21   -1    0    0  503  502  0.00000000000E+00  0.00000000000E+00  0.86288997698E+03  0.86288997698E+03  0.00000000000E+00 0. -1.
         21   -1    0    0  501  503 -0.00000000000E+00 -0.00000000000E+00 -0.99927492642E+02  0.99927492642E+02  0.00000000000E+00 0. -1.
          6    2    1    2  501    0  0.84455563111E+02 -0.12087262202E+03  0.68103017630E+03  0.72131402438E+03  0.18641053574E+03 0.  0.
         24    2    3    3    0    0  0.11164244754E+03 -0.14010588735E+03  0.63049691868E+03  0.66061192140E+03  0.82389625980E+02 0.  0.
         -6    2    1    2    0  502 -0.84455563111E+02  0.12087262202E+03  0.81932308038E+02  0.24150344525E+03  0.17282383537E+03 0.  0.
        -24    2    5    5    0    0  0.99833488296E+01  0.11358166902E+02  0.45037589815E+02  0.92186888224E+02  0.79002295251E+02 0.  0.
          5    1    3    3  501    0 -0.27186884426E+02  0.19233265327E+02  0.50533257620E+02  0.60702102975E+02  0.47000000000E+01 0. -1.
        -13    1    4    4    0    0  0.92382485863E+02 -0.50314305907E+02  0.32351686565E+03  0.34018996963E+03  0.00000000000E+00 0.  1.
         14    1    4    4    0    0  0.19259961674E+02 -0.89791581441E+02  0.30698005303E+03  0.32042195178E+03  0.00000000000E+00 0. -1.
         -5    1    5    5    0  502 -0.94438911941E+02  0.10951445512E+03  0.36894718223E+02  0.14931655702E+03  0.47000000000E+01 0.  1.
         13    1    6    6    0    0 -0.34686180616E+02  0.60583167288E+01  0.23340911494E+02  0.42244910661E+02  0.00000000000E+00 0. -1.
        -14    1    6    6    0    0  0.44669529446E+02  0.52998501736E+01  0.21696678321E+02  0.49941977564E+02  0.00000000000E+00 0.  1.
</event>
<event>
12    1  0.9873238E-001  0.1894207E+03  0.7818608E-02  0.1159896E+00
         21   -1    0    0  503  502  0.00000000000E+00  0.00000000000E+00  0.25872007196E+03  0.25872007196E+03  0.00000000000E+00 0.  1.
         21   -1    0    0  501  503 -0.00000000000E+00 -0.00000000000E+00 -0.18022253166E+03  0.18022253166E+03  0.00000000000E+00 0.  1.
          6    2    1    2  501    0 -0.67928300882E+02 -0.13407470160E+02 -0.70040821962E+02  0.19822732493E+03  0.17203005926E+03 0.  0.
         24    2    3    3    0    0 -0.66940879928E+02 -0.56224476344E+02 -0.31190234737E+01  0.11863531445E+03  0.80139480790E+02 0.  0.
         -6    2    1    2    0  502  0.67928300882E+02  0.13407470160E+02  0.14853836226E+03  0.24071527869E+03  0.17631275058E+03 0.  0.
        -24    2    5    5    0    0  0.81956736780E+02  0.42424416882E+02  0.16420012176E+03  0.20457443031E+03  0.79826560120E+02 0.  0.
          5    1    3    3  501    0 -0.98742095428E+00  0.42817006184E+02 -0.66921798489E+02  0.79592010476E+02  0.47000000000E+01 0. -1.
        -11    1    4    4    0    0 -0.22915465713E+02  0.47222836807E+01 -0.30657809870E+02  0.38565785847E+02  0.00000000000E+00 0.  1.
         12    1    4    4    0    0 -0.44025414215E+02 -0.60946760025E+02  0.27538786396E+02  0.80069528602E+02  0.00000000000E+00 0. -1.
         -5    1    5    5    0  502 -0.14028435898E+02 -0.29016946722E+02 -0.15661759500E+02  0.36140848377E+02  0.47000000000E+01 0.  1.
         13    1    6    6    0    0  0.34409001476E+02  0.60463404549E+02  0.78225854457E+02  0.10468565794E+03  0.00000000000E+00 0. -1.
        -14    1    6    6    0    0  0.47547735304E+02 -0.18038987666E+02  0.85974267303E+02  0.99888772376E+02  0.00000000000E+00 0.  1.
</event>
<event>
12    1  0.9873238E-001  0.1810988E+03  0.7818608E-02  0.1167779E+00
         21   -1    0    0  501  502  0.00000000000E+00  0.00000000000E+00  0.17706366083E+02  0.17706366083E+02  0.00000000000E+00 0.  1.
         21   -1    0    0  502  503 -0.00000000000E+00 -0.00000000000E+00 -0.19157531399E+04  0.19157531399E+04  0.00000000000E+00 0.  1.
         -6    2    1    2    0  503  0.38543472033E+01  0.54974353894E+02 -0.73146898780E+03  0.75355401422E+03  0.17251010598E+03 0.  0.
        -24    2    3    3    0    0  0.55158720852E+02  0.58078191258E+02 -0.62444483201E+03  0.63473468716E+03  0.80877772445E+02 0.  0.
          6    2    1    2  501    0 -0.38543472033E+01 -0.54974353894E+02 -0.11665777860E+04  0.11799054918E+04  0.16803631474E+03 0.  0.
         24    2    5    5    0    0 -0.21571157455E+02 -0.41266531103E+02 -0.26002047358E+03  0.27305928622E+03  0.69155518106E+02 0.  0.
          5    1    5    5  501    0  0.17716810252E+02 -0.13707822791E+02 -0.90655731244E+03  0.90684620555E+03  0.47000000000E+01 0. -1.
        -13    1    6    6    0    0 -0.36715094453E+02  0.67831785191E+00 -0.88044916791E+02  0.95395836641E+02  0.00000000000E+00 0.  1.
         14    1    6    6    0    0  0.15143936998E+02 -0.41944848955E+02 -0.17197555679E+03  0.17766344958E+03  0.00000000000E+00 0. -1.
         -5    1    3    3    0  503 -0.51304373649E+02 -0.31038373640E+01 -0.10702415579E+03  0.11881932707E+03  0.47000000000E+01 0.  1.
         13    1    4    4    0    0 -0.63605741809E+01  0.48221739596E+02 -0.20521086850E+03  0.21089640495E+03  0.00000000000E+00 0. -1.
        -14    1    4    4    0    0  0.61519295033E+02  0.98564516620E+01 -0.41923396351E+03  0.42383828221E+03  0.00000000000E+00 0.  1.
</event>
<event>
12    1  0.9873238E-001  0.2210067E+03  0.7818608E-02  0.1133198E+00
         21   -1    0    0  503  502  0.00000000000E+00  0.00000000000E+00  0.12834275302E+03  0.12834275302E+03  0.00000000000E+00 0. -1.
         21   -1    0    0  501  503 -0.00000000000E+00 -0.00000000000E+00 -0.38394710286E+03  0.38394710286E+03  0.00000000000E+00 0. -1.
          6    2    1    2  501    0 -0.13266667277E+03  0.42723912793E+02 -0.15371604908E+03  0.26892759055E+03  0.17107789579E+03 0.  0.
         24    2    3    3    0    0 -0.11277970642E+03  0.87845333094E+02 -0.84062706659E+02  0.18345764197E+03  0.78448091239E+02 0.  0.
         -6    2    1    2    0  502  0.13266667277E+03 -0.42723912793E+02 -0.10188830076E+03  0.24336226534E+03  0.17151730982E+03 0.  0.
        -24    2    5    5    0    0  0.39494465906E+02 -0.80587673416E+02 -0.53096098694E+02  0.13148066058E+03  0.80086094086E+02 0.  0.
          5    1    3    3  501    0 -0.19886966345E+02 -0.45121420300E+02 -0.69653342416E+02  0.85469948579E+02  0.47000000000E+01 0. -1.
        -13    1    4    4    0    0 -0.90815476317E+02  0.42759910224E+02 -0.87537214463E+02  0.13318642790E+03  0.00000000000E+00 0.  1.
         14    1    4    4    0    0 -0.21964230107E+02  0.45085422869E+02  0.34745078044E+01  0.50271214069E+02  0.00000000000E+00 0. -1.
         -5    1    5    5    0  502  0.93172206863E+02  0.37863760623E+02 -0.48792202068E+02  0.11188160476E+03  0.47000000000E+01 0.  1.
         13    1    6    6    0    0  0.59681585589E+00 -0.42671014101E+02  0.14219268242E+02  0.44981765449E+02  0.00000000000E+00 0. -1.
        -14    1    6    6    0    0  0.38897650051E+02 -0.37916659315E+02 -0.67315366936E+02  0.86498895130E+02  0.00000000000E+00 0.  1.
</event>
<event>
12    1  0.9873238E-001  0.2265745E+03  0.7818608E-02  0.1129082E+00
         21   -1    0    0  501  502  0.00000000000E+00  0.00000000000E+00  0.81160428694E+02  0.81160428694E+02  0.00000000000E+00 0.  1.
         21   -1    0    0  502  503 -0.00000000000E+00 -0.00000000000E+00 -0.65582553660E+03  0.65582553660E+03  0.00000000000E+00 0.  1.
         -6    2    1    2    0  503 -0.14703809178E+03 -0.23578701010E+02 -0.21771517523E+03  0.31422269098E+03  0.17076254399E+03 0.  0.
        -24    2    3    3    0    0 -0.87351589815E+01  0.15922556888E+02 -0.72637166435E+02  0.10987551280E+03  0.80415418582E+02 0.  0.
          6    2    1    2  501    0  0.14703809178E+03  0.23578701010E+02 -0.35694993268E+03  0.42276327432E+03  0.17070259545E+03 0.  0.
         24    2    5    5    0    0  0.15582763673E+03  0.53472571844E+02 -0.24483160962E+03  0.30630079975E+03  0.82073714150E+02 0.  0.
          5    1    5    5  501    0 -0.87895449515E+01 -0.29893870834E+02 -0.11211832307E+03  0.11646247456E+03  0.47000000000E+01 0. -1.
        -13    1    6    6    0    0  0.18853261608E+02 -0.18946677749E+02 -0.55899921369E+02  0.61961466090E+02  0.00000000000E+00 0.  1.
         14    1    6    6    0    0  0.13697437512E+03  0.72419249593E+02 -0.18893168825E+03  0.24433933366E+03  0.00000000000E+00 0. -1.
         -5    1    3    3    0  503 -0.13830293279E+03 -0.39501257898E+02 -0.14507800879E+03  0.20434717818E+03  0.47000000000E+01 0.  1.
         11    1    4    4    0    0 -0.40559315633E+02  0.11340161722E+01 -0.60294497217E+02  0.72675790136E+02  0.00000000000E+00 0. -1.
        -12    1    4    4    0    0  0.31824156651E+02  0.14788540716E+02 -0.12342669218E+02  0.37199722667E+02  0.00000000000E+00 0.  1.
</event>
<event>
12    1  0.9873238E-001  0.3980627E+03  0.7818608E-02  0.1044540E+00
         21   -1    0    0  503  502  0.00000000000E+00  0.00000000000E+00  0.86702346883E+03  0.86702346883E+03  0.00000000000E+00 0. -1.
         21   -1    0    0  501  503 -0.00000000000E+00 -0.00000000000E+00 -0.18505837204E+03  0.18505837204E+03  0.00000000000E+00 0. -1.
          6    2    1    2  501    0 -0.80187198309E+02  0.34985444928E+03  0.40479988110E+03  0.56703082966E+03  0.16980251939E+03 0.  0.
         24    2    3    3    0    0 -0.12887384599E+03  0.26654882552E+03  0.29860919380E+03  0.42347328481E+03  0.50054248224E+02 0.  0.
         -6    2    1    2    0  502  0.80187198309E+02 -0.34985444928E+03  0.27716521569E+03  0.48505101122E+03  0.17212148106E+03 0.  0.
        -24    2    5    5    0    0  0.89101235546E+02 -0.13520560729E+03  0.15698013359E+03  0.23883945709E+03  0.78625298102E+02 0.  0.
          5    1    3    3  501    0  0.48686647676E+02  0.83305623763E+02  0.10619068730E+03  0.14355754484E+03  0.47000000000E+01 0. -1.
        -13    1    4    4    0    0 -0.12780695554E+02  0.42012213697E+02  0.70124303895E+02  0.82739291001E+02  0.00000000000E+00 0.  1.
         14    1    4    4    0    0 -0.11609315043E+03  0.22453661182E+03  0.22848488990E+03  0.34073399381E+03  0.00000000000E+00 0. -1.
         -5    1    5    5    0  502 -0.89140372368E+01 -0.21464884199E+03  0.12018508209E+03  0.24621155412E+03  0.47000000000E+01 0.  1.
         13    1    6    6    0    0  0.11162960896E+02 -0.13747460925E+02 -0.81848054690E+01  0.19508854872E+02  0.00000000000E+00 0. -1.
        -14    1    6    6    0    0  0.77938274650E+02 -0.12145814637E+03  0.16516493906E+03  0.21933060222E+03  0.00000000000E+00 0.  1.
</event>
<event>
12    1  0.9873238E-001  0.2548698E+03  0.7818608E-02  0.1110293E+00
         21   -1    0    0  503  502  0.00000000000E+00  0.00000000000E+00  0.18596360018E+04  0.18596360018E+04  0.00000000000E+00 0. -1.
         21   -1    0    0  501  503 -0.00000000000E+00 -0.00000000000E+00 -0.55161563733E+02  0.55161563733E+02  0.00000000000E+00 0. -1.
          6    2    1    2  501    0  0.12992034459E+03  0.13574053415E+03  0.14826001254E+04  0.15043476209E+04  0.17220291499E+03 0.  0.
         24    2    3    3    0    0  0.67450587835E+02  0.12120621077E+03  0.65873370933E+03  0.67797501808E+03  0.80495329043E+02 0.  0.
         -6    2    1    2    0  502 -0.12992034459E+03 -0.13574053415E+03  0.32187431266E+03  0.41044994469E+03  0.17193398558E+03 0.  0.
        -24    2    5    5    0    0 -0.12339145985E+03 -0.41804714782E+02  0.14966538308E+03  0.21412223416E+03  0.80470601622E+02 0.  0.
          5    1    3    3  501    0  0.62469756754E+02  0.14534323377E+02  0.82386641611E+03  0.82637260280E+03  0.47000000000E+01 0. -1.
        -13    1    4    4    0    0 -0.26358348496E+01  0.48737782044E+02  0.34514545321E+03  0.34857955031E+03  0.00000000000E+00 0.  1.
         14    1    4    4    0    0  0.70086422685E+02  0.72468428729E+02  0.31358825612E+03  0.32939546777E+03  0.00000000000E+00 0. -1.
         -5    1    5    5    0  502 -0.65288847361E+01 -0.93935819368E+02  0.17220892958E+03  0.19632771053E+03  0.47000000000E+01 0.  1.
         13    1    6    6    0    0  0.10913355605E+02 -0.84366546100E+01  0.21234232872E+02  0.25321356939E+02  0.00000000000E+00 0. -1.
        -14    1    6    6    0    0 -0.13430481546E+03 -0.33368060172E+02  0.12843115021E+03  0.18880087722E+03  0.00000000000E+00 0.  1.
</event>
<event>
12    1  0.9873238E-001  0.1778084E+03  0.7818608E-02  0.1170025E+00
         21   -1    0    0  501  502  0.00000000000E+00  0.00000000000E+00  0.24492920817E+03  0.24492920817E+03  0.00000000000E+00 0. -1.
         21   -1    0    0  502  503 -0.00000000000E+00 -0.00000000000E+00 -0.17083202956E+03  0.17083202956E+03  0.00000000000E+00 0. -1.
         -6    2    1    2    0  503 -0.28835773515E+02 -0.35429762291E+02  0.14014841221E+03  0.22640095451E+03  0.17184017245E+03 0.  0.
        -24    2    3    3    0    0 -0.16066243553E+02 -0.50021179813E+01  0.19263824191E+00  0.82530835647E+02  0.80797007103E+02 0.  0.
          6    2    1    2  501    0  0.28835773515E+02  0.35429762291E+02 -0.66051233598E+02  0.18936028323E+03  0.17148697185E+03 0.  0.
         24    2    5    5    0    0 -0.40620653759E+02  0.53612398190E+02 -0.28792831299E+02  0.10833508912E+03  0.79894540800E+02 0.  0.
          5    1    5    5  501    0  0.69456427274E+02 -0.18182635899E+02 -0.37258402299E+02  0.81025194106E+02  0.47000000000E+01 0. -1.
        -11    1    6    6    0    0 -0.33574008816E+01  0.50970161630E+02 -0.44561939740E+02  0.67786399747E+02  0.00000000000E+00 0.  1.
         12    1    6    6    0    0 -0.37263252878E+02  0.26422365594E+01  0.15769108441E+02  0.40548689376E+02  0.00000000000E+00 0. -1.
         -5    1    3    3    0  503 -0.12769529962E+02 -0.30427644309E+02  0.13995577397E+03  0.14387011886E+03  0.47000000000E+01 0.  1.
         11    1    4    4    0    0 -0.32649746779E+02  0.22205222852E+02 -0.20548298467E+02  0.44511913647E+02  0.00000000000E+00 0. -1.
        -12    1    4    4    0    0  0.16583503226E+02 -0.27207340834E+02  0.20740936709E+02  0.38018922000E+02  0.00000000000E+00 0.  1.
</event>
<event>
12    1  0.9873238E-001  0.3184452E+03  0.7818608E-02  0.1077048E+00
         21   -1    0    0  503  502  0.00000000000E+00  0.00000000000E+00  0.20299545135E+03  0.20299545135E+03  0.00000000000E+00 0.  1.
         21   -1    0    0  501  503 -0.00000000000E+00 -0.00000000000E+00 -0.56357996806E+03  0.56357996806E+03  0.00000000000E+00 0.  1.
          6    2    1    2  501    0  0.16218702569E+03  0.21287221524E+03 -0.43691359875E+02  0.32142848727E+03  0.17259236999E+03 0.  0.
         24    2    3    3    0    0  0.26912157446E+02  0.70626320374E+02  0.25523129310E+02  0.11323165709E+03  0.80359421908E+02 0.  0.
         -6    2    1    2    0  502 -0.16218702569E+03 -0.21287221524E+03 -0.31689315684E+03  0.44514693214E+03  0.16160231132E+03 0.  0.
        -24    2    5    5    0    0 -0.11102644275E+03 -0.19879090152E+03 -0.30805640842E+03  0.39114816582E+03  0.79078716086E+02 0.  0.
          5    1    3    3  501    0  0.13527486824E+03  0.14224589487E+03 -0.69214489185E+02  0.20819683018E+03  0.47000000000E+01 0. -1.
        -11    1    4    4    0    0  0.27753892876E+02  0.54701755456E+02  0.53261303201E+02  0.81236242149E+02  0.00000000000E+00 0.  1.
         12    1    4    4    0    0 -0.84173543013E+00  0.15924564918E+02 -0.27738173892E+02  0.31995414940E+02  0.00000000000E+00 0. -1.
         -5    1    5    5    0  502 -0.51160582931E+02 -0.14081313724E+02 -0.88367484204E+01  0.53998766325E+02  0.47000000000E+01 0.  1.
         11    1    6    6    0    0 -0.61518553841E+02 -0.39435509067E+02 -0.11150470824E+03  0.13331538471E+03  0.00000000000E+00 0. -1.
        -12    1    6    6    0    0 -0.49507888913E+02 -0.15935539245E+03 -0.19655170018E+03  0.25783278110E+03  0.00000000000E+00 0.  1.
</event>
<event>
12    1  0.9873238E-001  0.1907803E+03  0.7818608E-02  0.1157785E+00
         21   -1    0    0  503  502  0.00000000000E+00  0.00000000000E+00  0.18841344580E+04  0.18841344580E+04  0.00000000000E+00 0. -1.
         21   -1    0    0  501  503 -0.00000000000E+00 -0.00000000000E+00 -0.19908015089E+02  0.19908015089E+02  0.00000000000E+00 0. -1.
          6    2    1    2  501    0  0.78327810094E+02 -0.16846790714E+02  0.10979366754E+04  0.11143886578E+04  0.17314178410E+03 0.  0.
         24    2    3    3    0    0 -0.22676451665E+01 -0.55755373666E+02  0.46514696280E+03  0.47528427233E+03  0.80122647342E+02 0.  0.
         -6    2    1    2    0  502 -0.78327810094E+02  0.16846790714E+02  0.76628976755E+03  0.78965381527E+03  0.17301468121E+03 0.  0.
        -24    2    5    5    0    0 -0.60896568795E+02 -0.20611982557E+02  0.23699833569E+03  0.25873148788E+03  0.81489421319E+02 0.  0.
          5    1    3    3  501    0  0.80595455260E+02  0.38908582952E+02  0.63278971258E+03  0.63910438551E+03  0.47000000000E+01 0. -1.
        -11    1    4    4    0    0  0.85604250325E+00 -0.75056234498E+02  0.40899252440E+03  0.41582334730E+03  0.00000000000E+00 0.  1.
         12    1    4    4    0    0 -0.31236876697E+01  0.19300860832E+02  0.56154438401E+02  0.59460925032E+02  0.00000000000E+00 0. -1.
         -5    1    5    5    0  502 -0.17431241299E+02  0.37458773271E+02  0.52929143186E+03  0.53092232738E+03  0.47000000000E+01 0.  1.
         13    1    6    6    0    0 -0.41100753467E+01 -0.15410586637E+02  0.17001977358E+03  0.17076622122E+03  0.00000000000E+00 0. -1.
        -14    1    6    6    0    0 -0.56786493448E+02 -0.52013959196E+01  0.66978562106E+02  0.87965266665E+02  0.00000000000E+00 0.  1.
</event>
<event>
12    1  0.9873238E-001  0.1919458E+03  0.7818608E-02  0.1156806E+00
         21   -1    0    0  501  502  0.00000000000E+00  0.00000000000E+00  0.29830939815E+03  0.29830939815E+03  0.00000000000E+00 0. -1.
         21   -1    0    0  502  503 -0.00000000000E+00 -0.00000000000E+00 -0.17148113380E+03  0.17148113380E+03  0.00000000000E+00 0. -1.
         -6    2    1    2    0  503  0.64121382807E+00  0.84119197044E+02  0.18803130121E+03  0.26869865980E+03  0.17253042941E+03 0.  0.
        -24    2    3    3    0    0  0.25151979456E+02  0.61672475666E+02  0.31002825143E+02  0.10812261790E+03  0.79329748582E+02 0.  0.
          6    2    1    2  501    0 -0.64121382807E+00 -0.84119197044E+02 -0.61203036866E+02  0.20109187215E+03  0.17209206507E+03 0.  0.
         24    2    5    5    0    0 -0.50097620436E+02  0.18694632038E+01 -0.46185024415E+02  0.10065474484E+03  0.74061155217E+02 0.  0.
          5    1    5    5  501    0  0.49456406608E+02 -0.85988660248E+02 -0.15018012451E+02  0.10043712732E+03  0.47000000000E+01 0. -1.
        -13    1    6    6    0    0  0.48675898909E+01 -0.26412139515E+02 -0.20177144760E+02  0.33591840018E+02  0.00000000000E+00 0.  1.
         14    1    6    6    0    0 -0.54965210327E+02  0.28281602719E+02 -0.26007879655E+02  0.67062904819E+02  0.00000000000E+00 0. -1.
         -5    1    3    3    0  503 -0.24510765628E+02  0.22446721378E+02  0.15702847607E+03  0.16057604189E+03  0.47000000000E+01 0.  1.
         11    1    4    4    0    0 -0.11477107271E+02 -0.14282584301E+02  0.11295354659E+02  0.21524433616E+02  0.00000000000E+00 0. -1.
        -12    1    4    4    0    0  0.36629086726E+02  0.75955059967E+02  0.19707470484E+02  0.86598184287E+02  0.00000000000E+00 0.  1.
</event>
<event>
12    1  0.9873238E-001  0.1933528E+03  0.7818608E-02  0.1156930E+00
         21   -1    0    0  503  502  0.00000000000E+00  0.00000000000E+00  0.46004878600E+03  0.46004878600E+03  0.00000000000E+00 0. -1.
         21   -1    0    0  501  503 -0.00000000000E+00 -0.00000000000E+00 -0.80299703312E+02  0.80299703312E+02  0.00000000000E+00 0. -1.
          6    2    1    2  501    0  0.89871256801E+02 -0.23875951855E+02  0.15323861469E+03  0.24671314549E+03  0.16952403738E+03 0.  0.
         24    2    3    3    0    0  0.50982787676E+02 -0.41818776059E+02  0.16613117606E+02  0.10345507617E+03  0.77967316481E+02 0.  0.
         -6    2    1    2    0  502 -0.89871256801E+02  0.23875951855E+02  0.22651046800E+03  0.29363534382E+03  0.16207349923E+03 0.  0.
        -24    2    5    5    0    0 -0.29493666315E+02  0.38383022469E+02  0.51968362869E+02  0.10831684773E+03  0.81784448374E+02 0.  0.
          5    1    3    3  501    0  0.38888469125E+02  0.17942824204E+02  0.13662549708E+03  0.14325806932E+03  0.47000000000E+01 0. -1.
        -11    1    4    4    0    0  0.88398215284E+01 -0.52721396124E+02 -0.70311055717E+01  0.53917756811E+02  0.00000000000E+00 0.  1.
         12    1    4    4    0    0  0.42142966147E+02  0.10902620065E+02  0.23644223177E+02  0.49537319363E+02  0.00000000000E+00 0. -1.
         -5    1    5    5    0  502 -0.60377590486E+02 -0.14507070614E+02  0.17454210513E+03  0.18531849609E+03  0.47000000000E+01 0.  1.
         11    1    6    6    0    0 -0.42639711937E+02  0.19596443117E+02 -0.47227444671E+01  0.47164286618E+02  0.00000000000E+00 0. -1.
        -12    1    6    6    0    0  0.13146045622E+02  0.18786579352E+02  0.56691107336E+02  0.61152561109E+02  0.00000000000E+00 0.  1.
</event>
<event>
12    1  0.9873238E-001  0.1810024E+03  0.7818608E-02  0.1167229E+00
         21   -1    0    0  503  502  0.00000000000E+00  0.00000000000E+00  0.12934084091E+03  0.12934084091E+03  0.00000000000E+00 0.  1.
         21   -1    0    0  501  503 -0.00000000000E+00 -0.00000000000E+00 -0.32784229218E+03  0.32784229218E+03  0.00000000000E+00 0.  1.
          6    2    1    2  501    0 -0.34731063637E+02  0.39126191920E+02 -0.20955549306E+03  0.27584345796E+03  0.17157797921E+03 0.  0.
         24    2    3    3    0    0 -0.52034335444E+02  0.80240688880E+02 -0.18900527532E+03  0.22650577941E+03  0.80223025307E+02 0.  0.
         -6    2    1    2    0  502  0.34731063637E+02 -0.39126191920E+02  0.11054041797E+02  0.18133967513E+03  0.17327660044E+03 0.  0.
        -24    2    5    5    0    0  0.56869154497E+02  0.31906484228E+02 -0.93895613917E+01  0.10403658943E+03  0.80519088470E+02 0.  0.
          5    1    3    3  501    0  0.17303271808E+02 -0.41114496959E+02 -0.20550217743E+02  0.49337678550E+02  0.47000000000E+01 0. -1.
        -11    1    4    4    0    0 -0.37002162200E+02  0.34503696436E+02 -0.16524752487E+03  0.17281900807E+03  0.00000000000E+00 0.  1.
         12    1    4    4    0    0 -0.15032173244E+02  0.45736992444E+02 -0.23757750453E+02  0.53686771339E+02  0.00000000000E+00 0. -1.
         -5    1    5    5    0  502 -0.22138090860E+02 -0.71032676149E+02  0.20443603189E+02  0.77303085702E+02  0.47000000000E+01 0.  1.
         11    1    6    6    0    0  0.16570123436E+02 -0.26629588965E+02 -0.10150722901E+02  0.32965757606E+02  0.00000000000E+00 0. -1.
        -12    1    6    6    0    0  0.40299031061E+02  0.58536073193E+02  0.76116150963E+00  0.71070831824E+02  0.00000000000E+00 0.  1.
</event>
<event>
12    1  0.9873238E-001  0.1781967E+03  0.7818608E-02  0.1170100E+00
         21   -1    0    0  503  502  0.00000000000E+00  0.00000000000E+00  0.26512273545E+03  0.26512273545E+03  0.00000000000E+00 0.  1.
         21   -1    0    0  501  503 -0.00000000000E+00 -0.00000000000E+00 -0.13807636722E+03  0.13807636722E+03  0.00000000000E+00 0.  1.
          6    2    1    2  501    0  0.43061030745E+02  0.10312185485E+02 -0.13097249440E+02  0.17649602216E+03  0.17034880204E+03 0.  0.
         24    2    3    3    0    0 -0.27726324592E+02  0.12745038262E+02 -0.47828287517E+02  0.97470055198E+02  0.79257059609E+02 0.  0.
         -6    2    1    2    0  502 -0.43061030745E+02 -0.10312185485E+02  0.14014361767E+03  0.22670308051E+03  0.17260782022E+03 0.  0.
        -24    2    5    5    0    0  0.26905847229E+02 -0.40855185209E+02  0.10860605030E+03  0.14396888564E+03  0.80862198195E+02 0.  0.
          5    1    3    3  501    0  0.70787355337E+02 -0.24328527766E+01  0.34731038076E+02  0.79025966961E+02  0.47000000000E+01 0. -1.
        -13    1    4    4    0    0  0.76446784288E+01  0.38523596440E+02 -0.12478431673E+02  0.41209463088E+02  0.00000000000E+00 0.  1.
         14    1    4    4    0    0 -0.35371003021E+02 -0.25778558179E+02 -0.35349855844E+02  0.56260592111E+02  0.00000000000E+00 0. -1.
         -5    1    5    5    0  502 -0.69966877974E+02  0.30542999724E+02  0.31537567367E+02  0.82734194871E+02  0.47000000000E+01 0.  1.
         11    1    6    6    0    0  0.95807152319E+01 -0.37536190403E+02  0.52211538646E+01  0.39089847045E+02  0.00000000000E+00 0. -1.
        -12    1    6    6    0    0  0.17325131997E+02 -0.33189948055E+01  0.10338489644E+03  0.10487903860E+03  0.00000000000E+00 0.  1.
</event>
<event>
12    1  0.9873238E-001  0.2311345E+03  0.7818608E-02  0.1125972E+00
         21   -1    0    0  501  502  0.00000000000E+00  0.00000000000E+00  0.50385032048E+03  0.50385032048E+03  0.00000000000E+00 0. -1.
         21   -1    0    0  502  503 -0.00000000000E+00 -0.00000000000E+00 -0.10581064487E+03  0.10581064487E+03  0.00000000000E+00 0. -1.
         -6    2    1    2    0  503 -0.15195809309E+03  0.10458230381E+02  0.18861036780E+03  0.29775748748E+03  0.17287282572E+03 0.  0.
        -24    2    3    3    0    0 -0.13147366470E+03 -0.56472203054E+01  0.21297828339E+03  0.26177300946E+03  0.76473156603E+02 0.  0.
          6    2    1    2  501    0  0.15195809309E+03 -0.10458230381E+02  0.20942930781E+03  0.31190347786E+03  0.17384621910E+03 0.  0.
         24    2    5    5    0    0  0.74663150016E+02 -0.76120428673E+02  0.11447052886E+03  0.17288803912E+03  0.73606157771E+02 0.  0.
          5    1    5    5  501    0  0.77294943076E+02  0.65662198292E+02  0.94958778945E+02  0.13901543874E+03  0.47000000000E+01 0. -1.
        -11    1    6    6    0    0  0.29188716605E+01 -0.36449605186E+02  0.71545832997E+02  0.80348613860E+02  0.00000000000E+00 0.  1.
         12    1    6    6    0    0  0.71744278355E+02 -0.39670823487E+02  0.42924695868E+02  0.92539425264E+02  0.00000000000E+00 0. -1.
         -5    1    3    3    0  503 -0.20484428395E+02  0.16105450686E+02 -0.24367915589E+02  0.35984478023E+02  0.47000000000E+01 0.  1.
         13    1    4    4    0    0 -0.17064846157E+02  0.15224908451E+02  0.88557797313E+02  0.91463054162E+02  0.00000000000E+00 0. -1.
        -14    1    4    4    0    0 -0.11440881854E+03 -0.20872128757E+02  0.12442048608E+03  0.17030995530E+03  0.00000000000E+00 0.  1.
</event>
<event>
12    1  0.9873238E-001  0.3174833E+03  0.7818608E-02  0.1076998E+00
         21   -1    0    0  503  502  0.00000000000E+00  0.00000000000E+00  0.11533573547E+03  0.11533573547E+03  0.00000000000E+00 0. -1.
         21   -1    0    0  501  503 -0.00000000000E+00 -0.00000000000E+00 -0.88544276447E+03  0.88544276447E+03  0.00000000000E+00 0. -1.
          6    2    1    2  501    0  0.14062937508E+03 -0.22523674122E+03 -0.45295834446E+03  0.55314275217E+03  0.17403284670E+03 0.  0.
         24    2    3    3    0    0 -0.89333182470E+00 -0.10379775865E+03 -0.17832488476E+03  0.22114617049E+03  0.79568156049E+02 0.  0.
         -6    2    1    2    0  502 -0.14062937508E+03  0.22523674122E+03 -0.31714868454E+03  0.44763574777E+03  0.17113229923E+03 0.  0.
        -24    2    5    5    0    0 -0.14536773980E+02  0.12405995575E+03 -0.14279527415E+03  0.20981798627E+03  0.89615325824E+02 0.  0.
          5    1    3    3  501    0  0.14152270690E+03 -0.12143898257E+03 -0.27463345971E+03  0.33199658168E+03  0.47000000000E+01 0. -1.
        -11    1    4    4    0    0 -0.72701607867E+01 -0.11199806459E+03 -0.17838871627E+03  0.21075805038E+03  0.00000000000E+00 0.  1.
         12    1    4    4    0    0  0.63768289620E+01  0.82003059321E+01  0.63831511638E-01  0.10388120112E+02  0.00000000000E+00 0. -1.
         -5    1    5    5    0  502 -0.12609260110E+03  0.10117678547E+03 -0.17435341040E+03  0.23781776150E+03  0.47000000000E+01 0.  1.
         11    1    6    6    0    0  0.76404078632E+01 -0.26925077899E+01 -0.51279995593E+02  0.51915926059E+02  0.00000000000E+00 0. -1.
        -12    1    6    6    0    0 -0.22177181843E+02  0.12675246354E+03 -0.91515278555E+02  0.15790206021E+03  0.00000000000E+00 0.  1.
</event>
<event>
12    1  0.9873238E-001  0.1755992E+03  0.7818608E-02  0.1172185E+00
         21   -1    0    0  501  502  0.00000000000E+00  0.00000000000E+00  0.17286421247E+03  0.17286421247E+03  0.00000000000E+00 0.  1.
         21   -1    0    0  502  503 -0.00000000000E+00 -0.00000000000E+00 -0.17861117882E+03  0.17861117882E+03  0.00000000000E+00 0.  1.
         -6    2    1    2    0  503 -0.15819492643E+01  0.31055172922E+02 -0.11715494725E+02  0.17598959752E+03  0.17282407034E+03 0.  0.
        -24    2    3    3    0    0  0.53545773830E+02 -0.13384371447E+02  0.20149787632E+02  0.98198690743E+02  0.78680859349E+02 0.  0.
          6    2    1    2  501    0  0.15819492643E+01 -0.31055172922E+02  0.59685283782E+01  0.17548579377E+03  0.17260566085E+03 0.  0.
         24    2    5    5    0    0  0.66822406711E+02 -0.19326187892E+02 -0.13437768817E+02  0.10625732601E+03  0.79191603868E+02 0.  0.
          5    1    5    5  501    0 -0.65240457446E+02 -0.11728985030E+02  0.19406297195E+02  0.69228467761E+02  0.47000000000E+01 0. -1.
        -11    1    6    6    0    0  0.58848080504E+02  0.77593044867E+01  0.19867742634E+02  0.62594173711E+02  0.00000000000E+00 0.  1.
         12    1    6    6    0    0  0.79743262062E+01 -0.27085492378E+02 -0.33305511451E+02  0.43663152300E+02  0.00000000000E+00 0. -1.
         -5    1    3    3    0  503 -0.55127723094E+02  0.44439544370E+02 -0.31865282357E+02  0.77790906776E+02  0.47000000000E+01 0.  1.
         11    1    4    4    0    0  0.21497937397E+02 -0.27316461006E+02  0.43863231117E+02  0.55967252909E+02  0.00000000000E+00 0. -1.
        -12    1    4    4    0    0  0.32047836433E+02  0.13932089558E+02 -0.23713443485E+02  0.42231437833E+02  0.00000000000E+00 0.  1.
</event>
<event>
12    1  0.9873238E-001  0.1815542E+03  0.7818608E-02  0.1166451E+00
         21   -1    0    0  501  502  0.00000000000E+00  0.00000000000E+00  0.19018781761E+03  0.19018781761E+03  0.00000000000E+00 0. -1.
         21   -1    0    0  502  503 -0.00000000000E+00 -0.00000000000E+00 -0.17914842825E+03  0.17914842825E+03  0.00000000000E+00 0. -1.
         -6    2    1    2    0  503  0.84214071358E+01  0.55141461133E+02  0.40458200914E+02  0.18600752476E+03  0.17277277683E+03 0.  0.
        -24    2    3    3    0    0  0.14978954291E+02 -0.16914461343E+02  0.69977456987E+02  0.10772257175E+03  0.78720009557E+02 0.  0.
          6    2    1    2  501    0 -0.84214071358E+01 -0.55141461133E+02 -0.29418811553E+02  0.18332872111E+03  0.17214079317E+03 0.  0.
         24    2    5    5    0    0  0.20289665131E+02 -0.13389133615E+02 -0.76638527486E+02  0.11390700911E+03  0.80687070950E+02 0.  0.
          5    1    5    5  501    0 -0.28711072267E+02 -0.41752327518E+02  0.47219715933E+02  0.69421711998E+02  0.47000000000E+01 0. -1.
        -13    1    6    6    0    0  0.48513424178E+02 -0.14721745183E+02 -0.28690871569E+02  0.58253310791E+02  0.00000000000E+00 0.  1.
         14    1    6    6    0    0 -0.28223759047E+02  0.13326115683E+01 -0.47947655918E+02  0.55653698317E+02  0.00000000000E+00 0. -1.
         -5    1    3    3    0  503 -0.65575471555E+01  0.72055922476E+02 -0.29519256073E+02  0.78284953009E+02  0.47000000000E+01 0.  1.
         13    1    4    4    0    0 -0.26496844386E+02 -0.11385800840E+02  0.33330621542E+01  0.29031509202E+02  0.00000000000E+00 0. -1.
        -14    1    4    4    0    0  0.41475798677E+02 -0.55286605023E+01  0.66644394833E+02  0.78691062552E+02  0.00000000000E+00 0.  1.
</event>
<event>
12    1  0.9873238E-001  0.3610456E+03  0.7818608E-02  0.1058409E+00
         21   -1    0    0  501  502  0.00000000000E+00  0.00000000000E+00  0.10051694806E+03  0.10051694806E+03  0.00000000000E+00 0.  1.
         21   -1    0    0  502  503 -0.00000000000E+00 -0.00000000000E+00 -0.13944412822E+04  0.13944412822E+04  0.00000000000E+00 0.  1.
         -6    2    1    2    0  503  0.30069334636E+03 -0.10208381765E+03 -0.85528431573E+03  0.92836694649E+03  0.17180317874E+03 0.  0.
        -24    2    3    3    0    0  0.30676329455E+03 -0.84928981421E+02 -0.84593564313E+03  0.90737598756E+03  0.80046359773E+02 0.  0.
          6    2    1    2  501    0 -0.30069334636E+03  0.10208381765E+03 -0.43864001840E+03  0.56659128377E+03  0.16668240077E+03 0.  0.
         24    2    5    5    0    0 -0.98818481673E+02  0.35631557668E+02 -0.24801959191E+03  0.28106089862E+03  0.80292032839E+02 0.  0.
          5    1    5    5  501    0 -0.20187486468E+03  0.66452259987E+02 -0.19062042649E+03  0.28553038515E+03  0.47000000000E+01 0. -1.
        -11    1    6    6    0    0 -0.75580820269E+02  0.13229744205E+02 -0.23328443953E+03  0.24557914458E+03  0.00000000000E+00 0.  1.
         12    1    6    6    0    0 -0.23237661404E+02  0.22401813463E+02 -0.14735152379E+02  0.35481754038E+02  0.00000000000E+00 0. -1.
         -5    1    3    3    0  503 -0.60699481951E+01 -0.17154836233E+02 -0.93486726016E+01  0.20990958928E+02  0.47000000000E+01 0.  1.
         13    1    4    4    0    0  0.14637687362E+03 -0.68101080217E+02 -0.50592442585E+03  0.53105882059E+03  0.00000000000E+00 0. -1.
        -14    1    4    4    0    0  0.16038642093E+03 -0.16827901204E+02 -0.34001121728E+03  0.37631716697E+03  0.00000000000E+00 0.  1.
</event>
<event>
12    1  0.9873238E-001  0.1998946E+03  0.7818608E-02  0.1150314E+00
         21   -1    0    0  503  502  0.00000000000E+00  0.00000000000E+00  0.28780984196E+02  0.28780984196E+02  0.00000000000E+00 0. -1.
         21   -1    0    0  501  503 -0.00000000000E+00 -0.00000000000E+00 -0.24869869039E+04  0.24869869039E+04  0.00000000000E+00 0. -1.
          6    2    1    2  501    0 -0.34063853600E+02 -0.90472878030E+02 -0.38315406742E+03  0.43111010847E+03  0.17234615882E+03 0.  0.
         24    2    3    3    0    0 -0.14840735401E+02 -0.12874822667E+03 -0.32244645647E+03  0.35666526570E+03  0.80262327211E+02 0.  0.
         -6    2    1    2    0  502  0.34063853600E+02  0.90472878030E+02 -0.20750518523E+04  0.20846577797E+04  0.17496336964E+03 0.  0.
        -24    2    5    5    0    0 -0.56969969675E+01  0.11702107969E+03 -0.17921743274E+04  0.17977300599E+04  0.78855308670E+02 0.  0.
          5    1    3    3  501    0 -0.19223118199E+02  0.38275348644E+02 -0.60707610949E+02  0.74444842765E+02  0.47000000000E+01 0. -1.
        -11    1    4    4    0    0 -0.38296619295E+02 -0.98331868121E+02 -0.28098076469E+03  0.30014326156E+03  0.00000000000E+00 0.  1.
         12    1    4    4    0    0  0.23455883894E+02 -0.30416358552E+02 -0.41465691785E+02  0.56522004140E+02  0.00000000000E+00 0. -1.
         -5    1    5    5    0  502  0.39760850567E+02 -0.26548201658E+02 -0.28287752495E+03  0.28692771976E+03  0.47000000000E+01 0.  1.
         13    1    6    6    0    0  0.20307228649E+02  0.16806000635E+01 -0.41074279497E+03  0.41124791984E+03  0.00000000000E+00 0. -1.
        -14    1    6    6    0    0 -0.26004225616E+02  0.11534047962E+03 -0.13814315324E+04  0.13864821400E+04  0.00000000000E+00 0.  1.
</event>
<event>
12    1  0.9873238E-001  0.4404117E+03  0.7818608E-02  0.1030833E+00
         21   -1    0    0  501  502  0.00000000000E+00  0.00000000000E+00  0.56255385723E+03  0.56255385723E+03  0.00000000000E+00 0.  1.
         21   -1    0    0  502  503 -0.00000000000E+00 -0.00000000000E+00 -0.37583139260E+03  0.37583139260E+03  0.00000000000E+00 0.  1.
         -6    2    1    2    0  503 -0.31374217280E+03 -0.25338899578E+03 -0.46372921152E+02  0.44009220768E+03  0.16997226029E+03 0.  0.
        -24    2    3    3    0    0 -0.26139793606E+03 -0.13142288074E+03 -0.49720003871E+02  0.30724287459E+03  0.79531444398E+02 0.  0.
          6    2    1    2  501    0  0.31374217280E+03  0.25338899578E+03  0.23309538578E+03  0.49829304216E+03  0.17698124990E+03 0.  0.
         24    2    5    5    0    0  0.25590626758E+03  0.11979549726E+03  0.17233013145E+03  0.34047440919E+03  0.79913516735E+02 0.  0.
          5    1    5    5  501    0  0.57835905223E+02  0.13359349852E+03  0.60765254338E+02  0.15781863297E+03  0.47000000000E+01 0. -1.
        -11    1    6    6    0    0  0.16642942752E+02  0.15184353797E+02  0.44177515613E+02  0.49590372346E+02  0.00000000000E+00 0.  1.
         12    1    6    6    0    0  0.23926332483E+03  0.10461114346E+03  0.12815261583E+03  0.29088403684E+03  0.00000000000E+00 0. -1.
         -5    1    3    3    0  503 -0.52344236746E+02 -0.12196611504E+03  0.33470827197E+01  0.13284933308E+03  0.47000000000E+01 0.  1.
         11    1    4    4    0    0 -0.11005126692E+03 -0.35134101705E+02  0.15108374697E+02  0.11650729351E+03  0.00000000000E+00 0. -1.
        -12    1    4    4    0    0 -0.15134666913E+03 -0.96288779034E+02 -0.64828378568E+02  0.19073558109E+03  0.00000000000E+00 0.  1.
</event>
<event>
12    1  0.9873238E-001  0.2288790E+03  0.7818608E-02  0.1130430E+00
         21   -1    0    0  503  502  0.00000000000E+00  0.00000000000E+00  0.29941804666E+03  0.29941804666E+03  0.00000000000E+00 0. -1.
         21   -1    0    0  501  503 -0.00000000000E+00 -0.00000000000E+00 -0.46103645873E+03  0.46103645873E+03  0.00000000000E+00 0. -1.
          6    2    1    2  501    0  0.12261281667E+03 -0.22420821305E+02 -0.38553121389E+03  0.44026308742E+03  0.17222274306E+03 0.  0.
         24    2    3    3    0    0  0.37553518273E+02 -0.67517227091E+02 -0.22969652629E+03  0.25702741972E+03  0.85637361073E+02 0.  0.
         -6    2    1    2    0  502 -0.12261281667E+03  0.22420821305E+02  0.22391280182E+03  0.32019141796E+03  0.19196094727E+03 0.  0.
        -24    2    5    5    0    0 -0.45383092246E+02  0.13937879734E+02  0.22337414028E+03  0.24235331169E+03  0.81149439850E+02 0.  0.
          5    1    3    3  501    0  0.85059298394E+02  0.45096405786E+02 -0.15583468760E+03  0.18323566770E+03  0.47000000000E+01 0. -1.
        -11    1    4    4    0    0  0.57046839753E+02 -0.53226690358E+02 -0.21504886211E+03  0.22876502265E+03  0.00000000000E+00 0.  1.
         12    1    4    4    0    0 -0.19493321480E+02 -0.14290536733E+02 -0.14647664175E+02  0.28262397072E+02  0.00000000000E+00 0. -1.
         -5    1    5    5    0  502 -0.77229724421E+02  0.84829415716E+01  0.53866154028E+00  0.77838106273E+02  0.47000000000E+01 0.  1.
         13    1    6    6    0    0  0.11549464246E+02 -0.17741759596E+02  0.10614511773E+03  0.10823560494E+03  0.00000000000E+00 0. -1.
        -14    1    6    6    0    0 -0.56932556492E+02  0.31679639330E+02  0.11722902254E+03  0.13411770675E+03  0.00000000000E+00 0.  1.
</event>
<event>
12    1  0.9873238E-001  0.2179444E+03  0.7818608E-02  0.1135624E+00
         21   -1    0    0  501  502  0.00000000000E+00  0.00000000000E+00  0.77369062204E+03  0.77369062204E+03  0.00000000000E+00 0.  1.
         21   -1    0    0  502  503 -0.00000000000E+00 -0.00000000000E+00 -0.61178891950E+02  0.61178891950E+02  0.00000000000E+00 0. -1.
         -6    2    1    2    0  503  0.10282881122E+02  0.13173060336E+03  0.34187400883E+03  0.40543508433E+03  0.17332362848E+03 0.  0.
        -24    2    3    3    0    0  0.30249908716E+02  0.11764783462E+03  0.13959828589E+03  0.20163477850E+03  0.80080163022E+02 0.  0.
          6    2    1    2  501    0 -0.10282881122E+02 -0.13173060336E+03  0.37063772127E+03  0.42943442966E+03  0.17199685884E+03 0.  0.
         24    2    5    5    0    0  0.22590522523E+02 -0.76861386780E+02  0.33974341297E+03  0.35824566735E+03  0.80600043620E+02 0.  0.
          5    1    5    5  501    0 -0.32873403645E+02 -0.54869216577E+02  0.30894308297E+02  0.71188762316E+02  0.47000000000E+01 0. -1.
        -13    1    6    6    0    0 -0.17895012394E+02 -0.58279892540E+02  0.25849375870E+03  0.26558576888E+03  0.00000000000E+00 0.  1.
         14    1    6    6    0    0  0.40485534917E+02 -0.18581494239E+02  0.81249654269E+02  0.92659898470E+02  0.00000000000E+00 0. -1.
         -5    1    3    3    0  503 -0.19967027594E+02  0.14082768740E+02  0.20227572294E+03  0.20380030583E+03  0.47000000000E+01 0.  1.
         11    1    4    4    0    0  0.56157244408E+02  0.72812018048E+02  0.10386476928E+03  0.13871956015E+03  0.00000000000E+00 0. -1.
        -12    1    4    4    0    0 -0.25907335692E+02  0.44835816569E+02  0.35733516608E+02  0.62915218344E+02  0.00000000000E+00 0.  1.
</event>
<event>
12    1  0.9873238E-001  0.2335188E+03  0.7818608E-02  0.1124265E+00
         21   -1    0    0  501  502  0.00000000000E+00  0.00000000000E+00  0.27392738834E+03  0.27392738834E+03  0.00000000000E+00 0.  1.
         21   -1    0    0  502  503 -0.00000000000E+00 -0.00000000000E+00 -0.29035387046E+03  0.29035387046E+03  0.00000000000E+00 0.  1.
         -6    2    1    2    0  503  0.12162852591E+03  0.10057144295E+03  0.15031907883E+03  0.27734030423E+03  0.17150424322E+03 0.  0.
        -24    2    3    3    0    0  0.85307947046E+02  0.13335803038E+03  0.15285641422E+03  0.22811964967E+03  0.60097263687E+02 0.  0.
          6    2    1    2  501    0 -0.12162852591E+03 -0.10057144295E+03 -0.16674556095E+03  0.28694095456E+03  0.17211309032E+03 0.  0.
         24    2    5    5    0    0 -0.93204352296E+02 -0.10744358742E+03 -0.56954433211E+02  0.17322489701E+03  0.80820057651E+02 0.  0.
          5    1    5    5  501    0 -0.28424173612E+02  0.68721444691E+01 -0.10979112774E+03  0.11371605755E+03  0.47000000000E+01 0. -1.
        -13    1    6    6    0    0 -0.26855193687E+01  0.35993530002E+01  0.13029927597E+02  0.13782103232E+02  0.00000000000E+00 0.  1.
         14    1    6    6    0    0 -0.90518832927E+02 -0.11104294042E+03 -0.69984360808E+02  0.15944279378E+03  0.00000000000E+00 0. -1.
         -5    1    3    3    0  503  0.36320578862E+02 -0.32786587435E+02 -0.25373353906E+01  0.49220654561E+02  0.47000000000E+01 0.  1.
         11    1    4    4    0    0  0.24903544961E+02  0.23905250915E+01  0.25267862991E+02  0.35557925445E+02  0.00000000000E+00 0. -1.
        -12    1    4    4    0    0  0.60404402084E+02  0.13096750529E+03  0.12758855123E+03  0.19256172423E+03  0.00000000000E+00 0.  1.
</event>
<event>
12    1  0.9873238E-001  0.1742727E+03  0.7818608E-02  0.1173499E+00
         21   -1    0    0  501  502  0.00000000000E+00  0.00000000000E+00  0.11434674181E+04  0.11434674181E+04  0.00000000000E+00 0.  1.
         21   -1    0    0  502  503 -0.00000000000E+00 -0.00000000000E+00 -0.28046618626E+02  0.28046618626E+02  0.00000000000E+00 0.  1.
         -6    2    1    2    0  503  0.13312159152E+02 -0.21488952219E+02  0.69329346805E+03  0.71482763099E+03  0.17228964138E+03 0.  0.
        -24    2    3    3    0    0 -0.24129512808E+02  0.45998734940E+02  0.34533018214E+03  0.35837706631E+03  0.80517513331E+02 0.  0.
          6    2    1    2  501    0 -0.13312159152E+02  0.21488952219E+02  0.42212733143E+03  0.45668640575E+03  0.17242969758E+03 0.  0.
         24    2    5    5    0    0 -0.45601450509E+02 -0.18543859453E+02  0.18976553122E+03  0.21865422191E+03  0.96826364736E+02 0.  0.
          5    1    5    5  501    0  0.32289291357E+02  0.40032811672E+02  0.23236180021E+03  0.23803218384E+03  0.47000000000E+01 0. -1.
        -13    1    6    6    0    0 -0.66812176890E+02  0.70577480256E+01  0.16185696682E+03  0.17524655915E+03  0.00000000000E+00 0.  1.
         14    1    6    6    0    0  0.21210726380E+02 -0.25601607479E+02  0.27908564408E+02  0.43407662762E+02  0.00000000000E+00 0. -1.
         -5    1    3    3    0  503  0.37441671960E+02 -0.67487687158E+02  0.34796328591E+03  0.35645056467E+03  0.47000000000E+01 0.  1.
         11    1    4    4    0    0 -0.17597510283E+01  0.43258688488E+02  0.71254448644E+02  0.83376299420E+02  0.00000000000E+00 0. -1.
        -12    1    4    4    0    0 -0.22369761780E+02  0.27400464520E+01  0.27407573350E+03  0.27500076689E+03  0.00000000000E+00 0.  1.
</event>
<event>
12    1  0.9873238E-001  0.1973451E+03  0.7818608E-02  0.1152114E+00
         21   -1    0    0  503  502  0.00000000000E+00  0.00000000000E+00  0.10412511928E+04  0.10412511928E+04  0.00000000000E+00 0.  1.
         21   -1    0    0  501  503 -0.00000000000E+00 -0.00000000000E+00 -0.58394339554E+02  0.58394339554E+02  0.00000000000E+00 0.  1.
          6    2    1    2  501    0  0.19027595287E+02 -0.95767389708E+02  0.82145828400E+03  0.84470515942E+03  0.17087905574E+03 0.  0.
         24    2    3    3    0    0 -0.52597383362E+02 -0.74447867230E+02  0.46130504778E+03  0.47685042836E+03  0.79214987533E+02 0.  0.
         -6    2    1    2    0  502 -0.19027595287E+02  0.95767389708E+02  0.16139856928E+03  0.25494037296E+03  0.17149826030E+03 0.  0.
        -24    2    5    5    0    0  0.25321061261E+02  0.10405281687E+03  0.63630423598E+02  0.14716211935E+03  0.78356325354E+02 0.  0.
          5    1    3    3  501    0  0.71624978649E+02 -0.21319522478E+02  0.36015323622E+03  0.36785473106E+03  0.47000000000E+01 0. -1.
        -13    1    4    4    0    0  0.52669510535E+01 -0.54753115831E+02  0.28474606199E+03  0.29001028307E+03  0.00000000000E+00 0.  1.
         14    1    4    4    0    0 -0.57864334415E+02 -0.19694751398E+02  0.17655898579E+03  0.18684014529E+03  0.00000000000E+00 0. -1.
         -5    1    5    5    0  502 -0.44348656548E+02 -0.82854271658E+01  0.97768145678E+02  0.10777825361E+03  0.47000000000E+01 0.  1.
         13    1    6    6    0    0  0.25851314531E+02  0.91884831234E+02  0.81516401832E+02  0.12552305143E+03  0.00000000000E+00 0. -1.
        -14    1    6    6    0    0 -0.53025326944E+00  0.12167985640E+02 -0.17885978234E+02  0.21639067920E+02  0.00000000000E+00 0.  1.
</event>
<event>
12    1  0.9873238E-001  0.2888874E+03  0.7818608E-02  0.1091205E+00
         21   -1    0    0  501  502  0.00000000000E+00  0.00000000000E+00  0.10827532097E+04  0.10827532097E+04  0.00000000000E+00 0. -1.
         21   -1    0    0  502  503 -0.00000000000E+00 -0.00000000000E+00 -0.41209997865E+03  0.41209997865E+03  0.00000000000E+00 0. -1.
         -6    2    1    2    0  503 -0.74041530142E+01  0.23137739914E+03  0.10100206947E+04  0.10505226073E+04  0.17281673076E+03 0.  0.
        -24    2    3    3    0    0 -0.49697651466E+02  0.19889183801E+03  0.64158307067E+03  0.67821571173E+03  0.79497769040E+02 0.  0.
          6    2    1    2  501    0  0.74041530142E+01 -0.23137739914E+03 -0.33936746357E+03  0.44433058112E+03  0.16931942499E+03 0.  0.
         24    2    5    5    0    0 -0.33476075113E+01 -0.25112646126E+03 -0.30796617198E+03  0.40542355190E+03  0.80308077597E+02 0.  0.
          5    1    5    5  501    0  0.10751760525E+02  0.19749062129E+02 -0.31401291592E+02  0.38907029224E+02  0.47000000000E+01 0. -1.
        -13    1    6    6    0    0  0.29958975586E+02 -0.20102543142E+03 -0.22977127129E+03  0.30676310307E+03  0.00000000000E+00 0.  1.
         14    1    6    6    0    0 -0.33306583098E+02 -0.50101029849E+02 -0.78194900691E+02  0.98660448831E+02  0.00000000000E+00 0. -1.
         -5    1    3    3    0  503  0.42293498452E+02  0.32485561126E+02  0.36843762399E+03  0.37230689554E+03  0.47000000000E+01 0.  1.
         13    1    4    4    0    0  0.64957527941E+01 -0.48249405088E+01  0.33324033982E+02  0.34292362067E+02  0.00000000000E+00 0. -1.
        -14    1    4    4    0    0 -0.56193404260E+02  0.20371677852E+03  0.60825903669E+03  0.64392334966E+03  0.00000000000E+00 0.  1.
</event>
<event>
12    1  0.9873238E-001  0.1899675E+03  0.7818608E-02  0.1159936E+00
         21   -1    0    0  503  502  0.00000000000E+00  0.00000000000E+00  0.35645901096E+03  0.35645901096E+03  0.00000000000E+00 0.  1.
         21   -1    0    0  501  503 -0.00000000000E+00 -0.00000000000E+00 -0.99031792465E+02  0.99031792465E+02  0.00000000000E+00 0.  1.
          6    2    1    2  501    0  0.45878062671E+02  0.68428433903E+02  0.15077407736E+03  0.23763176200E+03  0.16416085009E+03 0.  0.
         24    2    3    3    0    0  0.71776256114E+02 -0.31253034017E+01  0.66478371198E+02  0.12397213933E+03  0.76079688686E+02 0.  0.
         -6    2    1    2    0  502 -0.45878062671E+02 -0.68428433903E+02  0.10665314113E+03  0.21785904143E+03  0.17117366099E+03 0.  0.
        -24    2    5    5    0    0 -0.81342996745E+02 -0.66102294244E+02  0.31820293845E+02  0.13488183066E+03  0.78704388169E+02 0.  0.
          5    1    3    3  501    0 -0.25898193443E+02  0.71553737305E+02  0.84295706166E+02  0.11365962266E+03  0.47000000000E+01 0. -1.
        -11    1    4    4    0    0  0.17081179779E+02 -0.12333107164E+02 -0.14675137593E+02  0.25675511647E+02  0.00000000000E+00 0.  1.
         12    1    4    4    0    0  0.54695076335E+02  0.92078037627E+01  0.81153508790E+02  0.98296627686E+02  0.00000000000E+00 0. -1.
         -5    1    5    5    0  502  0.35464934074E+02 -0.23261396594E+01  0.74832847287E+02  0.82977210773E+02  0.47000000000E+01 0.  1.
         13    1    6    6    0    0 -0.23340429562E+02  0.11946345778E+02 -0.11246641803E+02  0.28530295853E+02  0.00000000000E+00 0. -1.
        -14    1    6    6    0    0 -0.58002567183E+02 -0.78048640022E+02  0.43066935647E+02  0.10635153480E+03  0.00000000000E+00 0.  1.
</event>
<event>
12    1  0.9873238E-001  0.1718343E+03  0.7818608E-02  0.1175953E+00
         21   -1    0    0  501  502  0.00000000000E+00  0.00000000000E+00  0.69112316461E+03  0.69112316461E+03  0.00000000000E+00 0.  1.
         21   -1    0    0  502  503 -0.00000000000E+00 -0.00000000000E+00 -0.43306562640E+02  0.43306562640E+02  0.00000000000E+00 0.  1.
         -6    2    1    2    0  503 -0.29698283128E+01  0.70627505641E+01  0.28115629182E+03  0.32950853975E+03  0.17166337703E+03 0.  0.
        -24    2    3    3    0    0  0.56075530196E+02  0.17876873269E+02  0.11170497339E+03  0.14967767775E+03  0.80382575541E+02 0.  0.
          6    2    1    2  501    0  0.29698283128E+01 -0.70627505641E+01  0.36666031015E+03  0.40492118750E+03  0.17164697120E+03 0.  0.
         24    2    5    5    0    0  0.59496695229E+02 -0.33875961554E+02  0.18940760128E+03  0.21689233927E+03  0.80496024095E+02 0.  0.
          5    1    5    5  501    0 -0.56526866916E+02  0.26813210990E+02  0.17725270887E+03  0.18802884824E+03  0.47000000000E+01 0. -1.
        -11    1    6    6    0    0  0.63639992289E+02 -0.54775681752E+02  0.14304592302E+03  0.16586910509E+03  0.00000000000E+00 0.  1.
         12    1    6    6    0    0 -0.41432970600E+01  0.20899720198E+02  0.46361678263E+02  0.51023234181E+02  0.00000000000E+00 0. -1.
         -5    1    3    3    0  503 -0.59045358509E+02 -0.10814122705E+02  0.16945131843E+03  0.17983086200E+03  0.47000000000E+01 0.  1.
         11    1    4    4    0    0  0.56360021552E+01 -0.28695023448E+02  0.21385335686E+02  0.36228462200E+02  0.00000000000E+00 0. -1.
        -12    1    4    4    0    0  0.50439528041E+02  0.46571896718E+02  0.90319637705E+02  0.11344921555E+03  0.00000000000E+00 0.  1.
</event>
<event>
12    1  0.9873238E-001  0.2099428E+03  0.7818608E-02  0.1145261E+00
         21   -1    0    0  501  502  0.00000000000E+00  0.00000000000E+00  0.40340676123E+03  0.40340676123E+03  0.00000000000E+00 0. -1.
         21   -1    0    0  502  503 -0.00000000000E+00 -0.00000000000E+00 -0.20623823011E+03  0.20623823011E+03  0.00000000000E+00 0. -1.
         -6    2    1    2    0  503  0.35021050899E+02  0.79381380355E+02  0.31905092946E+03  0.38192861749E+03  0.19117556254E+03 0.  0.
        -24    2    3    3    0    0  0.97742616031E+02  0.45217735841E+02  0.24762739076E+03  0.28081204506E+03  0.77057234400E+02 0.  0.
          6    2    1    2  501    0 -0.35021050899E+02 -0.79381380355E+02 -0.12188239834E+03  0.22771637386E+03  0.17167280025E+03 0.  0.
         24    2    5    5    0    0  0.44330285828E+02 -0.51644686294E+02 -0.50620300927E+02  0.11741526160E+03  0.81188551699E+02 0.  0.
          5    1    5    5  501    0 -0.79351336727E+02 -0.27736694061E+02 -0.71262097413E+02  0.11030111226E+03  0.47000000000E+01 0. -1.
        -13    1    6    6    0    0 -0.23175157127E+02 -0.22011759993E+02 -0.11599013136E+02  0.34002096870E+02  0.00000000000E+00 0.  1.
         14    1    6    6    0    0  0.67505442955E+02 -0.29632926302E+02 -0.39021287790E+02  0.83413164732E+02  0.00000000000E+00 0. -1.
         -5    1    3    3    0  503 -0.62721565131E+02  0.34163644514E+02  0.71423538703E+02  0.10111657243E+03  0.47000000000E+01 0.  1.
         11    1    4    4    0    0  0.72508186426E+00 -0.17027185179E+02  0.35937214760E+02  0.39773536221E+02  0.00000000000E+00 0. -1.
        -12    1    4    4    0    0  0.97017534166E+02  0.62244921020E+02  0.21169017600E+03  0.24103850884E+03  0.00000000000E+00 0.  1.
</event>
<event>
12    1  0.9873238E-001  0.2241978E+03  0.7818608E-02  0.1130841E+00
         21   -1    0    0  501  502  0.00000000000E+00  0.00000000000E+00  0.30173801199E+02  0.30173801199E+02  0.00000000000E+00 0.  1.
         21   -1    0    0  502  503 -0.00000000000E+00 -0.00000000000E+00 -0.16922519711E+04  0.16922519711E+04  0.00000000000E+00 0.  1.
         -6    2    1    2    0  503  0.41099096974E+02  0.13649167112E+03 -0.94312350408E+03  0.96940527667E+03  0.17304778079E+03 0.  0.
        -24    2    3    3    0    0  0.43863994919E+02  0.16797534538E+03 -0.78194235081E+03  0.80508753394E+03  0.81193168540E+02 0.  0.
          6    2    1    2  501    0 -0.41099096974E+02 -0.13649167112E+03 -0.71895466581E+03  0.75302049562E+03  0.17269899615E+03 0.  0.
         24    2    5    5    0    0  0.16960446867E+02 -0.37524617591E+02 -0.47681626135E+03  0.48503078457E+03  0.78774115064E+02 0.  0.
          5    1    5    5  501    0 -0.58059543842E+02 -0.98967053529E+02 -0.24213840446E+03  0.26798971105E+03  0.47000000000E+01 0. -1.
        -13    1    6    6    0    0 -0.28144337043E+02 -0.34306975217E+00 -0.10782316195E+03  0.11143633006E+03  0.00000000000E+00 0.  1.
         14    1    6    6    0    0  0.45104783910E+02 -0.37181547839E+02 -0.36899309941E+03  0.37359445451E+03  0.00000000000E+00 0. -1.
         -5    1    3    3    0  503 -0.27648979443E+01 -0.31483674260E+02 -0.16118115327E+03  0.16431774273E+03  0.47000000000E+01 0.  1.
         13    1    4    4    0    0  0.23562326315E+02  0.14567295927E+03 -0.73215610212E+03  0.74687907465E+03  0.00000000000E+00 0. -1.
        -14    1    4    4    0    0  0.20301668604E+02  0.22302386114E+02 -0.49786248685E+02  0.58208459287E+02  0.00000000000E+00 0.  1.
</event>
<event>
12    1  0.9873238E-001  0.2159077E+03  0.7818608E-02  0.1137474E+00
         21   -1    0    0  501  502  0.00000000000E+00  0.00000000000E+00  0.31368686009E+02  0.31368686009E+02  0.00000000000E+00 0.  1.
         21   -1    0    0  502  503 -0.00000000000E+00 -0.00000000000E+00 -0.18221435280E+04  0.18221435280E+04  0.00000000000E+00 0.  1.
         -6    2    1    2    0  503 -0.60325159259E+02  0.11049272223E+03 -0.13082633991E+04  0.13259597573E+04  0.17540920716E+03 0.  0.
        -24    2    3    3    0    0  0.35118734462E+02  0.11979635418E+02 -0.58293348234E+03  0.58775928092E+03  0.65365819084E+02 0.  0.
          6    2    1    2  501    0  0.60325159259E+02 -0.11049272223E+03 -0.48251144291E+03  0.52755245676E+03  0.17218169354E+03 0.  0.
         24    2    5    5    0    0  0.77037880849E+02 -0.13992733746E+03 -0.41287689279E+03  0.44998460126E+03  0.80649351613E+02 0.  0.
          5    1    5    5  501    0 -0.16712721589E+02  0.29434615232E+02 -0.69634550115E+02  0.77567855498E+02  0.47000000000E+01 0. -1.
        -13    1    6    6    0    0  0.10338981506E+02 -0.21665151024E+02 -0.17039650443E+03  0.17207917372E+03  0.00000000000E+00 0.  1.
         14    1    6    6    0    0  0.66698899343E+02 -0.11826218644E+03 -0.24248038837E+03  0.27790542754E+03  0.00000000000E+00 0. -1.
         -5    1    3    3    0  503 -0.95443893722E+02  0.98513086814E+02 -0.72532991675E+03  0.73820047633E+03  0.47000000000E+01 0.  1.
         11    1    4    4    0    0 -0.20645813813E+01  0.32611988347E+01 -0.43367168405E+03  0.43368886020E+03  0.00000000000E+00 0. -1.
        -12    1    4    4    0    0  0.37183315844E+02  0.87184365837E+01 -0.14926179829E+03  0.15407042072E+03  0.00000000000E+00 0.  1.
</event>
<event>
12    1  0.9873238E-001  0.2060631E+03  0.7818608E-02  0.1144808E+00
         21   -1    0    0  501  502  0.00000000000E+00  0.00000000000E+00  0.85275761336E+03  0.85275761336E+03  0.00000000000E+00 0.  1.
         21   -1    0    0  502  503 -0.00000000000E+00 -0.00000000000E+00 -0.50931788977E+02  0.50931788977E+02  0.00000000000E+00 0.  1.
         -6    2    1    2    0  503  0.10390410731E+03 -0.42138724155E+02  0.33000629874E+03  0.38883440502E+03  0.17238416903E+03 0.  0.
        -24    2    3    3    0    0  0.92631119519E+02 -0.26168571520E+02  0.34250131726E+03  0.36516287113E+03  0.82288830888E+02 0.  0.
          6    2    1    2  501    0 -0.10390410731E+03  0.42138724155E+02  0.47181952564E+03  0.51485499731E+03  0.17288802125E+03 0.  0.
         24    2    5    5    0    0  0.13650541467E+02  0.24889534668E+02  0.15501151665E+03  0.17646759425E+03  0.79412941702E+02 0.  0.
          5    1    5    5  501    0 -0.11755464877E+03  0.17249189487E+02  0.31680800899E+03  0.33838740306E+03  0.47000000000E+01 0. -1.
        -11    1    6    6    0    0  0.27561268165E+02 -0.22062871745E+02  0.68240813504E+02  0.76832300761E+02  0.00000000000E+00 0.  1.
         12    1    6    6    0    0 -0.13910726697E+02  0.46952406413E+02  0.86770703144E+02  0.99635293493E+02  0.00000000000E+00 0. -1.
         -5    1    3    3    0  503  0.11272987787E+02 -0.15970152635E+02 -0.12495018523E+02  0.23671533890E+02  0.47000000000E+01 0.  1.
         13    1    4    4    0    0 -0.12603022345E+02  0.64655974848E+01  0.66318220438E+02  0.67814058167E+02  0.00000000000E+00 0. -1.
        -14    1    4    4    0    0  0.10523414186E+03 -0.32634169005E+02  0.27618309682E+03  0.29734881297E+03  0.00000000000E+00 0.  1.
</event>
<event>
12    1  0.9873238E-001  0.1808224E+03  0.7818608E-02  0.1167220E+00
         21   -1    0    0  503  502  0.00000000000E+00  0.00000000000E+00  0.24317225524E+03  0.24317225524E+03  0.00000000000E+00 0.  1.
         21   -1    0    0  501  503 -0.00000000000E+00 -0.00000000000E+00 -0.14239551720E+03  0.14239551720E+03  0.00000000000E+00 0.  1.
          6    2    1    2  501    0  0.10728084744E+02  0.51112022254E+02  0.97836418692E+02  0.20559358365E+03  0.17311622164E+03 0.  0.
         24    2    3    3    0    0  0.33121358997E+02  0.89438310447E+02  0.99071100541E+02  0.16093960804E+03  0.83607647239E+02 0.  0.
         -6    2    1    2    0  502 -0.10728084744E+02 -0.51112022254E+02  0.29403193478E+01  0.17997418879E+03  0.17220491436E+03 0.  0.
        -24    2    5    5    0    0  0.34075949362E+02 -0.79758953055E+02  0.23313985917E+02  0.12283204667E+03  0.83794443920E+02 0.  0.
          5    1    3    3  501    0 -0.22393274253E+02 -0.38326288192E+02 -0.12346818485E+01  0.44653975609E+02  0.47000000000E+01 0. -1.
        -11    1    4    4    0    0  0.11565407188E+02  0.20317996844E+02  0.83724617214E+02  0.86927505238E+02  0.00000000000E+00 0.  1.
         12    1    4    4    0    0  0.21555951809E+02  0.69120313603E+02  0.15346483326E+02  0.74012102803E+02  0.00000000000E+00 0. -1.
         -5    1    5    5    0  502 -0.44804034106E+02  0.28646930801E+02 -0.20373666569E+02  0.57142142119E+02  0.47000000000E+01 0.  1.
         11    1    6    6    0    0  0.38890720574E+01 -0.10252677810E+02  0.43132779971E+02  0.44504819872E+02  0.00000000000E+00 0. -1.
        -12    1    6    6    0    0  0.30186877305E+02 -0.69506275245E+02 -0.19818794054E+02  0.78327226796E+02  0.00000000000E+00 0.  1.
</event>
<event>
12    1  0.9873238E-001  0.3190061E+03  0.7818608E-02  0.1076282E+00
         21   -1    0    0  501  502  0.00000000000E+00  0.00000000000E+00  0.10699274248E+03  0.10699274248E+03  0.00000000000E+00 0.  1.
         21   -1    0    0  502  503 -0.00000000000E+00 -0.00000000000E+00 -0.94798907792E+03  0.94798907792E+03  0.00000000000E+00 0.  1.
         -6    2    1    2    0  503 -0.11220544767E+03 -0.24241370863E+03 -0.43938686938E+03  0.54209288042E+03  0.17160827893E+03 0.  0.
        -24    2    3    3    0    0 -0.81116189681E+02 -0.19209942687E+03 -0.21617416524E+03  0.31112952791E+03  0.81168265886E+02 0.  0.
          6    2    1    2  501    0  0.11220544767E+03  0.24241370863E+03 -0.40160946606E+03  0.51288893999E+03  0.17438587362E+03 0.  0.
         24    2    5    5    0    0 -0.76781114086E+01  0.11003245930E+03 -0.21224225396E+03  0.25254514050E+03  0.81031957483E+02 0.  0.
          5    1    5    5  501    0  0.11988355908E+03  0.13238124933E+03 -0.18936721210E+03  0.26034379949E+03  0.47000000000E+01 0. -1.
        -11    1    6    6    0    0  0.13549148893E+01 -0.90464030526E+01 -0.15622045430E+00  0.91486396463E+01  0.00000000000E+00 0.  1.
         12    1    6    6    0    0 -0.90330262980E+01  0.11907886235E+03 -0.21208603350E+03  0.24339650086E+03  0.00000000000E+00 0. -1.
         -5    1    3    3    0  503 -0.31089257986E+02 -0.50314281755E+02 -0.22321270414E+03  0.23096335251E+03  0.47000000000E+01 0.  1.
         13    1    4    4    0    0 -0.70475680805E+02 -0.71862827760E+02 -0.75853398995E+02  0.12603501790E+03  0.00000000000E+00 0. -1.
        -14    1    4    4    0    0 -0.10640508876E+02 -0.12023659912E+03 -0.14032076624E+03  0.18509451001E+03  0.00000000000E+00 0.  1.
</event>
<event>
12    1  0.9873238E-001  0.1810668E+03  0.7818608E-02  0.1167542E+00
         21   -1    0    0  503  502  0.00000000000E+00  0.00000000000E+00  0.63903630727E+03  0.63903630727E+03  0.00000000000E+00 0.  1.
         21   -1    0    0  501  503 -0.00000000000E+00 -0.00000000000E+00 -0.53584012292E+02  0.53584012292E+02  0.00000000000E+00 0.  1.
          6    2    1    2  501    0  0.39872417302E+02  0.27812342100E+02  0.21087933453E+03  0.27794834466E+03  0.17441861292E+03 0.  0.
         24    2    3    3    0    0  0.55271308550E+02 -0.32270414626E+02  0.72129980724E+02  0.12589395739E+03  0.80933659121E+02 0.  0.
         -6    2    1    2    0  502 -0.39872417302E+02 -0.27812342100E+02  0.37457296045E+03  0.41467197491E+03  0.17112746137E+03 0.  0.
        -24    2    5    5    0    0  0.24211571694E+01  0.21367155677E+02  0.32920428959E+03  0.33537647857E+03  0.60328274876E+02 0.  0.
          5    1    3    3  501    0 -0.15398891247E+02  0.60082756726E+02  0.13874935380E+03  0.15205438727E+03  0.47000000000E+01 0. -1.
        -13    1    4    4    0    0 -0.14272061721E+02  0.30953713080E+01  0.38049530157E+02  0.40755856199E+02  0.00000000000E+00 0.  1.
         14    1    4    4    0    0  0.69543370271E+02 -0.35365785934E+02  0.34080450567E+02  0.85138101190E+02  0.00000000000E+00 0. -1.
         -5    1    5    5    0  502 -0.42293574472E+02 -0.49179497777E+02  0.45368670861E+02  0.79295496334E+02  0.47000000000E+01 0.  1.
         13    1    6    6    0    0 -0.22402131198E+01  0.34991981682E+02  0.30644289799E+03  0.30844238857E+03  0.00000000000E+00 0. -1.
        -14    1    6    6    0    0  0.46613702892E+01 -0.13624826005E+02  0.22761391598E+02  0.26934090000E+02  0.00000000000E+00 0.  1.
</event>
<event>
12    1  0.9873238E-001  0.2096158E+03  0.7818608E-02  0.1143223E+00
         21   -1    0    0  501  502  0.00000000000E+00  0.00000000000E+00  0.41174285336E+02  0.41174285336E+02  0.00000000000E+00 0.  1.
         21   -1    0    0  502  503 -0.00000000000E+00 -0.00000000000E+00 -0.10341034766E+04  0.10341034766E+04  0.00000000000E+00 0.  1.
         -6    2    1    2    0  503  0.90006453894E+02  0.79879261460E+02 -0.48967471736E+03  0.53265382006E+03  0.17163014028E+03 0.  0.
        -24    2    3    3    0    0  0.56217101499E+02  0.71653241469E+02 -0.15950347909E+03  0.20062291138E+03  0.80707144763E+02 0.  0.
          6    2    1    2  501    0 -0.90006453894E+02 -0.79879261460E+02 -0.50325447394E+03  0.54262394190E+03  0.16338243062E+03 0.  0.
         24    2    5    5    0    0 -0.95857562373E+02 -0.25854699072E+01 -0.33421234675E+03  0.35659734045E+03  0.79173313560E+02 0.  0.
          5    1    5    5  501    0  0.58511084791E+01 -0.77293791553E+02 -0.16904212719E+03  0.18602660145E+03  0.47000000000E+01 0. -1.
        -11    1    6    6    0    0  0.85606522515E+01  0.81079542947E+01 -0.89065983322E+01  0.14776710854E+02  0.00000000000E+00 0.  1.
         12    1    6    6    0    0 -0.10441821462E+03 -0.10693424202E+02 -0.32530574841E+03  0.34182062960E+03  0.00000000000E+00 0. -1.
         -5    1    3    3    0  503  0.33789352395E+02  0.82260199915E+01 -0.33017123826E+03  0.33203090868E+03  0.47000000000E+01 0.  1.
         11    1    4    4    0    0  0.32329040550E+02  0.84955243654E+02 -0.14044460064E+03  0.16729389151E+03  0.00000000000E+00 0. -1.
        -12    1    4    4    0    0  0.23888060949E+02 -0.13302002186E+02 -0.19058878455E+02  0.33329019877E+02  0.00000000000E+00 0.  1.
</event>
<event>
12    1  0.9873238E-001  0.2856466E+03  0.7818608E-02  0.1092744E+00
         21   -1    0    0  501  502  0.00000000000E+00  0.00000000000E+00  0.87666466833E+03  0.87666466833E+03  0.00000000000E+00 0.  1.
         21   -1    0    0  502  503 -0.00000000000E+00 -0.00000000000E+00 -0.18687334286E+03  0.18687334286E+03  0.00000000000E+00 0.  1.
         -6    2    1    2    0  503  0.22283109612E+03  0.48512066421E+02  0.72190702970E+03  0.77609166032E+03  0.17076705680E+03 0.  0.
        -24    2    3    3    0    0  0.60338025445E+02  0.13026614461E+02  0.41415157258E+03  0.42623636636E+03  0.79658928810E+02 0.  0.
          6    2    1    2  501    0 -0.22283109612E+03 -0.48512066421E+02 -0.32115704234E+02  0.28744635088E+03  0.17200833756E+03 0.  0.
         24    2    5    5    0    0 -0.20947258104E+03 -0.73994511504E+02  0.90536715992E+01  0.23700021684E+03  0.82055980134E+02 0.  0.
          5    1    5    5  501    0 -0.13358515082E+02  0.25482445082E+02 -0.41169375833E+02  0.50446134035E+02  0.47000000000E+01 0. -1.
        -11    1    6    6    0    0 -0.61680953521E+01  0.90725542545E+01  0.13424341198E+02  0.17336942567E+02  0.00000000000E+00 0.  1.
         12    1    6    6    0    0 -0.20330448569E+03 -0.83067065758E+02 -0.43706695991E+01  0.21966327428E+03  0.00000000000E+00 0. -1.
         -5    1    3    3    0  503  0.16249307067E+03  0.35485451961E+02  0.30775545713E+03  0.34985529396E+03  0.47000000000E+01 0.  1.
         13    1    4    4    0    0  0.21689709954E+02  0.44492699577E+02  0.17047841157E+03  0.17751882336E+03  0.00000000000E+00 0. -1.
        -14    1    4    4    0    0  0.38648315491E+02 -0.31466085117E+02  0.24367316101E+03  0.24871754300E+03  0.00000000000E+00 0.  1.
</event>
<event>
12    1  0.9873238E-001  0.8668844E+03  0.7818608E-02  0.9467984E-01
         21   -1    0    0  503  502  0.00000000000E+00  0.00000000000E+00  0.39782279279E+03  0.39782279279E+03  0.00000000000E+00 0. -1.
         21   -1    0    0  501  503 -0.00000000000E+00 -0.00000000000E+00 -0.19619652383E+04  0.19619652383E+04  0.00000000000E+00 0. -1.
          6    2    1    2  501    0  0.78198870640E+02  0.84603098533E+03 -0.10099863019E+04  0.13309999803E+04  0.17206140250E+03 0.  0.
         24    2    3    3    0    0 -0.17118289125E+02  0.39659694369E+03 -0.52205034782E+03  0.66079112933E+03  0.80784771956E+02 0.  0.
         -6    2    1    2    0  502 -0.78198870640E+02 -0.84603098533E+03 -0.55415614362E+03  0.10287880507E+04  0.17155853303E+03 0.  0.
        -24    2    5    5    0    0 -0.95287681002E+02 -0.76798640961E+03 -0.45698007688E+03  0.90289817349E+03  0.86668642144E+02 0.  0.
          5    1    3    3  501    0  0.95317159765E+02  0.44943404165E+03 -0.48793595404E+03  0.67020885102E+03  0.47000000000E+01 0. -1.
        -11    1    4    4    0    0 -0.35262357173E+01  0.12827393188E+03 -0.23412535730E+03  0.26698561547E+03  0.00000000000E+00 0.  1.
         12    1    4    4    0    0 -0.13592053407E+02  0.26832301180E+03 -0.28792499053E+03  0.39380551386E+03  0.00000000000E+00 0. -1.
         -5    1    5    5    0  502  0.17088810362E+02 -0.78044575727E+02 -0.97176066736E+02  0.12588987722E+03  0.47000000000E+01 0.  1.
         13    1    6    6    0    0 -0.47547662330E+02 -0.35858063034E+03 -0.26379135083E+03  0.44769043481E+03  0.00000000000E+00 0. -1.
        -14    1    6    6    0    0 -0.47740018673E+02 -0.40940577926E+03 -0.19318872605E+03  0.45520773868E+03  0.00000000000E+00 0.  1.
</event>
<event>
12    1  0.9873238E-001  0.1978258E+03  0.7818608E-02  0.1151736E+00
         21   -1    0    0  503  502  0.00000000000E+00  0.00000000000E+00  0.13971383866E+03  0.13971383866E+03  0.00000000000E+00 0. -1.
         21   -1    0    0  501  503 -0.00000000000E+00 -0.00000000000E+00 -0.30784077832E+03  0.30784077832E+03  0.00000000000E+00 0. -1.
          6    2    1    2  501    0 -0.49440106744E+02 -0.85768861159E+02 -0.15254862195E+03  0.24981215311E+03  0.17127290528E+03 0.  0.
         24    2    3    3    0    0 -0.87033686185E+02 -0.99586513930E+02 -0.12611807258E+03  0.20159526102E+03  0.85103141806E+02 0.  0.
         -6    2    1    2    0  502  0.49440106744E+02  0.85768861159E+02 -0.15578317706E+02  0.19774246387E+03  0.17046634957E+03 0.  0.
        -24    2    5    5    0    0 -0.63465583925E+01  0.96443764066E+02  0.24811915386E+02  0.12788857001E+03  0.79988603956E+02 0.  0.
          5    1    3    3  501    0  0.37593579441E+02  0.13817652771E+02 -0.26430549372E+02  0.48216892096E+02  0.47000000000E+01 0. -1.
        -11    1    4    4    0    0 -0.72283474508E+02 -0.34075330137E+02 -0.10345092346E+03  0.13072154519E+03  0.00000000000E+00 0.  1.
         12    1    4    4    0    0 -0.14750211678E+02 -0.65511183793E+02 -0.22667149121E+02  0.70873715832E+02  0.00000000000E+00 0. -1.
         -5    1    5    5    0  502  0.55786665137E+02 -0.10674902907E+02 -0.40390233092E+02  0.69853893867E+02  0.47000000000E+01 0.  1.
         13    1    6    6    0    0 -0.72159187775E+01 -0.13380099943E+02  0.65518062992E+01  0.16553631748E+02  0.00000000000E+00 0. -1.
        -14    1    6    6    0    0  0.86936038503E+00  0.10982386401E+03  0.18260109087E+02  0.11133493826E+03  0.00000000000E+00 0.  1.
</event>
<event>
12    1  0.9873238E-001  0.2728131E+03  0.7818608E-02  0.1099693E+00
         21   -1    0    0  501  502  0.00000000000E+00  0.00000000000E+00  0.21112649467E+03  0.21112649467E+03  0.00000000000E+00 0.  1.
         21   -1    0    0  502  503 -0.00000000000E+00 -0.00000000000E+00 -0.58963099190E+03  0.58963099190E+03  0.00000000000E+00 0.  1.
         -6    2    1    2    0  503 -0.46530489716E+02 -0.20610203552E+03  0.64687213750E+02  0.28037725207E+03  0.17257993029E+03 0.  0.
        -24    2    3    3    0    0  0.19891743923E+02 -0.44391158172E+02 -0.18445195135E+01  0.93265300279E+02  0.79553488822E+02 0.  0.
          6    2    1    2  501    0  0.46530489716E+02  0.20610203552E+03 -0.44319171097E+03  0.52038023450E+03  0.17243422010E+03 0.  0.
         24    2    5    5    0    0  0.31065628586E+01  0.28956989119E+02 -0.20288529229E+03  0.21865971854E+03  0.76167399420E+02 0.  0.
          5    1    5    5  501    0  0.43423926858E+02  0.17714504640E+03 -0.24030641868E+03  0.30172051595E+03  0.47000000000E+01 0. -1.
        -11    1    6    6    0    0  0.26620428933E+02  0.41462142506E+02 -0.16604335076E+03  0.17319974258E+03  0.00000000000E+00 0.  1.
         12    1    6    6    0    0 -0.23513866074E+02 -0.12505153387E+02 -0.36841941529E+02  0.45459975964E+02  0.00000000000E+00 0. -1.
         -5    1    3    3    0  503 -0.66422233640E+02 -0.16171087735E+03  0.66531733263E+02  0.18711195180E+03  0.47000000000E+01 0.  1.
         13    1    4    4    0    0 -0.69595673637E+01 -0.44020934924E+02  0.28378373143E+02  0.52835692024E+02  0.00000000000E+00 0. -1.
        -14    1    4    4    0    0  0.26851311287E+02 -0.37022324793E+00 -0.30222892657E+02  0.40429608255E+02  0.00000000000E+00 0.  1.
</event>
<event>
12    1  0.9873238E-001  0.2520671E+03  0.7818608E-02  0.1112120E+00
         21   -1    0    0  503  502  0.00000000000E+00  0.00000000000E+00  0.52545113027E+03  0.52545113027E+03  0.00000000000E+00 0.  1.
         21   -1    0    0  501  503 -0.00000000000E+00 -0.00000000000E+00 -0.12056994967E+03  0.12056994967E+03  0.00000000000E+00 0.  1.
          6    2    1    2  501    0 -0.13291764208E+02 -0.18334947056E+03  0.20214900306E+03  0.32254286788E+03  0.17139423220E+03 0.  0.
         24    2    3    3    0    0  0.28098857516E+02 -0.15126921808E+03  0.84022250911E+02  0.19324342573E+03  0.81310274929E+02 0.  0.
         -6    2    1    2    0  502  0.13291764208E+02  0.18334947056E+03  0.20273217754E+03  0.32347821206E+03  0.17246483269E+03 0.  0.
        -24    2    5    5    0    0  0.26747038648E+02  0.50109101532E+02  0.14787250469E+03  0.17868279067E+03  0.82673671171E+02 0.  0.
          5    1    3    3  501    0 -0.41390621723E+02 -0.32080252484E+02  0.11812675215E+03  0.12929944215E+03  0.47000000000E+01 0. -1.
        -13    1    4    4    0    0 -0.21047589175E+02 -0.79600255498E+01  0.11758670599E+02  0.25389552006E+02  0.00000000000E+00 0.  1.
         14    1    4    4    0    0  0.49146446690E+02 -0.14330919253E+03  0.72263580312E+02  0.16785387373E+03  0.00000000000E+00 0. -1.
         -5    1    5    5    0  502 -0.13455274440E+02  0.13324036903E+03  0.54859672851E+02  0.14479542139E+03  0.47000000000E+01 0.  1.
         13    1    6    6    0    0  0.20834742081E+02  0.58230587476E+02  0.47949926403E+02  0.78256522012E+02  0.00000000000E+00 0. -1.
        -14    1    6    6    0    0  0.59122965671E+01 -0.81214859440E+01  0.99922578287E+02  0.10042626866E+03  0.00000000000E+00 0.  1.
</event>
<event>
12    1  0.9873238E-001  0.1843338E+03  0.7818608E-02  0.1163903E+00
         21   -1    0    0  501  502  0.00000000000E+00  0.00000000000E+00  0.20602601685E+03  0.20602601685E+03  0.00000000000E+00 0.  1.
         21   -1    0    0  502  503 -0.00000000000E+00 -0.00000000000E+00 -0.16494190594E+03  0.16494190594E+03  0.00000000000E+00 0.  1.
         -6    2    1    2    0  503 -0.14937177802E+02 -0.66223699540E+02  0.34214995592E+02  0.18748232521E+03  0.17137753261E+03 0.  0.
        -24    2    3    3    0    0 -0.60722674373E+02 -0.65005090512E+02 -0.15451847987E+02  0.11975727774E+03  0.78677449056E+02 0.  0.
          6    2    1    2  501    0  0.14937177802E+02  0.66223699540E+02  0.68691153235E+01  0.18348559758E+03  0.17032639875E+03 0.  0.
         24    2    5    5    0    0 -0.12698901589E+02  0.67136216844E+02 -0.51241999617E+02  0.11895981009E+03  0.82807971700E+02 0.  0.
          5    1    5    5  501    0  0.27636079391E+02 -0.91251730373E+00  0.58111114941E+02  0.64525787493E+02  0.47000000000E+01 0. -1.
        -11    1    6    6    0    0  0.18665878840E+02 -0.51474585549E+01  0.74097290712E+01  0.20731990916E+02  0.00000000000E+00 0.  1.
         12    1    6    6    0    0 -0.31364780429E+02  0.72283675399E+02 -0.58651728689E+02  0.98227819169E+02  0.00000000000E+00 0. -1.
         -5    1    3    3    0  503  0.45785496572E+02 -0.12186090284E+01  0.49666843579E+02  0.67725047474E+02  0.47000000000E+01 0.  1.
         11    1    4    4    0    0 -0.43185352565E+02 -0.82914006636E+02 -0.15038308836E+02  0.94688214183E+02  0.00000000000E+00 0. -1.
        -12    1    4    4    0    0 -0.17537321809E+02  0.17908916124E+02 -0.41353915111E+00  0.25069063556E+02  0.00000000000E+00 0.  1.
</event>
<event>
12    1  0.9873238E-001  0.2010371E+03  0.7818608E-02  0.1149495E+00
         21   -1    0    0  501  502  0.00000000000E+00  0.00000000000E+00  0.43793173571E+02  0.43793173571E+02  0.00000000000E+00 0.  1.
         21   -1    0    0  502  503 -0.00000000000E+00 -0.00000000000E+00 -0.93953461282E+03  0.93953461282E+03  0.00000000000E+00 0.  1.
         -6    2    1    2    0  503  0.58516488332E+02 -0.84934471324E+02 -0.53932010257E+03  0.57557110406E+03  0.17256268128E+03 0.  0.
        -24    2    3    3    0    0  0.42949017338E+02 -0.12641442617E+03 -0.38480364947E+03  0.41475954638E+03  0.78271370445E+02 0.  0.
          6    2    1    2  501    0 -0.58516488332E+02  0.84934471324E+02 -0.35642133668E+03  0.40775668233E+03  0.16908961801E+03 0.  0.
         24    2    5    5    0    0 -0.13119143699E+02  0.96091578963E+02 -0.14981769069E+03  0.19587804611E+03  0.80728960259E+02 0.  0.
          5    1    5    5  501    0 -0.45397344633E+02 -0.11157107639E+02 -0.20660364599E+03  0.21187863623E+03  0.47000000000E+01 0. -1.
        -11    1    6    6    0    0  0.22567885212E+02  0.12766165007E+02 -0.72315771459E+01  0.26918025929E+02  0.00000000000E+00 0.  1.
         12    1    6    6    0    0 -0.35687028910E+02  0.83325413956E+02 -0.14258611354E+03  0.16896002018E+03  0.00000000000E+00 0. -1.
         -5    1    3    3    0  503  0.15567470994E+02  0.41479954843E+02 -0.15451645310E+03  0.16081155768E+03  0.47000000000E+01 0.  1.
         11    1    4    4    0    0  0.64785649771E+02 -0.84097619979E+02 -0.28635019244E+03  0.30539486376E+03  0.00000000000E+00 0. -1.
        -12    1    4    4    0    0 -0.21836632433E+02 -0.42316806187E+02 -0.98453457035E+02  0.10936468262E+03  0.00000000000E+00 0.  1.
</event>
<event>
12    1  0.9873238E-001  0.2316854E+03  0.7818608E-02  0.1126256E+00
         21   -1    0    0  503  502  0.00000000000E+00  0.00000000000E+00  0.77569619210E+02  0.77569619210E+02  0.00000000000E+00 0. -1.
         21   -1    0    0  501  503 -0.00000000000E+00 -0.00000000000E+00 -0.10798502664E+04  0.10798502664E+04  0.00000000000E+00 0. -1.
          6    2    1    2  501    0 -0.14128917839E+03 -0.55881825930E+02 -0.15146852667E+03  0.27680465563E+03  0.17490766823E+03 0.  0.
         24    2    3    3    0    0 -0.10487237925E+03 -0.81479424080E+02 -0.16846516273E+03  0.22892568395E+03  0.79933380018E+02 0.  0.
         -6    2    1    2    0  502  0.14128917839E+03  0.55881825930E+02 -0.85081212049E+03  0.88061522995E+03  0.16886831688E+03 0.  0.
        -24    2    5    5    0    0  0.34526979859E+02  0.72017232313E+02 -0.31725566503E+03  0.33622281676E+03  0.77563080315E+02 0.  0.
          5    1    3    3  501    0 -0.36416799146E+02  0.25597598150E+02  0.16996636067E+02  0.47878971675E+02  0.47000000000E+01 0. -1.
        -11    1    4    4    0    0 -0.11347660084E+03 -0.86362742718E+02 -0.16578003446E+03  0.21867437457E+03  0.00000000000E+00 0.  1.
         12    1    4    4    0    0  0.86042215946E+01  0.48833186381E+01 -0.26851282703E+01  0.10251309380E+02  0.00000000000E+00 0. -1.
         -5    1    5    5    0  502  0.10676219853E+03 -0.16135406383E+02 -0.53355645546E+03  0.54439241319E+03  0.47000000000E+01 0.  1.
         13    1    6    6    0    0  0.55015777247E+02  0.26184839864E+02 -0.16390128294E+03  0.17485997865E+03  0.00000000000E+00 0. -1.
        -14    1    6    6    0    0 -0.20488797388E+02  0.45832392449E+02 -0.15335438209E+03  0.16136283810E+03  0.00000000000E+00 0.  1.
</event>
<event>
12    1  0.9873238E-001  0.1989394E+03  0.7818608E-02  0.1150820E+00
         21   -1    0    0  501  502  0.00000000000E+00  0.00000000000E+00  0.64101294157E+02  0.64101294157E+02  0.00000000000E+00 0.  1.
         21   -1    0    0  502  503 -0.00000000000E+00 -0.00000000000E+00 -0.63113734711E+03  0.63113734711E+03  0.00000000000E+00 0.  1.
         -6    2    1    2    0  503 -0.52080088677E+02 -0.85148275935E+02 -0.22809119057E+03  0.30265901771E+03  0.17208813223E+03 0.  0.
        -24    2    3    3    0    0  0.10813387012E+02 -0.87362280445E+02 -0.20235488899E+03  0.23450523338E+03  0.79348005635E+02 0.  0.
          6    2    1    2  501    0  0.52080088677E+02  0.85148275935E+02 -0.33894486238E+03  0.39257962355E+03  0.17109230422E+03 0.  0.
         24    2    5    5    0    0 -0.14134153863E+02  0.48132630986E+02 -0.79761558370E+02  0.12248230968E+03  0.78252702950E+02 0.  0.
          5    1    5    5  501    0  0.66214242541E+02  0.37015644949E+02 -0.25918330401E+03  0.27009731388E+03  0.47000000000E+01 0. -1.
        -13    1    6    6    0    0 -0.42560977897E+02  0.43314364432E+02 -0.68467156021E+02  0.91516787855E+02  0.00000000000E+00 0.  1.
         14    1    6    6    0    0  0.28426824034E+02  0.48182665538E+01 -0.11294402349E+02  0.30965521821E+02  0.00000000000E+00 0. -1.
         -5    1    3    3    0  503 -0.62893475689E+02  0.22140045100E+01 -0.25736301578E+02  0.68153784334E+02  0.47000000000E+01 0.  1.
         13    1    4    4    0    0 -0.11545779075E+02 -0.66043133910E+02 -0.63806294551E+02  0.92554004642E+02  0.00000000000E+00 0. -1.
        -14    1    4    4    0    0  0.22359166087E+02 -0.21319146535E+02 -0.13854859444E+03  0.14195122873E+03  0.00000000000E+00 0.  1.
</event>
<event>
12    1  0.9873238E-001  0.2804720E+03  0.7818608E-02  0.1095718E+00
         21   -1    0    0  501  502  0.00000000000E+00  0.00000000000E+00  0.31201680397E+03  0.31201680397E+03  0.00000000000E+00 0. -1.
         21   -1    0    0  502  503 -0.00000000000E+00 -0.00000000000E+00 -0.60650142908E+03  0.60650142908E+03  0.00000000000E+00 0. -1.
         -6    2    1    2    0  503 -0.21751314790E+03 -0.21613236625E+02 -0.49945827802E+03  0.57282029689E+03  0.17574248078E+03 0.  0.
        -24    2    3    3    0    0 -0.81156680612E+02  0.51454818089E+02 -0.22461495126E+03  0.25739523281E+03  0.81033477228E+02 0.  0.
          6    2    1    2  501    0  0.21751314790E+03  0.21613236625E+02  0.20497365290E+03  0.34569793616E+03  0.17237680579E+03 0.  0.
         24    2    5    5    0    0  0.11576023087E+03  0.52591938083E+02  0.50432465463E+02  0.15803226353E+03  0.79148087414E+02 0.  0.
          5    1    5    5  501    0  0.10175291702E+03 -0.30978701459E+02  0.15454118744E+03  0.18766567262E+03  0.47000000000E+01 0. -1.
        -11    1    6    6    0    0  0.81020988004E+02  0.25384837022E+01  0.53338873046E+02  0.97035456274E+02  0.00000000000E+00 0.  1.
         12    1    6    6    0    0  0.34739242868E+02  0.50053454381E+02 -0.29064075826E+01  0.60996807257E+02  0.00000000000E+00 0. -1.
         -5    1    3    3    0  503 -0.13635646728E+03 -0.73068054714E+02 -0.27484332676E+03  0.31542506409E+03  0.47000000000E+01 0.  1.
         13    1    4    4    0    0  0.11104794103E+02 -0.11402201641E+00 -0.65101937659E+02  0.66042348081E+02  0.00000000000E+00 0. -1.
        -14    1    4    4    0    0 -0.92261474714E+02  0.51568840106E+02 -0.15951301360E+03  0.19135288473E+03  0.00000000000E+00 0.  1.
</event>
<event>
12    1  0.9873238E-001  0.1774180E+03  0.7818608E-02  0.1170768E+00
         21   -1    0    0  501  502  0.00000000000E+00  0.00000000000E+00  0.10682428402E+03  0.10682428402E+03  0.00000000000E+00 0. -1.
         21   -1    0    0  502  503 -0.00000000000E+00 -0.00000000000E+00 -0.31480087122E+03  0.31480087122E+03  0.00000000000E+00 0. -1.
         -6    2    1    2    0  503  0.21490409256E+02 -0.30425971196E+02 -0.16059924818E+03  0.23799032906E+03  0.17163828477E+03 0.  0.
        -24    2    3    3    0    0 -0.13351948432E+02 -0.41510705412E+02 -0.25884294671E+02  0.98322616546E+02  0.84237325593E+02 0.  0.
          6    2    1    2  501    0 -0.21490409256E+02  0.30425971196E+02 -0.47377339028E+02  0.18363482618E+03  0.17346342473E+03 0.  0.
         24    2    5    5    0    0  0.52059487752E+02  0.35815316590E+02 -0.39210378255E+02  0.10928819450E+03  0.80084508651E+02 0.  0.
          5    1    5    5  501    0 -0.73549897009E+02 -0.53893453934E+01 -0.81669607727E+01  0.74346631679E+02  0.47000000000E+01 0. -1.
        -11    1    6    6    0    0  0.44088102059E+02  0.53573687978E+02 -0.45443053743E+01  0.69530939143E+02  0.00000000000E+00 0.  1.
         12    1    6    6    0    0  0.79713856938E+01 -0.17758371389E+02 -0.34666072881E+02  0.39757255353E+02  0.00000000000E+00 0. -1.
         -5    1    3    3    0  503  0.34842357689E+02  0.11084734216E+02 -0.13471495351E+03  0.13966771252E+03  0.47000000000E+01 0.  1.
         13    1    4    4    0    0  0.16914804887E+02 -0.55435150915E+02 -0.29096555411E+02  0.64851955392E+02  0.00000000000E+00 0. -1.
        -14    1    4    4    0    0 -0.30266753320E+02  0.13924445503E+02  0.32122607397E+01  0.33470661155E+02  0.00000000000E+00 0.  1.
</event>
<event>
12    1  0.9873238E-001  0.4231975E+03  0.7818608E-02  0.1036308E+00
         21   -1    0    0  501  502  0.00000000000E+00  0.00000000000E+00  0.93583900467E+02  0.93583900467E+02  0.00000000000E+00 0. -1.
         21   -1    0    0  502  503 -0.00000000000E+00 -0.00000000000E+00 -0.20947633374E+04  0.20947633374E+04  0.00000000000E+00 0.  1.
         -6    2    1    2    0  503  0.37954777188E+03  0.48695725441E+02 -0.13393904314E+04  0.14046575430E+04  0.18074374212E+03 0.  0.
        -24    2    3    3    0    0  0.12155162499E+03 -0.62750587524E+01 -0.65620704254E+03  0.67230146030E+03  0.81039477676E+02 0.  0.
          6    2    1    2  501    0 -0.37954777188E+03 -0.48695725441E+02 -0.66178900544E+03  0.78368969487E+03  0.17256032365E+03 0.  0.
         24    2    5    5    0    0 -0.89728444824E+02  0.99157794863E+01 -0.14083212140E+03  0.18464986658E+03  0.78181649482E+02 0.  0.
          5    1    5    5  501    0 -0.28981932706E+03 -0.58611504928E+02 -0.52095688404E+03  0.59903982829E+03  0.47000000000E+01 0. -1.
        -11    1    6    6    0    0 -0.69027301645E+02 -0.11736818151E+02 -0.13776497742E+03  0.15453708382E+03  0.00000000000E+00 0.  1.
         12    1    6    6    0    0 -0.20701143180E+02  0.21652597637E+02 -0.30671439862E+01  0.30112782761E+02  0.00000000000E+00 0. -1.
         -5    1    3    3    0  503  0.25799614689E+03  0.54970784194E+02 -0.68318338891E+03  0.73235608266E+03  0.47000000000E+01 0.  1.
         13    1    4    4    0    0  0.63099553574E+02  0.46155029124E+01 -0.15258637571E+03  0.16518310622E+03  0.00000000000E+00 0. -1.
        -14    1    4    4    0    0  0.58452071421E+02 -0.10890561665E+02 -0.50362066682E+03  0.50711835407E+03  0.00000000000E+00 0.  1.
</event>
<event>
12    1  0.9873238E-001  0.1865009E+03  0.7818608E-02  0.1161791E+00
         21   -1    0    0  503  502  0.00000000000E+00  0.00000000000E+00  0.34917919675E+03  0.34917919675E+03  0.00000000000E+00 0. -1.
         21   -1    0    0  501  503 -0.00000000000E+00 -0.00000000000E+00 -0.20263223266E+03  0.20263223266E+03  0.00000000000E+00 0. -1.
          6    2    1    2  501    0  0.59742846658E+02  0.39083004578E+02 -0.12380824970E+03  0.22336887845E+03  0.17166386979E+03 0.  0.
         24    2    3    3    0    0  0.86835581670E+02  0.60983756440E+02 -0.13236968671E+03  0.18718811800E+03  0.79108917125E+02 0.  0.
         -6    2    1    2    0  502 -0.59742846658E+02 -0.39083004578E+02  0.27035521379E+03  0.32844255097E+03  0.17229590445E+03 0.  0.
        -24    2    5    5    0    0  0.42337398727E+01 -0.57571144554E+02  0.23086707234E+03  0.25087826628E+03  0.79422529311E+02 0.  0.
          5    1    3    3  501    0 -0.27092735012E+02 -0.21900751862E+02  0.85614370060E+01  0.36180760442E+02  0.47000000000E+01 0. -1.
        -11    1    4    4    0    0  0.11407706622E+02 -0.16722477074E+02 -0.40085035752E+02  0.44906426056E+02  0.00000000000E+00 0.  1.
         12    1    4    4    0    0  0.75427875048E+02  0.77706233514E+02 -0.92284650958E+02  0.14228169195E+03  0.00000000000E+00 0. -1.
         -5    1    5    5    0  502 -0.63976586531E+02  0.18488139976E+02  0.39488141447E+02  0.77564284686E+02  0.47000000000E+01 0.  1.
         11    1    6    6    0    0  0.19759542159E+02  0.73330526367E+01  0.17744164583E+02  0.27551198596E+02  0.00000000000E+00 0. -1.
        -12    1    6    6    0    0 -0.15525802287E+02 -0.64904197191E+02  0.21312290776E+03  0.22332706768E+03  0.00000000000E+00 0.  1.
</event>
<event>
12    1  0.9873238E-001  0.2086760E+03  0.7818608E-02  0.1142684E+00
         21   -1    0    0  501  502  0.00000000000E+00  0.00000000000E+00  0.14668403683E+03  0.14668403683E+03  0.00000000000E+00 0. -1.
         21   -1    0    0  502  503 -0.00000000000E+00 -0.00000000000E+00 -0.43734345731E+03  0.43734345731E+03  0.00000000000E+00 0. -1.
         -6    2    1    2    0  503 -0.11027413104E+03  0.40731540756E+02 -0.31102488685E+03  0.37436004445E+03  0.17201604648E+03 0.  0.
        -24    2    3    3    0    0  0.72101310277E+01  0.71132371261E+01 -0.16607478884E+03  0.18471468308E+03  0.80225273609E+02 0.  0.
          6    2    1    2  501    0  0.11027413104E+03 -0.40731540756E+02  0.20365466374E+02  0.20966744969E+03  0.17241300662E+03 0.  0.
         24    2    5    5    0    0  0.26868551089E+02  0.38715061312E+02  0.14791900233E+02  0.94249045672E+02  0.80270214199E+02 0.  0.
          5    1    5    5  501    0  0.83405579953E+02 -0.79446602068E+02  0.55735661413E+01  0.11541840402E+03  0.47000000000E+01 0. -1.
        -11    1    6    6    0    0  0.45201739517E+02  0.43605379080E+02  0.30309659990E+02  0.69737377559E+02  0.00000000000E+00 0.  1.
         12    1    6    6    0    0 -0.18333188428E+02 -0.48903177680E+01 -0.15517759757E+02  0.24511668113E+02  0.00000000000E+00 0. -1.
         -5    1    3    3    0  503 -0.11748426207E+03  0.33618303630E+02 -0.14495009801E+03  0.18964536136E+03  0.47000000000E+01 0.  1.
         11    1    4    4    0    0 -0.93387913850E+01  0.20453753256E+02 -0.16138915808E+03  0.16294793461E+03  0.00000000000E+00 0. -1.
        -12    1    4    4    0    0  0.16548922413E+02 -0.13340516130E+02 -0.46856307640E+01  0.21766748478E+02  0.00000000000E+00 0.  1.
</event>
<event>
12    1  0.9873238E-001  0.3408001E+03  0.7818608E-02  0.1066484E+00
         21   -1    0    0  501  502  0.00000000000E+00  0.00000000000E+00  0.10011263709E+03  0.10011263709E+03  0.00000000000E+00 0. -1.
         21   -1    0    0  502  503 -0.00000000000E+00 -0.00000000000E+00 -0.11685574911E+04  0.11685574911E+04  0.00000000000E+00 0. -1.
         -6    2    1    2    0  503 -0.24307910166E+03  0.16516188879E+03 -0.47734846183E+03  0.58636545166E+03  0.17203775665E+03 0.  0.
        -24    2    3    3    0    0 -0.16044844753E+03  0.30855880797E+02 -0.29193007477E+03  0.34291525748E+03  0.75312120961E+02 0.  0.
          6    2    1    2  501    0  0.24307910166E+03 -0.16516188879E+03 -0.59109639221E+03  0.68230467657E+03  0.17256542995E+03 0.  0.
         24    2    5    5    0    0  0.23072818919E+03 -0.11820571957E+03 -0.38652061650E+03  0.47199356209E+03  0.78559825905E+02 0.  0.
          5    1    5    5  501    0  0.12350912464E+02 -0.46956169215E+02 -0.20457577572E+03  0.21031111448E+03  0.47000000000E+01 0. -1.
        -13    1    6    6    0    0  0.42598655670E+01 -0.15461557557E+02 -0.56701108141E+02  0.58925562205E+02  0.00000000000E+00 0.  1.
         14    1    6    6    0    0  0.22646832363E+03 -0.10274416201E+03 -0.32981950835E+03  0.41306799988E+03  0.00000000000E+00 0. -1.
         -5    1    3    3    0  503 -0.82630654132E+02  0.13430600799E+03 -0.18541838706E+03  0.24345019417E+03  0.47000000000E+01 0.  1.
         13    1    4    4    0    0 -0.12636380408E+03  0.32098162956E+02 -0.15869109098E+03  0.20538005113E+03  0.00000000000E+00 0. -1.
        -14    1    4    4    0    0 -0.34084643450E+02 -0.12422821589E+01 -0.13323898379E+03  0.13753520635E+03  0.00000000000E+00 0.  1.
</event>
<event>
12    1  0.9873238E-001  0.2055613E+03  0.7818608E-02  0.1145742E+00
         21   -1    0    0  501  502  0.00000000000E+00  0.00000000000E+00  0.98836538293E+03  0.98836538293E+03  0.00000000000E+00 0. -1.
         21   -1    0    0  502  503 -0.00000000000E+00 -0.00000000000E+00 -0.47473757496E+02  0.47473757496E+02  0.00000000000E+00 0. -1.
         -6    2    1    2    0  503  0.75344771422E+02  0.82199517706E+02  0.29371693418E+03  0.35680267178E+03  0.16912987280E+03 0.  0.
        -24    2    3    3    0    0  0.13039913460E+02  0.23763533086E+01  0.21041252987E+03  0.22559540568E+03  0.80275574978E+02 0.  0.
          6    2    1    2  501    0 -0.75344771422E+02 -0.82199517706E+02  0.64717469126E+03  0.67903646865E+03  0.17269003869E+03 0.  0.
         24    2    5    5    0    0 -0.58573040887E+02 -0.11169120330E+03  0.36345078224E+03  0.39325263949E+03  0.81519576404E+02 0.  0.
          5    1    5    5  501    0 -0.16771730535E+02  0.29491685598E+02  0.28372390901E+03  0.28578382916E+03  0.47000000000E+01 0. -1.
        -11    1    6    6    0    0 -0.44087721286E+02 -0.81277788563E+01  0.12802547428E+03  0.13564774241E+03  0.00000000000E+00 0.  1.
         12    1    6    6    0    0 -0.14485319602E+02 -0.10356342445E+03  0.23542530796E+03  0.25760489708E+03  0.00000000000E+00 0. -1.
         -5    1    3    3    0  503  0.62304857962E+02  0.79823164397E+02  0.83304404305E+02  0.13120726610E+03  0.47000000000E+01 0.  1.
         11    1    4    4    0    0 -0.31971508039E+02  0.79615078778E+01  0.12003965592E+03  0.12447924296E+03  0.00000000000E+00 0. -1.
        -12    1    4    4    0    0  0.45011421499E+02 -0.55851545692E+01  0.90372873952E+02  0.10111616272E+03  0.00000000000E+00 0.  1.
</event>
<event>
12    1  0.9873238E-001  0.2028316E+03  0.7818608E-02  0.1147486E+00
         21   -1    0    0  501  502  0.00000000000E+00  0.00000000000E+00  0.24034169195E+03  0.24034169195E+03  0.00000000000E+00 0. -1.
         21   -1    0    0  502  503 -0.00000000000E+00 -0.00000000000E+00 -0.22007751716E+03  0.22007751716E+03  0.00000000000E+00 0. -1.
         -6    2    1    2    0  503 -0.10456347108E+03 -0.27927425187E+02  0.11917335946E+03  0.23525081195E+03  0.17154356402E+03 0.  0.
        -24    2    3    3    0    0 -0.93087086366E+02 -0.55668555701E+02  0.25321780283E+02  0.13660251423E+03  0.79087676639E+02 0.  0.
          6    2    1    2  501    0  0.10456347108E+03  0.27927425187E+02 -0.98909184667E+02  0.22516839716E+03  0.17089271403E+03 0.  0.
         24    2    5    5    0    0  0.85181653426E+02  0.93527494699E+01 -0.13617288834E+03  0.17900188284E+03  0.78455277315E+02 0.  0.
          5    1    5    5  501    0  0.19381817651E+02  0.18574675717E+02  0.37263703670E+02  0.46166514322E+02  0.47000000000E+01 0. -1.
        -11    1    6    6    0    0 -0.15107300769E+00 -0.22886762579E+02 -0.15133697445E+02  0.27438212820E+02  0.00000000000E+00 0.  1.
         12    1    6    6    0    0  0.85332726434E+02  0.32239512048E+02 -0.12103919089E+03  0.15156367002E+03  0.00000000000E+00 0. -1.
         -5    1    3    3    0  503 -0.11476384711E+02  0.27741130515E+02  0.93851579175E+02  0.98648297714E+02  0.47000000000E+01 0.  1.
         11    1    4    4    0    0 -0.20238537412E+02 -0.57917577025E+02  0.11596416572E+02  0.62438137403E+02  0.00000000000E+00 0. -1.
        -12    1    4    4    0    0 -0.72848548954E+02  0.22490213237E+01  0.13725363711E+02  0.74164376830E+02  0.00000000000E+00 0.  1.
</event>
<event>
12    1  0.9873238E-001  0.2186431E+03  0.7818608E-02  0.1135457E+00
         21   -1    0    0  503  502  0.00000000000E+00  0.00000000000E+00  0.58184085295E+03  0.58184085295E+03  0.00000000000E+00 0. -1.
         21   -1    0    0  501  503 -0.00000000000E+00 -0.00000000000E+00 -0.14190510473E+03  0.14190510473E+03  0.00000000000E+00 0. -1.
          6    2    1    2  501    0  0.13064578481E+03  0.11450536645E+02  0.45607599295E+03  0.50450797363E+03  0.17124119899E+03 0.  0.
         24    2    3    3    0    0  0.69338211578E+02 -0.30898113303E+02  0.39149001436E+03  0.40578885026E+03  0.75084476841E+02 0.  0.
         -6    2    1    2    0  502 -0.13064578481E+03 -0.11450536645E+02 -0.16140244730E+02  0.21923798406E+03  0.17494384892E+03 0.  0.
        -24    2    5    5    0    0 -0.96417502654E+02 -0.72581051463E+02  0.79300106450E+01  0.14500872881E+03  0.80001890680E+02 0.  0.
          5    1    3    3  501    0  0.61307573234E+02  0.42348649948E+02  0.64585978593E+02  0.98719123370E+02  0.47000000000E+01 0. -1.
        -11    1    4    4    0    0  0.79101192530E+02 -0.52089633149E+01  0.29386568104E+03  0.30437012082E+03  0.00000000000E+00 0.  1.
         12    1    4    4    0    0 -0.97629809521E+01 -0.25689149988E+02  0.97624333318E+02  0.10141872943E+03  0.00000000000E+00 0. -1.
         -5    1    5    5    0  502 -0.34228282157E+02  0.61130514818E+02 -0.24070255375E+02  0.74229255251E+02  0.47000000000E+01 0.  1.
         13    1    6    6    0    0 -0.97921574795E+02 -0.81493663035E+02 -0.69640299831E+01  0.12758663582E+03  0.00000000000E+00 0. -1.
        -14    1    6    6    0    0  0.15040721406E+01  0.89126115720E+01  0.14894040628E+02  0.17422092993E+02  0.00000000000E+00 0.  1.
</event>
<event>
12    1  0.9873238E-001  0.2462909E+03  0.7818608E-02  0.1115805E+00
         21   -1    0    0  501  502  0.00000000000E+00  0.00000000000E+00  0.13041530316E+03  0.13041530316E+03  0.00000000000E+00 0. -1.
         21   -1    0    0  502  503 -0.00000000000E+00 -0.00000000000E+00 -0.13682879881E+04  0.13682879881E+04  0.00000000000E+00 0. -1.
         -6    2    1    2    0  503  0.14835021381E+03  0.94250451655E+02 -0.12286250906E+04  0.12530677679E+04  0.17253487786E+03 0.  0.
        -24    2    3    3    0    0  0.99642666125E+02  0.12631017421E+03 -0.76565257060E+03  0.78641383263E+03  0.79623716716E+02 0.  0.
          6    2    1    2  501    0 -0.14835021381E+03 -0.94250451655E+02 -0.92475943614E+01  0.24563552341E+03  0.17134864687E+03 0.  0.
         24    2    5    5    0    0 -0.10168557076E+03  0.28900634911E+01 -0.38771539868E+02  0.13379804332E+03  0.77784165004E+02 0.  0.
          5    1    5    5  501    0 -0.46664643049E+02 -0.97140515146E+02  0.29523945507E+02  0.11183748009E+03  0.47000000000E+01 0. -1.
        -11    1    6    6    0    0 -0.34110333554E+02 -0.26672773907E+02  0.11174713673E+02  0.44719413555E+02  0.00000000000E+00 0.  1.
         12    1    6    6    0    0 -0.67575237204E+02  0.29562837398E+02 -0.49946253541E+02  0.89078629766E+02  0.00000000000E+00 0. -1.
         -5    1    3    3    0  503  0.48707547682E+02 -0.32059722554E+02 -0.46297252001E+03  0.46665393526E+03  0.47000000000E+01 0.  1.
         13    1    4    4    0    0  0.50274136665E+02  0.57619234891E+02 -0.19383917549E+03  0.20837728043E+03  0.00000000000E+00 0. -1.
        -14    1    4    4    0    0  0.49368529459E+02  0.68690939317E+02 -0.57181339512E+03  0.57803655220E+03  0.00000000000E+00 0.  1.
</event>
<event>
12    1  0.9873238E-001  0.1979096E+03  0.7818608E-02  0.1151645E+00
         21   -1    0    0  503  502  0.00000000000E+00  0.00000000000E+00  0.42866143675E+02  0.42866143675E+02  0.00000000000E+00 0.  1.
         21   -1    0    0  501  503 -0.00000000000E+00 -0.00000000000E+00 -0.10924459775E+04  0.10924459775E+04  0.00000000000E+00 0.  1.
          6    2    1    2  501    0 -0.77855897837E+02 -0.58011254529E+02 -0.29407334667E+03  0.35446771254E+03  0.17245689181E+03 0.  0.
         24    2    3    3    0    0 -0.26872153601E+02 -0.26458125739E+02 -0.50497406502E+02  0.10357675866E+03  0.82194962215E+02 0.  0.
         -6    2    1    2    0  502  0.77855897837E+02  0.58011254529E+02 -0.75550648717E+03  0.78084440865E+03  0.17175881893E+03 0.  0.
        -24    2    5    5    0    0  0.52317802076E+01 -0.19099359444E+02 -0.44808859760E+03  0.45565498989E+03  0.80286496069E+02 0.  0.
          5    1    3    3  501    0 -0.50983744236E+02 -0.31553128790E+02 -0.24357594017E+03  0.25089095389E+03  0.47000000000E+01 0. -1.
        -11    1    4    4    0    0  0.20078101876E+02 -0.70025629150E+01 -0.48224174583E+02  0.52704241542E+02  0.00000000000E+00 0.  1.
         12    1    4    4    0    0 -0.46950255477E+02 -0.19455562824E+02 -0.22732319182E+01  0.50872517114E+02  0.00000000000E+00 0. -1.
         -5    1    5    5    0  502  0.72624117629E+02  0.77110613973E+02 -0.30741788957E+03  0.32518941876E+03  0.47000000000E+01 0.  1.
         11    1    6    6    0    0  0.18748744143E+02 -0.45420437195E+02 -0.34220146444E+03  0.34571140245E+03  0.00000000000E+00 0. -1.
        -12    1    6    6    0    0 -0.13516963936E+02  0.26321077750E+02 -0.10588713317E+03  0.10994358743E+03  0.00000000000E+00 0.  1.
</event>
<event>
12    1  0.9873238E-001  0.2031821E+03  0.7818608E-02  0.1147177E+00
         21   -1    0    0  503  502  0.00000000000E+00  0.00000000000E+00  0.30717142682E+02  0.30717142682E+02  0.00000000000E+00 0.  1.
         21   -1    0    0  501  503 -0.00000000000E+00 -0.00000000000E+00 -0.16753371019E+04  0.16753371019E+04  0.00000000000E+00 0.  1.
          6    2    1    2  501    0  0.99983777127E+02  0.39223466003E+02 -0.44044248741E+03  0.48485550781E+03  0.17193034277E+03 0.  0.
         24    2    3    3    0    0 -0.56802527436E+01  0.68104777558E+01 -0.11483246895E+03  0.14096677124E+03  0.81280297683E+02 0.  0.
         -6    2    1    2    0  502 -0.99983777127E+02 -0.39223466003E+02 -0.12041774718E+04  0.12211987367E+04  0.17247531738E+03 0.  0.
        -24    2    5    5    0    0 -0.75867159474E+02 -0.57320933604E+02 -0.11651547682E+04  0.11716609635E+04  0.78500090805E+02 0.  0.
          5    1    3    3  501    0  0.10566402987E+03  0.32412988247E+02 -0.32561001847E+03  0.34388873657E+03  0.47000000000E+01 0. -1.
        -13    1    4    4    0    0 -0.15321675870E+02  0.31421373201E+02 -0.10821162154E+03  0.11371812293E+03  0.00000000000E+00 0.  1.
         14    1    4    4    0    0  0.96414231262E+01 -0.24610895445E+02 -0.66208474015E+01  0.27248648312E+02  0.00000000000E+00 0. -1.
         -5    1    5    5    0  502 -0.24116617653E+02  0.18097467601E+02 -0.39022703538E+02  0.49537773184E+02  0.47000000000E+01 0.  1.
         13    1    6    6    0    0 -0.34542757323E+02 -0.71404933080E+02 -0.71001678172E+03  0.71443382960E+03  0.00000000000E+00 0. -1.
        -14    1    6    6    0    0 -0.41324402151E+02  0.14083999476E+02 -0.45513798650E+03  0.45722713394E+03  0.00000000000E+00 0.  1.
</event>
<event>
12    1  0.9873238E-001  0.3394361E+03  0.7818608E-02  0.1068136E+00
         21   -1    0    0  501  502  0.00000000000E+00  0.00000000000E+00  0.10573921440E+03  0.10573921440E+03  0.00000000000E+00 0. -1.
         21   -1    0    0  502  503 -0.00000000000E+00 -0.00000000000E+00 -0.10576392518E+04  0.10576392518E+04  0.00000000000E+00 0. -1.
         -6    2    1    2    0  503 -0.19119363149E+03  0.20557394176E+03 -0.47318404085E+03  0.58234013651E+03  0.19079111044E+03 0.  0.
        -24    2    3    3    0    0 -0.20577570707E+03  0.16347852289E+03 -0.46041911867E+03  0.53576015737E+03  0.77358337172E+02 0.  0.
          6    2    1    2  501    0  0.19119363149E+03 -0.20557394176E+03 -0.47871599654E+03  0.58103832968E+03  0.17210719033E+03 0.  0.
         24    2    5    5    0    0  0.32879642503E+02 -0.86808713417E+02 -0.12137411194E+03  0.17252417930E+03  0.80100522954E+02 0.  0.
          5    1    5    5  501    0  0.15831398899E+03 -0.11876522834E+03 -0.35734188460E+03  0.40851415038E+03  0.47000000000E+01 0. -1.
        -13    1    6    6    0    0  0.30343093015E+02  0.50108942130E+01 -0.30349739096E+02  0.43207858287E+02  0.00000000000E+00 0.  1.
         14    1    6    6    0    0  0.25365494876E+01 -0.91819607630E+02 -0.91024372843E+02  0.12931632101E+03  0.00000000000E+00 0. -1.
         -5    1    3    3    0  503  0.14582075583E+02  0.42095418869E+02 -0.12764922187E+02  0.46579979138E+02  0.47000000000E+01 0.  1.
         11    1    4    4    0    0 -0.82372035819E+02  0.28954870427E+02 -0.19463537690E+03  0.21332244783E+03  0.00000000000E+00 0. -1.
        -12    1    4    4    0    0 -0.12340367125E+03  0.13452365246E+03 -0.26578374176E+03  0.32243770954E+03  0.00000000000E+00 0.  1.
</event>
<event>
12    1  0.9873238E-001  0.2558913E+03  0.7818608E-02  0.1109789E+00
         21   -1    0    0  501  502  0.00000000000E+00  0.00000000000E+00  0.20241292638E+03  0.20241292638E+03  0.00000000000E+00 0. -1.
         21   -1    0    0  502  503 -0.00000000000E+00 -0.00000000000E+00 -0.32236071288E+03  0.32236071288E+03  0.00000000000E+00 0. -1.
         -6    2    1    2    0  503 -0.17144013531E+03  0.81562698431E+02 -0.55249389535E+02  0.26178775828E+03  0.17156964059E+03 0.  0.
        -24    2    3    3    0    0 -0.19064798510E+03  0.72300031723E+02 -0.75317653817E+02  0.23213031875E+03  0.81472615610E+02 0.  0.
          6    2    1    2  501    0  0.17144013531E+03 -0.81562698431E+02 -0.64698396966E+02  0.26298588098E+03  0.17009261376E+03 0.  0.
         24    2    5    5    0    0  0.17247239975E+02 -0.13915881545E+02 -0.37431857344E+02  0.92348560946E+02  0.81461608864E+02 0.  0.
          5    1    5    5  501    0  0.15419289533E+03 -0.67646816887E+02 -0.27266539622E+02  0.17063732004E+03  0.47000000000E+01 0. -1.
        -13    1    6    6    0    0 -0.18445444864E+02  0.13246747539E+02  0.11930215692E+02  0.25652305998E+02  0.00000000000E+00 0.  1.
         14    1    6    6    0    0  0.35692684838E+02 -0.27162629084E+02 -0.49362073036E+02  0.66696254948E+02  0.00000000000E+00 0. -1.
         -5    1    3    3    0  503  0.19207849796E+02  0.92626667080E+01  0.20068264282E+02  0.29657439532E+02  0.47000000000E+01 0.  1.
         13    1    4    4    0    0 -0.50495535042E+01  0.21637271985E+02 -0.24640983233E+02  0.33179023256E+02  0.00000000000E+00 0. -1.
        -14    1    4    4    0    0 -0.18559843160E+03  0.50662759739E+02 -0.50676670585E+02  0.19895129549E+03  0.00000000000E+00 0.  1.
</event>
<event>
12    1  0.9873238E-001  0.2948947E+03  0.7818608E-02  0.1087950E+00
         21   -1    0    0  501  502  0.00000000000E+00  0.00000000000E+00  0.20104142375E+03  0.20104142375E+03  0.00000000000E+00 0. -1.
         21   -1    0    0  502  503 -0.00000000000E+00 -0.00000000000E+00 -0.46188056584E+03  0.46188056584E+03  0.00000000000E+00 0. -1.
         -6    2    1    2    0  503  0.23155120273E+03 -0.60039940361E+02 -0.44627570965E+02  0.29725775203E+03  0.17073311666E+03 0.  0.
        -24    2    3    3    0    0  0.21919179229E+03 -0.77802993184E+02  0.18350409735E+01  0.24578790279E+03  0.79435371398E+02 0.  0.
          6    2    1    2  501    0 -0.23155120273E+03  0.60039940361E+02 -0.21621157111E+03  0.36566423756E+03  0.17245908854E+03 0.  0.
         24    2    5    5    0    0 -0.21517373000E+03 -0.10298910703E+01 -0.14561617688E+03  0.27077722258E+03  0.76259022707E+02 0.  0.
          5    1    5    5  501    0 -0.16377472738E+02  0.61069831432E+02 -0.70595394238E+02  0.94887014981E+02  0.47000000000E+01 0. -1.
        -13    1    6    6    0    0 -0.14321109057E+03  0.27460742909E+02 -0.67068508397E+02  0.16050449739E+03  0.00000000000E+00 0.  1.
         14    1    6    6    0    0 -0.71962639426E+02 -0.28490633980E+02 -0.78547668479E+02  0.11027272519E+03  0.00000000000E+00 0. -1.
         -5    1    3    3    0  503  0.12359410445E+02  0.17763052823E+02 -0.46462611939E+02  0.51469849236E+02  0.47000000000E+01 0.  1.
         13    1    4    4    0    0  0.61013987442E+02 -0.56749507937E+02  0.18476190407E+02  0.85349768170E+02  0.00000000000E+00 0. -1.
        -14    1    4    4    0    0  0.15817780485E+03 -0.21053485247E+02 -0.16641149433E+02  0.16043813462E+03  0.00000000000E+00 0.  1.
</event>
<event>
12    1  0.9873238E-001  0.2166684E+03  0.7818608E-02  0.1137061E+00
         21   -1    0    0  503  502  0.00000000000E+00  0.00000000000E+00  0.19319496606E+03  0.19319496606E+03  0.00000000000E+00 0. -1.
         21   -1    0    0  501  503 -0.00000000000E+00 -0.00000000000E+00 -0.50395926090E+03  0.50395926090E+03  0.00000000000E+00 0. -1.
          6    2    1    2  501    0  0.36372626840E+02  0.11917223402E+03 -0.40748342185E+03  0.45987842384E+03  0.17297524761E+03 0.  0.
         24    2    3    3    0    0  0.43626160685E+02  0.14308102073E+03 -0.25904504513E+03  0.30927867112E+03  0.78571881840E+02 0.  0.
         -6    2    1    2    0  502 -0.36372626840E+02 -0.11917223402E+03  0.96719127005E+02  0.23727580313E+03  0.17725751853E+03 0.  0.
        -24    2    5    5    0    0  0.21555311362E+02 -0.90890316580E+02  0.13338915164E+02  0.13177763914E+03  0.91987708000E+02 0.  0.
          5    1    3    3  501    0 -0.72535338445E+01 -0.23908786710E+02 -0.14843837672E+03  0.15059975272E+03  0.47000000000E+01 0. -1.
        -11    1    4    4    0    0  0.23350162169E+02  0.50766862485E+02 -0.34547025979E+02  0.65696281507E+02  0.00000000000E+00 0.  1.
         12    1    4    4    0    0  0.20275998516E+02  0.92314158244E+02 -0.22449801915E+03  0.24358238961E+03  0.00000000000E+00 0. -1.
         -5    1    5    5    0  502 -0.57927938202E+02 -0.28281917438E+02  0.83380211840E+02  0.10549816399E+03  0.47000000000E+01 0.  1.
         13    1    6    6    0    0 -0.85548881709E+00 -0.34520760695E+02 -0.38691113266E+02  0.51859589526E+02  0.00000000000E+00 0. -1.
        -14    1    6    6    0    0  0.22410800179E+02 -0.56369555885E+02  0.52030028430E+02  0.79918049612E+02  0.00000000000E+00 0.  1.
</event>
<event>
12    1  0.9873238E-001  0.1849100E+03  0.7818608E-02  0.1163497E+00
         21   -1    0    0  501  502  0.00000000000E+00  0.00000000000E+00  0.20111082713E+03  0.20111082713E+03  0.00000000000E+00 0. -1.
         21   -1    0    0  502  503 -0.00000000000E+00 -0.00000000000E+00 -0.18918213119E+03  0.18918213119E+03  0.00000000000E+00 0. -1.
         -6    2    1    2    0  503 -0.48363414224E+02  0.41550393321E+02 -0.58390974126E+02  0.19391031803E+03  0.17356915209E+03 0.  0.
        -24    2    3    3    0    0 -0.69883681837E+02  0.22307021408E+02 -0.97097195892E+02  0.14539546583E+03  0.79565343221E+02 0.  0.
          6    2    1    2  501    0  0.48363414224E+02 -0.41550393321E+02  0.70319670061E+02  0.19638264029E+03  0.17191809209E+03 0.  0.
         24    2    5    5    0    0  0.11953366982E+01  0.10422998459E+02  0.92966092204E+02  0.12248398383E+03  0.79054185645E+02 0.  0.
          5    1    5    5  501    0  0.47168077526E+02 -0.51973391779E+02 -0.22646422143E+02  0.73898656459E+02  0.47000000000E+01 0. -1.
        -11    1    6    6    0    0 -0.85314685403E+01  0.19485437005E+02 -0.64150531275E+01  0.22217585768E+02  0.00000000000E+00 0.  1.
         12    1    6    6    0    0  0.97268052385E+01 -0.90624385460E+01  0.99381145332E+02  0.10026639806E+03  0.00000000000E+00 0. -1.
         -5    1    3    3    0  503  0.21520267613E+02  0.19243371913E+02  0.38706221766E+02  0.48514852201E+02  0.47000000000E+01 0.  1.
         11    1    4    4    0    0 -0.80743159698E+02  0.75031676642E+01 -0.97770979350E+02  0.12702330403E+03  0.00000000000E+00 0. -1.
        -12    1    4    4    0    0  0.10859477861E+02  0.14803853743E+02  0.67378345785E+00  0.18372161800E+02  0.00000000000E+00 0.  1.
</event>
<event>
12    1  0.9873238E-001  0.2406057E+03  0.7818608E-02  0.1119503E+00
         21   -1    0    0  503  502  0.00000000000E+00  0.00000000000E+00  0.32762566924E+03  0.32762566924E+03  0.00000000000E+00 0. -1.
         21   -1    0    0  501  503 -0.00000000000E+00 -0.00000000000E+00 -0.18009744123E+03  0.18009744123E+03  0.00000000000E+00 0. -1.
          6    2    1    2  501    0  0.13230048992E+03  0.10219501918E+03  0.36529614557E+02  0.24336296183E+03  0.17304299140E+03 0.  0.
         24    2    3    3    0    0  0.15389016923E+03  0.47447865512E+02  0.41879788786E+02  0.18408329034E+03  0.78735360199E+02 0.  0.
         -6    2    1    2    0  502 -0.13230048992E+03 -0.10219501918E+03  0.11099861345E+03  0.26436014865E+03  0.17209983855E+03 0.  0.
        -24    2    5    5    0    0 -0.11029441660E+03 -0.78859782580E+02  0.90920388276E+01  0.15742165940E+03  0.79468169968E+02 0.  0.
          5    1    3    3  501    0 -0.21589679315E+02  0.54747153665E+02 -0.53501742296E+01  0.59279671488E+02  0.47000000000E+01 0. -1.
        -13    1    4    4    0    0  0.22099983444E+02 -0.33478796006E+01 -0.19895578344E+02  0.29924097374E+02  0.00000000000E+00 0.  1.
         14    1    4    4    0    0  0.13179018579E+03  0.50795745113E+02  0.61775367130E+02  0.15415919297E+03  0.00000000000E+00 0. -1.
         -5    1    5    5    0  502 -0.22006073320E+02 -0.23335236597E+02  0.10190657462E+03  0.10693848924E+03  0.47000000000E+01 0.  1.
         11    1    6    6    0    0 -0.34678064414E+02  0.11960078144E+02 -0.92442046760E+01  0.37829445420E+02  0.00000000000E+00 0. -1.
        -12    1    6    6    0    0 -0.75616352185E+02 -0.90819860725E+02  0.18336243504E+02  0.11959221398E+03  0.00000000000E+00 0.  1.
</event>
<event>
12    1  0.9873238E-001  0.2471430E+03  0.7818608E-02  0.1117140E+00
         21   -1    0    0  503  502  0.00000000000E+00  0.00000000000E+00  0.80234680168E+02  0.80234680168E+02  0.00000000000E+00 0. -1.
         21   -1    0    0  501  503 -0.00000000000E+00 -0.00000000000E+00 -0.13823631169E+04  0.13823631169E+04  0.00000000000E+00 0. -1.
          6    2    1    2  501    0 -0.15814691344E+03 -0.51613097743E+02 -0.15514045176E+03  0.29180166455E+03  0.18277115082E+03 0.  0.
         24    2    3    3    0    0 -0.75089146960E+01 -0.42164663838E+02 -0.21400246348E+02  0.90085001595E+02  0.76309201884E+02 0.  0.
         -6    2    1    2    0  502  0.15814691344E+03  0.51613097743E+02 -0.11469879850E+04  0.11707961326E+04  0.16585472004E+03 0.  0.
        -24    2    5    5    0    0  0.11836691600E+03 -0.22143675268E+02 -0.85733044514E+03  0.86922343790E+03  0.77671253787E+02 0.  0.
          5    1    3    3  501    0 -0.15063799875E+03 -0.94484339048E+01 -0.13374020541E+03  0.20171666295E+03  0.47000000000E+01 0. -1.
        -11    1    4    4    0    0  0.57802297734E+01 -0.25496115070E+02 -0.48804556502E+02  0.55365582046E+02  0.00000000000E+00 0.  1.
         12    1    4    4    0    0 -0.13289144469E+02 -0.16668548768E+02  0.27404310155E+02  0.34719419549E+02  0.00000000000E+00 0. -1.
         -5    1    5    5    0  502  0.39779997439E+02  0.73756773010E+02 -0.28965753987E+03  0.30157269466E+03  0.47000000000E+01 0.  1.
         13    1    6    6    0    0  0.86562440068E+02 -0.40688354735E+02 -0.44020718370E+03  0.45047859308E+03  0.00000000000E+00 0. -1.
        -14    1    6    6    0    0  0.31804475936E+02  0.18544679467E+02 -0.41712326144E+03  0.41874484482E+03  0.00000000000E+00 0.  1.
</event>
<event>
12    1  0.1206422E+000  0.2621954E+03  0.7818608E-02  0.1105926E+00
         21   -1    0    0  503  502  0.00000000000E+00  0.00000000000E+00  0.76333587944E+03  0.76333587944E+03  0.00000000000E+00 0. -1.
         21   -1    0    0  501  503 -0.00000000000E+00 -0.00000000000E+00 -0.22602467509E+03  0.22602467509E+03  0.00000000000E+00 0. -1.
          6    2    1    2  501    0  0.17561703247E+03 -0.89565437502E+02  0.65276379709E+03  0.70345361387E+03  0.17286729707E+03 0.  0.
         24    2    3    3    0    0  0.29987845774E+02 -0.25770500134E+02  0.34454069246E+03  0.35660894218E+03  0.83055760281E+02 0.  0.
         -6    2    1    2    0  502 -0.17561703247E+03  0.89565437502E+02 -0.11545259273E+03  0.28590694066E+03  0.17190162262E+03 0.  0.
        -24    2    5    5    0    0 -0.95051475842E+02  0.49309207091E+02  0.56152543146E+01  0.13494043249E+03  0.81921964543E+02 0.  0.
          5    1    3    3  501    0  0.14562918669E+03 -0.63794937368E+02  0.30822310463E+03  0.34684467169E+03  0.47000000000E+01 0. -1.
        -11    1    4    4    0    0  0.54013259701E+02 -0.50443334815E+01  0.15022857774E+03  0.15972320775E+03  0.00000000000E+00 0.  1.
         12    1    4    4    0    0 -0.24025413927E+02 -0.20726166653E+02  0.19431211472E+03  0.19688573444E+03  0.00000000000E+00 0. -1.
         -5    1    5    5    0  502 -0.80565556627E+02  0.40256230411E+02 -0.12106784705E+03  0.15096650817E+03  0.47000000000E+01 0.  1.
         13    1    6    6    0    0  0.14802112503E+02  0.86365340642E+01 -0.33304984906E+01  0.17458077654E+02  0.00000000000E+00 0. -1.
        -14    1    6    6    0    0 -0.10985358834E+03  0.40672673027E+02  0.89457528052E+01  0.11748235483E+03  0.00000000000E+00 0.  1.
</event>
<event>
12    1  0.9873238E-001  0.2045891E+03  0.7818608E-02  0.1148287E+00
         21   -1    0    0  501  502  0.00000000000E+00  0.00000000000E+00  0.31389626605E+03  0.31389626605E+03  0.00000000000E+00 0. -1.
         21   -1    0    0  502  503 -0.00000000000E+00 -0.00000000000E+00 -0.12891666398E+03  0.12891666398E+03  0.00000000000E+00 0. -1.
         -6    2    1    2    0  503  0.36598438725E+02  0.84305689382E+02  0.12237037002E+03  0.22885826366E+03  0.17016081337E+03 0.  0.
        -24    2    3    3    0    0  0.57204523898E+02  0.87838947352E+02  0.14669537504E+03  0.19644082195E+03  0.77983493408E+02 0.  0.
          6    2    1    2  501    0 -0.36598438725E+02 -0.84305689382E+02  0.62609232047E+02  0.21395466636E+03  0.18278344657E+03 0.  0.
         24    2    5    5    0    0  0.10232647457E+02 -0.23640423896E+02  0.97729119548E+02  0.12952172511E+03  0.81001973760E+02 0.  0.
          5    1    5    5  501    0 -0.46831086182E+02 -0.60665265486E+02 -0.35119887501E+02  0.84432941247E+02  0.47000000000E+01 0. -1.
        -13    1    6    6    0    0  0.22943307349E+02  0.25140258158E+02  0.32267889048E+02  0.46900368825E+02  0.00000000000E+00 0.  1.
         14    1    6    6    0    0 -0.12710659892E+02 -0.48780682054E+02  0.65461230500E+02  0.82621356290E+02  0.00000000000E+00 0. -1.
         -5    1    3    3    0  503 -0.20606085173E+02 -0.35332579694E+01 -0.24325005017E+02  0.32417441711E+02  0.47000000000E+01 0.  1.
         13    1    4    4    0    0 -0.11772105929E+02 -0.41696225218E+01  0.30528094985E+02  0.32983826543E+02  0.00000000000E+00 0. -1.
        -14    1    4    4    0    0  0.68976629827E+02  0.92008569873E+02  0.11616728006E+03  0.16345699541E+03  0.00000000000E+00 0.  1.
</event>
<event>
12    1  0.9873238E-001  0.1833996E+03  0.7818608E-02  0.1165046E+00
         21   -1    0    0  503  502  0.00000000000E+00  0.00000000000E+00  0.39257041899E+03  0.39257041899E+03  0.00000000000E+00 0. -1.
         21   -1    0    0  501  503 -0.00000000000E+00 -0.00000000000E+00 -0.11631104139E+03  0.11631104139E+03  0.00000000000E+00 0. -1.
          6    2    1    2  501    0  0.55139597915E+02 -0.23639789749E+02  0.49415957273E+01  0.18139292490E+03  0.17111329264E+03 0.  0.
         24    2    3    3    0    0  0.39716105478E+02 -0.62731152265E+02  0.49671389407E+02  0.11983918265E+03  0.79885019076E+02 0.  0.
         -6    2    1    2    0  502 -0.55139597915E+02  0.23639789749E+02  0.27131778188E+03  0.32748853549E+03  0.17330951271E+03 0.  0.
        -24    2    5    5    0    0 -0.59464842680E+02  0.42860091362E+02  0.28400765614E+03  0.30358768519E+03  0.78307591631E+02 0.  0.
          5    1    3    3  501    0  0.15423492437E+02  0.39091362516E+02 -0.44729793680E+02  0.61553742250E+02  0.47000000000E+01 0. -1.
        -13    1    4    4    0    0 -0.76586343625E+01  0.11008850082E+02 -0.73338560773E+01  0.15285120392E+02  0.00000000000E+00 0.  1.
         14    1    4    4    0    0  0.47374739840E+02 -0.73740002347E+02  0.57005245485E+02  0.10455406225E+03  0.00000000000E+00 0. -1.
         -5    1    5    5    0  502  0.43252447654E+01 -0.19220301613E+02 -0.12689874258E+02  0.23900850300E+02  0.47000000000E+01 0.  1.
         11    1    6    6    0    0 -0.37016930984E+02 -0.12118544022E+02  0.57684792384E+02  0.69603502506E+02  0.00000000000E+00 0. -1.
        -12    1    6    6    0    0 -0.22447911696E+02  0.54978635384E+02  0.22632286375E+03  0.23398418268E+03  0.00000000000E+00 0.  1.
</event>
<event>
12    1  0.9873238E-001  0.2058730E+03  0.7818608E-02  0.1145217E+00
         21   -1    0    0  501  502  0.00000000000E+00  0.00000000000E+00  0.14845540488E+04  0.14845540488E+04  0.00000000000E+00 0.  1.
         21   -1    0    0  502  503 -0.00000000000E+00 -0.00000000000E+00 -0.30499196141E+02  0.30499196141E+02  0.00000000000E+00 0.  1.
         -6    2    1    2    0  503  0.41864895218E+02  0.10439697098E+03  0.52172434608E+03  0.56026328521E+03  0.17043256279E+03 0.  0.
        -24    2    3    3    0    0  0.14399581867E+02  0.29033661360E+01  0.11438123892E+03  0.13954272211E+03  0.78570516000E+02 0.  0.
          6    2    1    2  501    0 -0.41864895218E+02 -0.10439697098E+03  0.93233050658E+03  0.95478995974E+03  0.17243055619E+03 0.  0.
         24    2    5    5    0    0 -0.16243084653E+02 -0.65774025241E+02  0.87315392371E+03  0.87947616900E+03  0.80563621834E+02 0.  0.
          5    1    5    5  501    0 -0.25621810565E+02 -0.38622945736E+02  0.59176582874E+02  0.75313790733E+02  0.47000000000E+01 0. -1.
        -11    1    6    6    0    0 -0.10952817767E+02  0.95570934679E+01  0.34609860379E+02  0.37538575999E+02  0.00000000000E+00 0.  1.
         12    1    6    6    0    0 -0.52902668860E+01 -0.75331118709E+02  0.83854406333E+03  0.84193759300E+03  0.00000000000E+00 0. -1.
         -5    1    3    3    0  503  0.27465313351E+02  0.10149360484E+03  0.40734310716E+03  0.42072056310E+03  0.47000000000E+01 0.  1.
         11    1    4    4    0    0 -0.22990888118E+02 -0.23784077906E+01  0.93658994225E+02  0.96468880782E+02  0.00000000000E+00 0. -1.
        -12    1    4    4    0    0  0.37390469986E+02  0.52817739265E+01  0.20722244691E+02  0.43073841326E+02  0.00000000000E+00 0.  1.
</event>
<event>
12    1  0.9873238E-001  0.2365139E+03  0.7818608E-02  0.1122723E+00
         21   -1    0    0  503  502  0.00000000000E+00  0.00000000000E+00  0.16824833403E+03  0.16824833403E+03  0.00000000000E+00 0. -1.
         21   -1    0    0  501  503 -0.00000000000E+00 -0.00000000000E+00 -0.33528091877E+03  0.33528091877E+03  0.00000000000E+00 0.  1.
          6    2    1    2  501    0 -0.20283244167E+02  0.15853585414E+03 -0.12200964148E+03  0.26612997542E+03  0.17433813169E+03 0.  0.
         24    2    3    3    0    0 -0.64370732351E+02  0.15875220554E+03 -0.78275276762E+02  0.20385206538E+03  0.77992253849E+02 0.  0.
         -6    2    1    2    0  502  0.20283244167E+02 -0.15853585414E+03 -0.45022943266E+02  0.23739927738E+03  0.16966533069E+03 0.  0.
        -24    2    5    5    0    0  0.12873621379E+02 -0.15213507247E+03 -0.87593712520E+02  0.19346486136E+03  0.80281901483E+02 0.  0.
          5    1    3    3  501    0  0.44087488184E+02 -0.21635139692E+00 -0.43734364714E+02  0.62277910043E+02  0.47000000000E+01 0. -1.
        -13    1    4    4    0    0 -0.42745177590E+02  0.27170857638E+02 -0.30298529969E+01  0.50740375651E+02  0.00000000000E+00 0.  1.
         14    1    4    4    0    0 -0.21625554761E+02  0.13158134790E+03 -0.75245423765E+02  0.15311168973E+03  0.00000000000E+00 0. -1.
         -5    1    5    5    0  502  0.74096227886E+01 -0.64007816716E+01  0.42570769255E+02  0.43934416018E+02  0.47000000000E+01 0.  1.
         11    1    6    6    0    0  0.44646194072E+02 -0.66761067468E+02 -0.51917016656E+02  0.95633150074E+02  0.00000000000E+00 0. -1.
        -12    1    6    6    0    0 -0.31772572694E+02 -0.85374005000E+02 -0.35676695864E+02  0.97831711286E+02  0.00000000000E+00 0.  1.
</event>
<event>
12    1  0.9873238E-001  0.2967029E+03  0.7818608E-02  0.1086920E+00
         21   -1    0    0  503  502  0.00000000000E+00  0.00000000000E+00  0.17920169011E+03  0.17920169011E+03  0.00000000000E+00 0.  1.
         21   -1    0    0  501  503 -0.00000000000E+00 -0.00000000000E+00 -0.49106459235E+03  0.49106459235E+03  0.00000000000E+00 0.  1.
          6    2    1    2  501    0  0.18124585435E+02 -0.24105325203E+03 -0.16001058448E+03  0.33696202779E+03  0.17176975902E+03 0.  0.
         24    2    3    3    0    0  0.17225966368E+01 -0.52726293631E+02 -0.10482571091E+03  0.13997591465E+03  0.76300705345E+02 0.  0.
         -6    2    1    2    0  502 -0.18124585435E+02  0.24105325203E+03 -0.15185231776E+03  0.33330425468E+03  0.17203903297E+03 0.  0.
        -24    2    5    5    0    0 -0.74295715914E+02  0.12337429790E+03 -0.11803812240E+03  0.19851174022E+03  0.68795653068E+02 0.  0.
          5    1    3    3  501    0  0.16401988798E+02 -0.18832695840E+03 -0.55184873572E+02  0.19698611314E+03  0.47000000000E+01 0. -1.
        -11    1    4    4    0    0  0.31516779806E+02 -0.62194782065E+01 -0.62917830580E+02  0.70644481195E+02  0.00000000000E+00 0.  1.
         12    1    4    4    0    0 -0.29794183169E+02 -0.46506815425E+02 -0.41907880328E+02  0.69331433457E+02  0.00000000000E+00 0. -1.
         -5    1    5    5    0  502  0.56171130480E+02  0.11767895413E+03 -0.33814195361E+02  0.13479251446E+03  0.47000000000E+01 0.  1.
         11    1    6    6    0    0 -0.49183611637E+02  0.12413583566E+03 -0.10683122290E+03  0.17100188167E+03  0.00000000000E+00 0. -1.
        -12    1    6    6    0    0 -0.25112104277E+02 -0.76153776266E+00 -0.11206899495E+02  0.27509858547E+02  0.00000000000E+00 0.  1.
</event>
<event>
12    1  0.9873238E-001  0.1852956E+03  0.7818608E-02  0.1164490E+00
         21   -1    0    0  503  502  0.00000000000E+00  0.00000000000E+00  0.42418627467E+02  0.42418627467E+02  0.00000000000E+00 0. -1.
         21   -1    0    0  501  503 -0.00000000000E+00 -0.00000000000E+00 -0.81588002380E+03  0.81588002380E+03  0.00000000000E+00 0. -1.
          6    2    1    2  501    0 -0.55735255291E+02 -0.37278427070E+02 -0.47158089696E+03  0.50408641575E+03  0.16498021806E+03 0.  0.
         24    2    3    3    0    0  0.32426195979E+02 -0.15268776866E+02 -0.22937219105E+03  0.24535100377E+03  0.79378330100E+02 0.  0.
         -6    2    1    2    0  502  0.55735255291E+02  0.37278427070E+02 -0.30188049937E+03  0.35421223552E+03  0.17273787103E+03 0.  0.
        -24    2    5    5    0    0  0.37685723043E+02  0.81425498207E+02 -0.13697063389E+03  0.18247958506E+03  0.80545136002E+02 0.  0.
          5    1    3    3  501    0 -0.88161451270E+02 -0.22009650204E+02 -0.24220870591E+03  0.25873541198E+03  0.47000000000E+01 0. -1.
        -13    1    4    4    0    0 -0.81196949694E+01 -0.56161441773E+01  0.21525458827E+01  0.10104651186E+02  0.00000000000E+00 0.  1.
         14    1    4    4    0    0  0.40545890948E+02 -0.96526326887E+01 -0.23152473693E+03  0.23524635258E+03  0.00000000000E+00 0. -1.
         -5    1    5    5    0  502  0.18049532248E+02 -0.44147071138E+02 -0.16490986548E+03  0.17173265046E+03  0.47000000000E+01 0.  1.
         11    1    6    6    0    0  0.61800538840E+02  0.61880816353E+02 -0.85076769430E+02  0.12201065007E+03  0.00000000000E+00 0. -1.
        -12    1    6    6    0    0 -0.24114815796E+02  0.19544681855E+02 -0.51893864464E+02  0.60468934989E+02  0.00000000000E+00 0.  1.
</event>
<event>
12    1  0.9873238E-001  0.1746460E+03  0.7818608E-02  0.1173425E+00
         21   -1    0    0  501  502  0.00000000000E+00  0.00000000000E+00  0.68226435258E+03  0.68226435258E+03  0.00000000000E+00 0. -1.
         21   -1    0    0  502  503 -0.00000000000E+00 -0.00000000000E+00 -0.65317499398E+02  0.65317499398E+02  0.00000000000E+00 0. -1.
         -6    2    1    2    0  503 -0.31925716214E+02 -0.90416592608E+01  0.51937364812E+03  0.54752751258E+03  0.17010698902E+03 0.  0.
        -24    2    3    3    0    0 -0.57347731144E+02  0.34929258388E+02  0.21107872935E+03  0.23504140508E+03  0.78621986487E+02 0.  0.
          6    2    1    2  501    0  0.31925716214E+02  0.90416592608E+01  0.97573205055E+02  0.20005433939E+03  0.17146488097E+03 0.  0.
         24    2    5    5    0    0 -0.36706800300E+02 -0.33351950488E+02  0.56353002858E+02  0.10934141010E+03  0.79499315989E+02 0.  0.
          5    1    5    5  501    0  0.68632516514E+02  0.42393609749E+02  0.41220202197E+02  0.90712929286E+02  0.47000000000E+01 0. -1.
        -13    1    6    6    0    0 -0.19046085744E+02  0.25181298513E+02  0.26895222864E+02  0.41475344361E+02  0.00000000000E+00 0.  1.
         14    1    6    6    0    0 -0.17660714556E+02 -0.58533249000E+02  0.29457779994E+02  0.67866065743E+02  0.00000000000E+00 0. -1.
         -5    1    3    3    0  503  0.25422014930E+02 -0.43970917649E+02  0.30829491877E+03  0.31248610750E+03  0.47000000000E+01 0.  1.
         13    1    4    4    0    0 -0.25582666856E+02  0.50310902206E+02  0.71625393133E+02  0.91191319026E+02  0.00000000000E+00 0. -1.
        -14    1    4    4    0    0 -0.31765064288E+02 -0.15381643818E+02  0.13945333622E+03  0.14385008606E+03  0.00000000000E+00 0.  1.
</event>
<event>
12    1  0.9873238E-001  0.2420535E+03  0.7818608E-02  0.1118489E+00
         21   -1    0    0  501  502  0.00000000000E+00  0.00000000000E+00  0.29292590192E+03  0.29292590192E+03  0.00000000000E+00 0.  1.
         21   -1    0    0  502  503 -0.00000000000E+00 -0.00000000000E+00 -0.36296725925E+03  0.36296725925E+03  0.00000000000E+00 0.  1.
         -6    2    1    2    0  503  0.87967131852E+02  0.14626247393E+03  0.18489007710E+03  0.30458859963E+03  0.17163608842E+03 0.  0.
        -24    2    3    3    0    0  0.11361866325E+02  0.10314519056E+03  0.65104631120E+02  0.15593426939E+03  0.96482438994E+02 0.  0.
          6    2    1    2  501    0 -0.87967131852E+02 -0.14626247393E+03 -0.25493143442E+03  0.35130456153E+03  0.17115469942E+03 0.  0.
         24    2    5    5    0    0 -0.23543192498E+02 -0.15100608506E+02 -0.10147916847E+03  0.13935275845E+03  0.91317355224E+02 0.  0.
          5    1    5    5  501    0 -0.64423939354E+02 -0.13116186542E+03 -0.15345226596E+03  0.21195180308E+03  0.47000000000E+01 0. -1.
        -11    1    6    6    0    0 -0.11142708883E+02  0.67497494985E+01  0.15188698456E+02  0.20010388310E+02  0.00000000000E+00 0.  1.
         12    1    6    6    0    0 -0.12400483615E+02 -0.21850358005E+02 -0.11666786692E+03  0.11934237014E+03  0.00000000000E+00 0. -1.
         -5    1    3    3    0  503  0.76605265527E+02  0.43117283367E+02  0.11978544598E+03  0.14865433024E+03  0.47000000000E+01 0.  1.
         11    1    4    4    0    0  0.29680346142E+02  0.16267442762E+02  0.57627814236E+02  0.66832010405E+02  0.00000000000E+00 0. -1.
        -12    1    4    4    0    0 -0.18318479817E+02  0.86877747798E+02  0.74768168843E+01  0.89102258984E+02  0.00000000000E+00 0.  1.
</event>
<event>
12    1  0.9873238E-001  0.2190784E+03  0.7818608E-02  0.1134717E+00
         21   -1    0    0  503  502  0.00000000000E+00  0.00000000000E+00  0.37530780026E+03  0.37530780026E+03  0.00000000000E+00 0.  1.
         21   -1    0    0  501  503 -0.00000000000E+00 -0.00000000000E+00 -0.16332611650E+03  0.16332611650E+03  0.00000000000E+00 0.  1.
          6    2    1    2  501    0 -0.10745811216E+03 -0.80795635519E+02 -0.20407104509E+02  0.21925967400E+03  0.17199759923E+03 0.  0.
         24    2    3    3    0    0 -0.53498764491E+02 -0.11450765946E+03  0.99451222366E+01  0.14860941266E+03  0.77535348048E+02 0.  0.
         -6    2    1    2    0  502  0.10745811216E+03  0.80795635519E+02  0.23238878827E+03  0.31937424275E+03  0.17297449936E+03 0.  0.
        -24    2    5    5    0    0  0.10708610471E+03  0.90075320347E+02  0.25047899988E+03  0.29850328934E+03  0.82361928145E+02 0.  0.
          5    1    3    3  501    0 -0.53959347672E+02  0.33712023944E+02 -0.30352226745E+02  0.70650261344E+02  0.47000000000E+01 0. -1.
        -13    1    4    4    0    0 -0.10701043069E+02 -0.45567558890E+01  0.26998056947E+02  0.29396792783E+02  0.00000000000E+00 0.  1.
         14    1    4    4    0    0 -0.42797721422E+02 -0.10995090357E+03 -0.17052934710E+02  0.11921261988E+03  0.00000000000E+00 0. -1.
         -5    1    5    5    0  502  0.37200745682E+00 -0.92796848286E+01 -0.18090211612E+02  0.20870953410E+02  0.47000000000E+01 0.  1.
         13    1    6    6    0    0 -0.35325038300E+01  0.36054991472E+02  0.35201568845E+02  0.50513279863E+02  0.00000000000E+00 0. -1.
        -14    1    6    6    0    0  0.11061860854E+03  0.54020328875E+02  0.21527743104E+03  0.24799000948E+03  0.00000000000E+00 0.  1.
</event>
<event>
12    1  0.9873238E-001  0.1813658E+03  0.7818608E-02  0.1167146E+00
         21   -1    0    0  503  502  0.00000000000E+00  0.00000000000E+00  0.89744426498E+02  0.89744426498E+02  0.00000000000E+00 0. -1.
         21   -1    0    0  501  503 -0.00000000000E+00 -0.00000000000E+00 -0.69136594107E+03  0.69136594107E+03  0.00000000000E+00 0. -1.
          6    2    1    2  501    0  0.42470467292E+02  0.21274963121E+02 -0.57195572505E+03  0.60002240768E+03  0.17503477843E+03 0.  0.
         24    2    3    3    0    0  0.43268814035E+02 -0.14941336786E+02 -0.14307629791E+03  0.16959017055E+03  0.78705559604E+02 0.  0.
         -6    2    1    2    0  502 -0.42470467292E+02 -0.21274963121E+02 -0.29665789526E+02  0.18108795989E+03  0.17221041054E+03 0.  0.
        -24    2    5    5    0    0 -0.66639087268E+01 -0.74709087393E+02  0.21965255527E+02  0.98473372274E+02  0.59905568840E+02 0.  0.
          5    1    3    3  501    0 -0.79834674233E+00  0.36216299908E+02 -0.42887942714E+03  0.43043223713E+03  0.47000000000E+01 0. -1.
        -13    1    4    4    0    0  0.43805542042E+02 -0.89433987442E+01 -0.15221530598E+03  0.15864554601E+03  0.00000000000E+00 0.  1.
         14    1    4    4    0    0 -0.53672800730E+00 -0.59979380421E+01  0.91390080753E+01  0.10944624540E+02  0.00000000000E+00 0. -1.
         -5    1    5    5    0  502 -0.35806558566E+02  0.53434124271E+02 -0.51631045053E+02  0.82614587612E+02  0.47000000000E+01 0.  1.
         11    1    6    6    0    0  0.21977806754E+02 -0.30855479319E+02  0.25989660630E+02  0.45940690606E+02  0.00000000000E+00 0. -1.
        -12    1    6    6    0    0 -0.28641715481E+02 -0.43853608074E+02 -0.40244051024E+01  0.52532681668E+02  0.00000000000E+00 0.  1.
</event>
<event>
12    1  0.9873238E-001  0.2059737E+03  0.7818608E-02  0.1145065E+00
         21   -1    0    0  503  502  0.00000000000E+00  0.00000000000E+00  0.95028406150E+02  0.95028406150E+02  0.00000000000E+00 0.  1.
         21   -1    0    0  501  503 -0.00000000000E+00 -0.00000000000E+00 -0.45266786135E+03  0.45266786135E+03  0.00000000000E+00 0.  1.
          6    2    1    2  501    0 -0.76467194810E+02 -0.84284993068E+02 -0.13942951691E+03  0.24762834702E+03  0.17008238041E+03 0.  0.
         24    2    3    3    0    0 -0.25740253596E+02  0.24320756172E+02 -0.58145546985E+02  0.10272284299E+03  0.76922155463E+02 0.  0.
         -6    2    1    2    0  502  0.76467194810E+02  0.84284993068E+02 -0.21820993828E+03  0.30006792047E+03  0.17167989921E+03 0.  0.
        -24    2    5    5    0    0 -0.63021290127E+00 -0.21513652227E+01 -0.13661420495E+03  0.15831035274E+03  0.79960623127E+02 0.  0.
          5    1    3    3  501    0 -0.50726941213E+02 -0.10860574924E+03 -0.81283969927E+02  0.14490550404E+03  0.47000000000E+01 0. -1.
        -13    1    4    4    0    0 -0.98214826767E+01 -0.39447231542E+01  0.17479272161E+02  0.20433974602E+02  0.00000000000E+00 0.  1.
         14    1    4    4    0    0 -0.15918770920E+02  0.28265479327E+02 -0.75624819147E+02  0.82288868385E+02  0.00000000000E+00 0. -1.
         -5    1    5    5    0  502  0.77097407711E+02  0.86436358290E+02 -0.81595733333E+02  0.14175756773E+03  0.47000000000E+01 0.  1.
         13    1    6    6    0    0 -0.15020001466E+02 -0.15242772624E+02 -0.11223118313E+01  0.21429002430E+02  0.00000000000E+00 0. -1.
        -14    1    6    6    0    0  0.14389788565E+02  0.13091407401E+02 -0.13549189312E+03  0.13688135031E+03  0.00000000000E+00 0.  1.
</event>
<event>
12    1  0.9873238E-001  0.2728715E+03  0.7818608E-02  0.1099655E+00
         21   -1    0    0  501  502  0.00000000000E+00  0.00000000000E+00  0.13523527085E+04  0.13523527085E+04  0.00000000000E+00 0.  1.
         21   -1    0    0  502  503 -0.00000000000E+00 -0.00000000000E+00 -0.83595612509E+02  0.83595612509E+02  0.00000000000E+00 0.  1.
         -6    2    1    2    0  503  0.12024778667E+02  0.21157280790E+03  0.10539081516E+04  0.10886460009E+04  0.17181407081E+03 0.  0.
        -24    2    3    3    0    0 -0.26924454087E+02  0.11333155046E+03  0.36249205446E+03  0.38918428159E+03  0.80591246021E+02 0.  0.
          6    2    1    2  501    0 -0.12024778667E+02 -0.21157280790E+03  0.21484894444E+03  0.34730232016E+03  0.17190457910E+03 0.  0.
         24    2    5    5    0    0  0.42357160927E+02 -0.61288683513E+02  0.11627791893E+03  0.15946981374E+03  0.79747321311E+02 0.  0.
          5    1    5    5  501    0 -0.54381939595E+02 -0.15028412438E+03  0.98571025513E+02  0.18783250641E+03  0.47000000000E+01 0. -1.
        -11    1    6    6    0    0  0.33853374104E+02 -0.61498149721E+02  0.36280079679E+02  0.79020994291E+02  0.00000000000E+00 0.  1.
         12    1    6    6    0    0  0.85037868238E+01  0.20946620751E+00  0.79997839252E+02  0.80448819453E+02  0.00000000000E+00 0. -1.
         -5    1    3    3    0  503  0.38949232754E+02  0.98241257439E+02  0.69141609711E+03  0.69946171928E+03  0.47000000000E+01 0.  1.
         13    1    4    4    0    0  0.12662152622E+02  0.77804775319E+02  0.28117406932E+03  0.29201501747E+03  0.00000000000E+00 0. -1.
        -14    1    4    4    0    0 -0.39586606709E+02  0.35526775137E+02  0.81317985139E+02  0.97169264119E+02  0.00000000000E+00 0.  1.
</event>
<event>
12    1  0.9873238E-001  0.2554572E+03  0.7818608E-02  0.1112443E+00
         21   -1    0    0  503  502  0.00000000000E+00  0.00000000000E+00  0.13882003595E+03  0.13882003595E+03  0.00000000000E+00 0.  1.
         21   -1    0    0  501  503 -0.00000000000E+00 -0.00000000000E+00 -0.56083255093E+03  0.56083255093E+03  0.00000000000E+00 0.  1.
          6    2    1    2  501    0 -0.50782628312E+01 -0.17110137801E+03 -0.36717283336E+03  0.43837535925E+03  0.16749804694E+03 0.  0.
         24    2    3    3    0    0  0.43145464740E+02 -0.14813145973E+03 -0.32977537518E+03  0.37300101470E+03  0.81077113917E+02 0.  0.
         -6    2    1    2    0  502  0.50782628312E+01  0.17110137801E+03 -0.54839681622E+02  0.26127722763E+03  0.18962312277E+03 0.  0.
        -24    2    5    5    0    0 -0.46578514681E+01  0.66069028209E+02  0.46725948435E+02  0.11477038945E+03  0.81253405883E+02 0.  0.
          5    1    3    3  501    0 -0.48223727571E+02 -0.22969918276E+02 -0.37397458173E+02  0.65374344542E+02  0.47000000000E+01 0. -1.
        -13    1    4    4    0    0 -0.15663660387E+02 -0.18626078647E+01 -0.20527763787E+02  0.25888388340E+02  0.00000000000E+00 0.  1.
         14    1    4    4    0    0  0.58809125127E+02 -0.14626885187E+03 -0.30924761140E+03  0.34711262636E+03  0.00000000000E+00 0. -1.
         -5    1    5    5    0  502  0.97361142993E+01  0.10503234980E+03 -0.10156563006E+03  0.14650683819E+03  0.47000000000E+01 0.  1.
         11    1    6    6    0    0  0.11854019627E+02  0.81183099580E+02  0.40723396986E+02  0.91594806080E+02  0.00000000000E+00 0. -1.
        -12    1    6    6    0    0 -0.16511871095E+02 -0.15114071371E+02  0.60025514482E+01  0.23175583366E+02  0.00000000000E+00 0.  1.
</event>
<event>
12    1  0.1339487E+000  0.3100836E+03  0.7818608E-02  0.1080394E+00
         21   -1    0    0  501  502  0.00000000000E+00  0.00000000000E+00  0.73890434870E+03  0.73890434870E+03  0.00000000000E+00 0.  1.
         21   -1    0    0  502  503 -0.00000000000E+00 -0.00000000000E+00 -0.43395478032E+03  0.43395478032E+03  0.00000000000E+00 0.  1.
         -6    2    1    2    0  503 -0.20220136678E+03 -0.16030589319E+03  0.64346716335E+03  0.71428415699E+03  0.17195491997E+03 0.  0.
        -24    2    3    3    0    0 -0.99310335313E+02 -0.11321403733E+03  0.23461315429E+03  0.29003435090E+03  0.79978944653E+02 0.  0.
          6    2    1    2  501    0  0.20220136678E+03  0.16030589319E+03 -0.33851759497E+03  0.45857497204E+03  0.17062670002E+03 0.  0.
         24    2    5    5    0    0  0.12473842735E+03  0.17810321743E+03 -0.25266735882E+03  0.34148695052E+03  0.74108783876E+02 0.  0.
          5    1    5    5  501    0  0.77462939432E+02 -0.17797324248E+02 -0.85850236149E+02  0.11708802152E+03  0.47000000000E+01 0. -1.
        -11    1    6    6    0    0  0.18484201952E+02 -0.37211717621E+01 -0.16429336143E+02  0.25008717024E+02  0.00000000000E+00 0.  1.
         12    1    6    6    0    0  0.10625422540E+03  0.18182438919E+03 -0.23623802267E+03  0.31647823350E+03  0.00000000000E+00 0. -1.
         -5    1    3    3    0  503 -0.10289103147E+03 -0.47091855854E+02  0.40885400906E+03  0.42424980609E+03  0.47000000000E+01 0.  1.
         13    1    4    4    0    0 -0.71740782150E+02 -0.87610283603E+02  0.22391387936E+03  0.25091776937E+03  0.00000000000E+00 0. -1.
        -14    1    4    4    0    0 -0.27569553162E+02 -0.25603753729E+02  0.10699274931E+02  0.39116581530E+02  0.00000000000E+00 0.  1.
</event>
<event>
12    1  0.9873238E-001  0.1935799E+03  0.7818608E-02  0.1155418E+00
         21   -1    0    0  501  502  0.00000000000E+00  0.00000000000E+00  0.24268893722E+04  0.24268893722E+04  0.00000000000E+00 0.  1.
         21   -1    0    0  502  503 -0.00000000000E+00 -0.00000000000E+00 -0.19176513972E+02  0.19176513972E+02  0.00000000000E+00 0.  1.
         -6    2    1    2    0  503  0.49476824343E+02 -0.72833935871E+02  0.65857801479E+03  0.68625172493E+03  0.17164990545E+03 0.  0.
        -24    2    3    3    0    0  0.10456311765E+01  0.22228092833E+02  0.30925999251E+03  0.32097437761E+03  0.82991726461E+02 0.  0.
          6    2    1    2  501    0 -0.49476824343E+02  0.72833935871E+02  0.17491348434E+04  0.17598141612E+04  0.17239618099E+03 0.  0.
         24    2    5    5    0    0 -0.38816978498E+02 -0.15348287516E+02  0.12491242039E+04  0.12519534850E+04  0.73033718610E+02 0.  0.
          5    1    5    5  501    0 -0.10659845845E+02  0.88182223387E+02  0.50001063949E+03  0.50786067620E+03  0.47000000000E+01 0. -1.
        -13    1    6    6    0    0 -0.12614422080E+01 -0.11143824006E+02  0.26887301745E+02  0.29132508389E+02  0.00000000000E+00 0.  1.
         14    1    6    6    0    0 -0.37555536290E+02 -0.42044635102E+01  0.12222369022E+04  0.12228209766E+04  0.00000000000E+00 0. -1.
         -5    1    3    3    0  503  0.48431193166E+02 -0.95062028704E+02  0.34931802228E+03  0.36527734732E+03  0.47000000000E+01 0.  1.
         11    1    4    4    0    0  0.37104340389E+02  0.61929387063E+01  0.22254448149E+03  0.22570141960E+03  0.00000000000E+00 0. -1.
        -12    1    4    4    0    0 -0.36058709213E+02  0.16035154127E+02  0.86715511017E+02  0.95272958015E+02  0.00000000000E+00 0.  1.
</event>
<event>
12    1  0.9873238E-001  0.1993438E+03  0.7818608E-02  0.1150576E+00
         21   -1    0    0  503  502  0.00000000000E+00  0.00000000000E+00  0.51746940402E+03  0.51746940402E+03  0.00000000000E+00 0. -1.
         21   -1    0    0  501  503 -0.00000000000E+00 -0.00000000000E+00 -0.12711174667E+03  0.12711174667E+03  0.00000000000E+00 0. -1.
          6    2    1    2  501    0 -0.10070051522E+02  0.98729243046E+02  0.39859025858E+03  0.44506745755E+03  0.17135337221E+03 0.  0.
         24    2    3    3    0    0  0.14078161459E+02  0.68686838938E+02  0.39166990057E+03  0.40562555610E+03  0.78808021667E+02 0.  0.
         -6    2    1    2    0  502  0.10070051522E+02 -0.98729243046E+02 -0.82326012261E+01  0.19951369313E+03  0.17288455297E+03 0.  0.
        -24    2    5    5    0    0  0.18075944118E+02  0.17010929584E+02 -0.66595437726E+01  0.83391144133E+02  0.79332351002E+02 0.  0.
          5    1    3    3  501    0 -0.24148212981E+02  0.30042404108E+02  0.69203580082E+01  0.39441901447E+02  0.47000000000E+01 0. -1.
        -13    1    4    4    0    0  0.46409149816E+02  0.44878502038E+02  0.21697364645E+03  0.22637458423E+03  0.00000000000E+00 0.  1.
         14    1    4    4    0    0 -0.32330988357E+02  0.23808336900E+02  0.17469625412E+03  0.17925097188E+03  0.00000000000E+00 0. -1.
         -5    1    5    5    0  502 -0.80058925957E+01 -0.11574017263E+03 -0.15730574535E+01  0.11612254900E+03  0.47000000000E+01 0.  1.
         13    1    6    6    0    0  0.31177274664E+02 -0.12052542924E+01  0.28119435786E+02  0.42002116164E+02  0.00000000000E+00 0. -1.
        -14    1    6    6    0    0 -0.13101330546E+02  0.18216183876E+02 -0.34778979558E+02  0.41389027969E+02  0.00000000000E+00 0.  1.
</event>
<event>
12    1  0.9873238E-001  0.2662908E+03  0.7818608E-02  0.1104244E+00
         21   -1    0    0  501  502  0.00000000000E+00  0.00000000000E+00  0.96443119016E+02  0.96443119016E+02  0.00000000000E+00 0.  1.
         21   -1    0    0  502  503 -0.00000000000E+00 -0.00000000000E+00 -0.96109303785E+03  0.96109303785E+03  0.00000000000E+00 0.  1.
         -6    2    1    2    0  503  0.67925567449E+02  0.18371009275E+03 -0.16402341139E+03  0.30801078016E+03  0.17205720072E+03 0.  0.
        -24    2    3    3    0    0  0.15607525285E+02  0.62563008031E+02 -0.83845988981E+01  0.10390462242E+03  0.81044088264E+02 0.  0.
          6    2    1    2  501    0 -0.67925567449E+02 -0.18371009275E+03 -0.70062650744E+03  0.74952537671E+03  0.18040927501E+03 0.  0.
         24    2    5    5    0    0 -0.52197721153E+02 -0.21040249447E+03 -0.56757878956E+03  0.61283728399E+03  0.80187545850E+02 0.  0.
          5    1    5    5  501    0 -0.15727846296E+02  0.26692401727E+02 -0.13304771788E+03  0.13668809272E+03  0.47000000000E+01 0. -1.
        -11    1    6    6    0    0 -0.14541474575E+02 -0.17458344928E+01 -0.14943240947E+02  0.20923739409E+02  0.00000000000E+00 0.  1.
         12    1    6    6    0    0 -0.37656246578E+02 -0.20865665998E+03 -0.55263554862E+03  0.59191354458E+03  0.00000000000E+00 0. -1.
         -5    1    3    3    0  503  0.52318042163E+02  0.12114708472E+03 -0.15563881249E+03  0.20410615773E+03  0.47000000000E+01 0.  1.
         11    1    4    4    0    0 -0.17028309224E+02  0.60673818483E+02 -0.24306166371E+02  0.67543062471E+02  0.00000000000E+00 0. -1.
        -12    1    4    4    0    0  0.32635834510E+02  0.18891895482E+01  0.15921567473E+02  0.36361559951E+02  0.00000000000E+00 0.  1.
</event>
<event>
12    1  0.9873238E-001  0.2245418E+03  0.7818608E-02  0.1130826E+00
         21   -1    0    0  501  502  0.00000000000E+00  0.00000000000E+00  0.37417831448E+03  0.37417831448E+03  0.00000000000E+00 0. -1.
         21   -1    0    0  502  503 -0.00000000000E+00 -0.00000000000E+00 -0.14604396334E+03  0.14604396334E+03  0.00000000000E+00 0. -1.
         -6    2    1    2    0  503  0.55095379058E+02 -0.12986241617E+03  0.38419573359E+02  0.22626525157E+03  0.17268512537E+03 0.  0.
        -24    2    3    3    0    0  0.21982228432E+02 -0.61825872946E+02 -0.46350373347E+02  0.11253976708E+03  0.78811072400E+02 0.  0.
          6    2    1    2  501    0 -0.55095379058E+02  0.12986241617E+03  0.18971477778E+03  0.29395702625E+03  0.17469770591E+03 0.  0.
         24    2    5    5    0    0 -0.87762592053E+02  0.14546670237E+03  0.16553935681E+03  0.25017139468E+03  0.79495999912E+02 0.  0.
          5    1    5    5  501    0  0.32667212995E+02 -0.15604286204E+02  0.24175420973E+02  0.43785631571E+02  0.47000000000E+01 0. -1.
        -11    1    6    6    0    0 -0.56217056670E+02  0.13347051533E+03  0.98598087860E+02  0.17520364966E+03  0.00000000000E+00 0.  1.
         12    1    6    6    0    0 -0.31545535383E+02  0.11996187044E+02  0.66941268947E+02  0.74967745027E+02  0.00000000000E+00 0. -1.
         -5    1    3    3    0  503  0.33113150626E+02 -0.68036543225E+02  0.84769946706E+02  0.11372548449E+03  0.47000000000E+01 0.  1.
         11    1    4    4    0    0 -0.26647695755E+02 -0.44150572444E+01 -0.85007003863E+01  0.28317032447E+02  0.00000000000E+00 0. -1.
        -12    1    4    4    0    0  0.48629924187E+02 -0.57410815702E+02 -0.37849672961E+02  0.84222734634E+02  0.00000000000E+00 0.  1.
</event>
<event>
12    1  0.9873238E-001  0.4780393E+03  0.7818608E-02  0.1019677E+00
         21   -1    0    0  503  502  0.00000000000E+00  0.00000000000E+00  0.11866800219E+04  0.11866800219E+04  0.00000000000E+00 0.  1.
         21   -1    0    0  501  503 -0.00000000000E+00 -0.00000000000E+00 -0.28623507076E+03  0.28623507076E+03  0.00000000000E+00 0.  1.
          6    2    1    2  501    0 -0.11213793442E+03 -0.43170256082E+03  0.87152667393E+03  0.99402227998E+03  0.17198701225E+03 0.  0.
         24    2    3    3    0    0 -0.83810036355E+00 -0.26836240911E+03  0.49587048118E+03  0.56951394866E+03  0.80246610937E+02 0.  0.
         -6    2    1    2    0  502  0.11213793442E+03  0.43170256082E+03  0.28918277164E+02  0.47889281263E+03  0.17193034020E+03 0.  0.
        -24    2    5    5    0    0  0.24194178709E+01  0.27375001849E+03  0.10321290107E+02  0.28561814686E+03  0.80785336413E+02 0.  0.
          5    1    3    3  501    0 -0.11129983406E+03 -0.16334015170E+03  0.37565619274E+03  0.42450833133E+03  0.47000000000E+01 0. -1.
        -13    1    4    4    0    0  0.23821760254E+01 -0.17088465011E+02  0.48454014705E+01  0.17921169450E+02  0.00000000000E+00 0.  1.
         14    1    4    4    0    0 -0.32202763890E+01 -0.25127394410E+03  0.49102507971E+03  0.55159277921E+03  0.00000000000E+00 0. -1.
         -5    1    5    5    0  502  0.10971851655E+03  0.15795254233E+03  0.18596987058E+02  0.19327466578E+03  0.47000000000E+01 0.  1.
         11    1    6    6    0    0  0.24353071823E+02  0.47127338276E+02 -0.18364506635E+02  0.56136558714E+02  0.00000000000E+00 0. -1.
        -12    1    6    6    0    0 -0.21933653952E+02  0.22662268021E+03  0.28685796742E+02  0.22948158814E+03  0.00000000000E+00 0.  1.
</event>
<event>
12    1  0.9873238E-001  0.1931559E+03  0.7818608E-02  0.1156795E+00
         21   -1    0    0  501  502  0.00000000000E+00  0.00000000000E+00  0.19632160852E+03  0.19632160852E+03  0.00000000000E+00 0.  1.
         21   -1    0    0  502  503 -0.00000000000E+00 -0.00000000000E+00 -0.18620838293E+03  0.18620838293E+03  0.00000000000E+00 0.  1.
         -6    2    1    2    0  503  0.71172352422E+02  0.52724336940E+02  0.20388376514E+02  0.19422900225E+03  0.17165040042E+03 0.  0.
        -24    2    3    3    0    0 -0.20556436019E+02  0.67998924713E+02  0.13158376486E+02  0.10083817529E+03  0.70347522341E+02 0.  0.
          6    2    1    2  501    0 -0.71172352422E+02 -0.52724336940E+02 -0.10275150926E+02  0.18830098920E+03  0.16585030706E+03 0.  0.
         24    2    5    5    0    0 -0.76978659025E+02 -0.14888111383E+02 -0.59003190425E+02  0.12615756642E+03  0.79290511911E+02 0.  0.
          5    1    5    5  501    0  0.58063066030E+01 -0.37836225556E+02  0.48728039499E+02  0.62143422775E+02  0.47000000000E+01 0. -1.
        -11    1    6    6    0    0 -0.24008277953E+02  0.19883366275E+02 -0.54310210031E+02  0.62620640194E+02  0.00000000000E+00 0.  1.
         12    1    6    6    0    0 -0.52970381071E+02 -0.34771477658E+02 -0.46929803941E+01  0.63536926227E+02  0.00000000000E+00 0. -1.
         -5    1    3    3    0  503  0.91728788440E+02 -0.15274587773E+02  0.72300000285E+01  0.93390826963E+02  0.47000000000E+01 0.  1.
         13    1    4    4    0    0 -0.10745772187E+02  0.82021681161E+02  0.88821390489E+01  0.83198078069E+02  0.00000000000E+00 0. -1.
        -14    1    4    4    0    0 -0.98106638318E+01 -0.14022756448E+02  0.42762374371E+01  0.17640097217E+02  0.00000000000E+00 0.  1.
</event>
<event>
12    1  0.9873238E-001  0.2501918E+03  0.7818608E-02  0.1113240E+00
         21   -1    0    0  503  502  0.00000000000E+00  0.00000000000E+00  0.53187841095E+03  0.53187841095E+03  0.00000000000E+00 0. -1.
         21   -1    0    0  501  503 -0.00000000000E+00 -0.00000000000E+00 -0.11859143634E+03  0.11859143634E+03  0.00000000000E+00 0. -1.
          6    2    1    2  501    0  0.50798621936E+02 -0.17517518111E+03  0.17557412215E+03  0.30535637001E+03  0.17073194272E+03 0.  0.
         24    2    3    3    0    0  0.79405213335E+02 -0.17403898101E+03  0.11232330115E+03  0.23576912707E+03  0.79848622297E+02 0.  0.
         -6    2    1    2    0  502 -0.50798621936E+02  0.17517518111E+03  0.23771285245E+03  0.34511347728E+03  0.17125731491E+03 0.  0.
        -24    2    5    5    0    0 -0.58811111758E+02  0.57131511143E+02  0.17952633989E+03  0.21318066007E+03  0.80582446476E+02 0.  0.
          5    1    3    3  501    0 -0.28606591399E+02 -0.11362001050E+01  0.63250821005E+02  0.69587242940E+02  0.47000000000E+01 0. -1.
        -11    1    4    4    0    0  0.21170042707E+02 -0.51539365083E+02  0.77999692815E+02  0.95856293172E+02  0.00000000000E+00 0.  1.
         12    1    4    4    0    0  0.58235170628E+02 -0.12249961593E+03  0.34323608332E+02  0.13991283390E+03  0.00000000000E+00 0. -1.
         -5    1    5    5    0  502  0.80124898220E+01  0.11804366997E+03  0.58186512564E+02  0.13193281721E+03  0.47000000000E+01 0.  1.
         11    1    6    6    0    0 -0.35155342981E+02 -0.14889781531E+00  0.12752118943E+03  0.13227839606E+03  0.00000000000E+00 0. -1.
        -12    1    6    6    0    0 -0.23655768777E+02  0.57280408958E+02  0.52005150460E+02  0.80902264006E+02  0.00000000000E+00 0.  1.
</event>
<event>
12    1  0.9873238E-001  0.2018444E+03  0.7818608E-02  0.1148254E+00
         21   -1    0    0  503  502  0.00000000000E+00  0.00000000000E+00  0.93294652250E+03  0.93294652250E+03  0.00000000000E+00 0.  1.
         21   -1    0    0  501  503 -0.00000000000E+00 -0.00000000000E+00 -0.45956888156E+02  0.45956888156E+02  0.00000000000E+00 0.  1.
          6    2    1    2  501    0  0.34034275800E+02 -0.10006220886E+03  0.33247117576E+03  0.38879165722E+03  0.17161320591E+03 0.  0.
         24    2    3    3    0    0 -0.82457808239E+01 -0.10399001426E+03  0.31785323329E+03  0.34363852792E+03  0.78580175557E+02 0.  0.
         -6    2    1    2    0  502 -0.34034275800E+02  0.10006220886E+03  0.55451845859E+03  0.59011175344E+03  0.17196041132E+03 0.  0.
        -24    2    5    5    0    0 -0.72425529459E+02  0.11263178928E+03  0.38111703300E+03  0.41200496776E+03  0.81034087537E+02 0.  0.
          5    1    3    3  501    0  0.42280056624E+02  0.39278054014E+01  0.14617942466E+02  0.45153129297E+02  0.47000000000E+01 0. -1.
        -13    1    4    4    0    0 -0.13962432165E+02 -0.40261188826E+01  0.12961615122E+03  0.13042816338E+03  0.00000000000E+00 0.  1.
         14    1    4    4    0    0  0.57166513412E+01 -0.99963895375E+02  0.18823708207E+03  0.21321036454E+03  0.00000000000E+00 0. -1.
         -5    1    5    5    0  502  0.38391253658E+02 -0.12569580419E+02  0.17340142559E+03  0.17810678569E+03  0.47000000000E+01 0.  1.
         13    1    6    6    0    0  0.71557613176E+01  0.15466064275E+02  0.13121482860E+03  0.13231679904E+03  0.00000000000E+00 0. -1.
        -14    1    6    6    0    0 -0.79581290776E+02  0.97165725001E+02  0.24990220440E+03  0.27968816872E+03  0.00000000000E+00 0.  1.
</event>
<event>
12    1  0.9873238E-001  0.1880174E+03  0.7818608E-02  0.1162888E+00
         21   -1    0    0  503  502  0.00000000000E+00  0.00000000000E+00  0.21541584334E+04  0.21541584334E+04  0.00000000000E+00 0. -1.
         21   -1    0    0  501  503 -0.00000000000E+00 -0.00000000000E+00 -0.19472866050E+02  0.19472866050E+02  0.00000000000E+00 0. -1.
          6    2    1    2  501    0  0.77200592695E+01 -0.45276333776E+02  0.15866928216E+04  0.15977936777E+04  0.18232109215E+03 0.  0.
         24    2    3    3    0    0 -0.14282409956E+01 -0.86037036947E+02  0.62376983543E+03  0.63395349716E+03  0.73510661583E+02 0.  0.
         -6    2    1    2    0  502 -0.77200592695E+01  0.45276333776E+02  0.54799274571E+03  0.57583762171E+03  0.17083141256E+03 0.  0.
        -24    2    5    5    0    0 -0.56187060530E+02 -0.73064816072E+00  0.42282725276E+03  0.43387219204E+03  0.79401975605E+02 0.  0.
          5    1    3    3  501    0  0.91483002651E+01  0.40760703171E+02  0.96292298621E+03  0.96384018058E+03  0.47000000000E+01 0. -1.
        -13    1    4    4    0    0  0.12771946570E+02 -0.12830582523E+01  0.25420447185E+03  0.25452835278E+03  0.00000000000E+00 0.  1.
         14    1    4    4    0    0 -0.14200187566E+02 -0.84753978695E+02  0.36956536358E+03  0.37942514438E+03  0.00000000000E+00 0. -1.
         -5    1    5    5    0  502  0.48467001260E+02  0.46006981937E+02  0.12516549295E+03  0.14196542967E+03  0.47000000000E+01 0.  1.
         11    1    6    6    0    0 -0.34442448403E+02  0.23982195929E+02  0.88707472149E+02  0.98134823526E+02  0.00000000000E+00 0. -1.
        -12    1    6    6    0    0 -0.21744612126E+02 -0.24712844089E+02  0.33411978061E+03  0.33573736851E+03  0.00000000000E+00 0.  1.
</event>
<event>
12    1  0.9873238E-001  0.1800882E+03  0.7818608E-02  0.1168800E+00
         21   -1    0    0  501  502  0.00000000000E+00  0.00000000000E+00  0.48220758827E+03  0.48220758827E+03  0.00000000000E+00 0.  1.
         21   -1    0    0  502  503 -0.00000000000E+00 -0.00000000000E+00 -0.67519331945E+02  0.67519331945E+02  0.00000000000E+00 0.  1.
         -6    2    1    2    0  503 -0.22418165154E+02 -0.48128457204E+02  0.25097473390E+03  0.30634677678E+03  0.16745479410E+03 0.  0.
        -24    2    3    3    0    0 -0.79512524388E+02 -0.35546283261E+02  0.17269573064E+03  0.20853180191E+03  0.77948170207E+02 0.  0.
          6    2    1    2  501    0  0.22418165154E+02  0.48128457204E+02  0.16371352243E+03  0.24338014344E+03  0.17208385825E+03 0.  0.
         24    2    5    5    0    0  0.37872574901E+01  0.98070789336E+02  0.10001236889E+03  0.16018594760E+03  0.77619848212E+02 0.  0.
          5    1    5    5  501    0  0.18630907664E+02 -0.49942332131E+02  0.63701153540E+02  0.83194195840E+02  0.47000000000E+01 0. -1.
        -11    1    6    6    0    0  0.17073283634E+02  0.77127222145E+02  0.10828861995E+03  0.13403928760E+03  0.00000000000E+00 0.  1.
         12    1    6    6    0    0 -0.13286026144E+02  0.20943567191E+02 -0.82762510602E+01  0.26146659996E+02  0.00000000000E+00 0. -1.
         -5    1    3    3    0  503  0.57094359234E+02 -0.12582173943E+02  0.78279003253E+02  0.97814974865E+02  0.47000000000E+01 0.  1.
         13    1    4    4    0    0 -0.18456219694E+02 -0.38198708728E+02  0.26357293793E+02  0.49944772799E+02  0.00000000000E+00 0. -1.
        -14    1    4    4    0    0 -0.61056304694E+02  0.26524254661E+01  0.14633843685E+03  0.15858702911E+03  0.00000000000E+00 0.  1.
</event>
<event>
12    1  0.9873238E-001  0.1747086E+03  0.7818608E-02  0.1173310E+00
         21   -1    0    0  501  502  0.00000000000E+00  0.00000000000E+00  0.91284599918E+03  0.91284599918E+03  0.00000000000E+00 0.  1.
         21   -1    0    0  502  503 -0.00000000000E+00 -0.00000000000E+00 -0.44685266240E+02  0.44685266240E+02  0.00000000000E+00 0.  1.
         -6    2    1    2    0  503  0.31217571132E+02 -0.24715731726E+00  0.19053831213E+03  0.25774898832E+03  0.17074863032E+03 0.  0.
        -24    2    3    3    0    0 -0.33444359402E+02  0.33979318107E+02  0.14896521012E+03  0.17346951459E+03  0.75019460359E+02 0.  0.
          6    2    1    2  501    0 -0.31217571132E+02  0.24715731726E+00  0.67762242081E+03  0.69978227710E+03  0.17189674903E+03 0.  0.
         24    2    5    5    0    0  0.16340218239E+01 -0.15379036635E+02  0.64876289453E+03  0.65310929397E+03  0.73615703184E+02 0.  0.
          5    1    5    5  501    0 -0.32851592956E+02  0.15626193952E+02  0.28859526275E+02  0.46672983128E+02  0.47000000000E+01 0. -1.
        -13    1    6    6    0    0  0.35308832136E+02 -0.17355888659E+02  0.27065788875E+03  0.27350252877E+03  0.00000000000E+00 0.  1.
         14    1    6    6    0    0 -0.33674810312E+02  0.19768520238E+01  0.37810500578E+03  0.37960676521E+03  0.00000000000E+00 0. -1.
         -5    1    3    3    0  503  0.64661930534E+02 -0.34226475425E+02  0.41573102008E+02  0.84279473723E+02  0.47000000000E+01 0.  1.
         11    1    4    4    0    0  0.15442491255E+02  0.11915948836E+02  0.96461505345E+02  0.98413832292E+02  0.00000000000E+00 0. -1.
        -12    1    4    4    0    0 -0.48886850657E+02  0.22063369272E+02  0.52503704775E+02  0.75055682302E+02  0.00000000000E+00 0.  1.
</event>
<event>
12    1  0.9873238E-001  0.2724369E+03  0.7818608E-02  0.1100081E+00
         21   -1    0    0  503  502  0.00000000000E+00  0.00000000000E+00  0.14053679688E+03  0.14053679688E+03  0.00000000000E+00 0. -1.
         21   -1    0    0  501  503 -0.00000000000E+00 -0.00000000000E+00 -0.52825078416E+03  0.52825078416E+03  0.00000000000E+00 0. -1.
          6    2    1    2  501    0  0.42204114386E+02 -0.20511215258E+03 -0.16956783974E+03  0.31977525087E+03  0.17219400800E+03 0.  0.
         24    2    3    3    0    0 -0.32739969397E+02 -0.62447141954E+02 -0.95428881017E+02  0.14232498699E+03  0.78601396018E+02 0.  0.
         -6    2    1    2    0  502 -0.42204114386E+02  0.20511215258E+03 -0.21814614755E+03  0.34901233017E+03  0.17426899470E+03 0.  0.
        -24    2    5    5    0    0  0.11315980498E+02  0.18862099921E+03 -0.12497642678E+03  0.24020495192E+03  0.79833444836E+02 0.  0.
          5    1    3    3  501    0  0.74944083783E+02 -0.14266501062E+03 -0.74138958721E+02  0.17745026388E+03  0.47000000000E+01 0. -1.
        -11    1    4    4    0    0 -0.10275399002E+02 -0.56000167316E+01  0.13224156330E+02  0.17658491518E+02  0.00000000000E+00 0.  1.
         12    1    4    4    0    0 -0.22464570395E+02 -0.56847125222E+02 -0.10865303735E+03  0.12466649547E+03  0.00000000000E+00 0. -1.
         -5    1    5    5    0  502 -0.53520094884E+02  0.16491153364E+02 -0.93169720761E+02  0.10880737825E+03  0.47000000000E+01 0.  1.
         13    1    6    6    0    0 -0.22574980422E+02  0.34053416165E+02 -0.40647230666E+01  0.41058334929E+02  0.00000000000E+00 0. -1.
        -14    1    6    6    0    0  0.33890960920E+02  0.15456758305E+03 -0.12091170372E+03  0.19914661699E+03  0.00000000000E+00 0.  1.
</event>
<event>
12    1  0.9873238E-001  0.4928041E+03  0.7818608E-02  0.1015699E+00
         21   -1    0    0  503  502  0.00000000000E+00  0.00000000000E+00  0.40355264834E+03  0.40355264834E+03  0.00000000000E+00 0.  1.
         21   -1    0    0  501  503 -0.00000000000E+00 -0.00000000000E+00 -0.70104231834E+03  0.70104231834E+03  0.00000000000E+00 0.  1.
          6    2    1    2  501    0 -0.41264931264E+03 -0.20728383616E+03  0.59480430010E+02  0.49638070009E+03  0.17207508218E+03 0.  0.
         24    2    3    3    0    0 -0.17138384834E+03 -0.32178419171E+02 -0.31203417548E+01  0.19173028084E+03  0.79642262178E+02 0.  0.
         -6    2    1    2    0  502  0.41264931264E+03  0.20728383616E+03 -0.35697010001E+03  0.60821426658E+03  0.17102893854E+03 0.  0.
        -24    2    5    5    0    0  0.17968556046E+03  0.14227258531E+03 -0.12495735147E+03  0.27302688906E+03  0.80005957862E+02 0.  0.
          5    1    3    3  501    0 -0.24126546430E+03 -0.17510541699E+03  0.62600771765E+02  0.30465041925E+03  0.47000000000E+01 0. -1.
        -13    1    4    4    0    0 -0.52576671975E+02 -0.48613051838E+02  0.26172958315E+01  0.71654626386E+02  0.00000000000E+00 0.  1.
         14    1    4    4    0    0 -0.11880717637E+03  0.16434632667E+02 -0.57376375863E+01  0.12007565445E+03  0.00000000000E+00 0. -1.
         -5    1    5    5    0  502  0.23296375218E+03  0.65011250847E+02 -0.23201274854E+03  0.33518737753E+03  0.47000000000E+01 0.  1.
         11    1    6    6    0    0  0.16507279386E+03  0.89048142295E+02 -0.96654654749E+02  0.21099933934E+03  0.00000000000E+00 0. -1.
        -12    1    6    6    0    0  0.14612766602E+02  0.53224443014E+02 -0.28302696724E+02  0.62027549716E+02  0.00000000000E+00 0.  1.
</event>
<event>
12    1  0.9873238E-001  0.2189954E+03  0.7818608E-02  0.1134875E+00
         21   -1    0    0  503  502  0.00000000000E+00  0.00000000000E+00  0.46736253666E+03  0.46736253666E+03  0.00000000000E+00 0. -1.
         21   -1    0    0  501  503 -0.00000000000E+00 -0.00000000000E+00 -0.11967555450E+03  0.11967555450E+03  0.00000000000E+00 0. -1.
          6    2    1    2  501    0 -0.53777621835E+02  0.12500444772E+03  0.60659586515E+02  0.22600663831E+03  0.16994490450E+03 0.  0.
         24    2    3    3    0    0  0.27734172236E+02  0.23955256451E+02  0.19017790480E+02  0.89583616771E+02  0.79501631542E+02 0.  0.
         -6    2    1    2    0  502  0.53777621835E+02 -0.12500444772E+03  0.28702739565E+03  0.36103145285E+03  0.17158333117E+03 0.  0.
        -24    2    5    5    0    0  0.98494705282E+02 -0.11775431240E+03  0.22078317238E+03  0.28064134693E+03  0.80293656912E+02 0.  0.
          5    1    3    3  501    0 -0.81511794071E+02  0.10104919127E+03  0.41641796035E+02  0.13642302154E+03  0.47000000000E+01 0. -1.
        -11    1    4    4    0    0 -0.14171341695E+02  0.32126549817E+02  0.29226733776E+02  0.45685272198E+02  0.00000000000E+00 0.  1.
         12    1    4    4    0    0  0.41905513931E+02 -0.81712933662E+01 -0.10208943296E+02  0.43898344574E+02  0.00000000000E+00 0. -1.
         -5    1    5    5    0  502 -0.44717083447E+02 -0.72501353191E+01  0.66244223262E+02  0.80390105920E+02  0.47000000000E+01 0.  1.
         13    1    6    6    0    0  0.52074232571E+02 -0.14569181849E+02  0.39570732143E+02  0.67006190758E+02  0.00000000000E+00 0. -1.
        -14    1    6    6    0    0  0.46420472711E+02 -0.10318513056E+03  0.18121244024E+03  0.21363515617E+03  0.00000000000E+00 0.  1.
</event>
<event>
12    1  0.9873238E-001  0.1977498E+03  0.7818608E-02  0.1151658E+00
         21   -1    0    0  501  502  0.00000000000E+00  0.00000000000E+00  0.94895307522E+02  0.94895307522E+02  0.00000000000E+00 0.  1.
         21   -1    0    0  502  503 -0.00000000000E+00 -0.00000000000E+00 -0.42213692356E+03  0.42213692356E+03  0.00000000000E+00 0.  1.
         -6    2    1    2    0  503 -0.19094051447E+02 -0.95170797477E+02 -0.20361694249E+03  0.28381978068E+03  0.17225488423E+03 0.  0.
        -24    2    3    3    0    0 -0.56957610804E+02 -0.85835017538E+02 -0.20637683959E+03  0.24444322742E+03  0.80927571622E+02 0.  0.
          6    2    1    2  501    0  0.19094051447E+02  0.95170797477E+02 -0.12362467355E+03  0.23321245040E+03  0.17228732867E+03 0.  0.
         24    2    5    5    0    0 -0.52556106655E+02  0.45928049370E+02 -0.54734554731E+02  0.12218753488E+03  0.84038039792E+02 0.  0.
          5    1    5    5  501    0  0.71650158103E+02  0.49242748107E+02 -0.68890118816E+02  0.11102491553E+03  0.47000000000E+01 0. -1.
        -13    1    6    6    0    0  0.32570275393E+01 -0.17336225335E+02 -0.29073343788E+02  0.34006062052E+02  0.00000000000E+00 0.  1.
         14    1    6    6    0    0 -0.55813134195E+02  0.63264274705E+02 -0.25661210943E+02  0.88181472825E+02  0.00000000000E+00 0. -1.
         -5    1    3    3    0  503  0.37863559357E+02 -0.93357799381E+01  0.27598971017E+01  0.39376553255E+02  0.47000000000E+01 0.  1.
         11    1    4    4    0    0  0.70093750599E+00  0.14234252461E+02 -0.13487800640E+02  0.19622079976E+02  0.00000000000E+00 0. -1.
        -12    1    4    4    0    0 -0.57658548310E+02 -0.10006927000E+03 -0.19288903895E+03  0.22482114745E+03  0.00000000000E+00 0.  1.
</event>
<event>
12    1  0.9873238E-001  0.2070761E+03  0.7818608E-02  0.1144243E+00
         21   -1    0    0  503  502  0.00000000000E+00  0.00000000000E+00  0.25312549971E+03  0.25312549971E+03  0.00000000000E+00 0. -1.
         21   -1    0    0  501  503 -0.00000000000E+00 -0.00000000000E+00 -0.17058593518E+03  0.17058593518E+03  0.00000000000E+00 0. -1.
          6    2    1    2  501    0 -0.10156889708E+03  0.54373459062E+02  0.67364187650E+02  0.21775781036E+03  0.17206921948E+03 0.  0.
         24    2    3    3    0    0 -0.13270645148E+03  0.68179784507E+02  0.72592565196E+02  0.18297868087E+03  0.77149412509E+02 0.  0.
         -6    2    1    2    0  502  0.10156889708E+03 -0.54373459062E+02  0.15175376886E+02  0.20595362453E+03  0.17004084653E+03 0.  0.
        -24    2    5    5    0    0  0.66864037133E+01 -0.52615089256E+02 -0.30889873836E+02  0.10036064779E+03  0.79404154223E+02 0.  0.
          5    1    3    3  501    0  0.31137554403E+02 -0.13806325445E+02 -0.52283775456E+01  0.34779129492E+02  0.47000000000E+01 0. -1.
        -13    1    4    4    0    0 -0.81412253516E+02  0.47652149392E+02  0.33459393468E+01  0.94392148372E+02  0.00000000000E+00 0.  1.
         14    1    4    4    0    0 -0.51294197968E+02  0.20527635115E+02  0.69246625849E+02  0.88586532498E+02  0.00000000000E+00 0. -1.
         -5    1    5    5    0  502  0.94882493367E+02 -0.17583698062E+01  0.46065250722E+02  0.10559297674E+03  0.47000000000E+01 0.  1.
         13    1    6    6    0    0 -0.32025114613E+02 -0.42051439181E+02 -0.61357224476E+01  0.53212579275E+02  0.00000000000E+00 0. -1.
        -14    1    6    6    0    0  0.38711518326E+02 -0.10563650074E+02 -0.24754151389E+02  0.47148068518E+02  0.00000000000E+00 0.  1.
</event>
<event>
12    1  0.9873238E-001  0.2948619E+03  0.7818608E-02  0.1088011E+00
         21   -1    0    0  503  502  0.00000000000E+00  0.00000000000E+00  0.52359156250E+03  0.52359156250E+03  0.00000000000E+00 0.  1.
         21   -1    0    0  501  503 -0.00000000000E+00 -0.00000000000E+00 -0.18577002730E+03  0.18577002730E+03  0.00000000000E+00 0.  1.
          6    2    1    2  501    0  0.13135641858E+02 -0.23933790389E+03  0.50807512264E+02  0.29787575231E+03  0.16939121342E+03 0.  0.
         24    2    3    3    0    0  0.20257553503E+02 -0.11197229806E+03  0.91482489163E+02  0.16390089303E+03  0.74473437574E+02 0.  0.
         -6    2    1    2    0  502 -0.13135641858E+02  0.23933790389E+03  0.28701402294E+03  0.41148583749E+03  0.17172177429E+03 0.  0.
        -24    2    5    5    0    0  0.23598256634E+02  0.16402535031E+03  0.10574564672E+03  0.21173180313E+03  0.78657621353E+02 0.  0.
          5    1    3    3  501    0 -0.71219116453E+01 -0.12736560583E+03 -0.40674976899E+02  0.13397485928E+03  0.47000000000E+01 0. -1.
        -11    1    4    4    0    0 -0.83765878723E+01  0.85563312286E+01  0.60493186322E+01  0.13415374925E+02  0.00000000000E+00 0.  1.
         12    1    4    4    0    0  0.28634141375E+02 -0.12052862929E+03  0.85433170530E+02  0.15048551810E+03  0.00000000000E+00 0. -1.
         -5    1    5    5    0  502 -0.36733898492E+02  0.75312553583E+02  0.18126837622E+03  0.19975403436E+03  0.47000000000E+01 0.  1.
         11    1    6    6    0    0  0.46119378468E+02  0.55087601229E+02  0.47910156907E+02  0.86354061944E+02  0.00000000000E+00 0. -1.
        -12    1    6    6    0    0 -0.22521121834E+02  0.10893774908E+03  0.57835489813E+02  0.12537774119E+03  0.00000000000E+00 0.  1.
</event>
<event>
12    1  0.9873238E-001  0.3975934E+03  0.7818608E-02  0.1044818E+00
         21   -1    0    0  503  502  0.00000000000E+00  0.00000000000E+00  0.21129567280E+04  0.21129567280E+04  0.00000000000E+00 0. -1.
         21   -1    0    0  501  503 -0.00000000000E+00 -0.00000000000E+00 -0.10855433584E+03  0.10855433584E+03  0.00000000000E+00 0. -1.
          6    2    1    2  501    0  0.60387763049E+02 -0.35069186060E+03  0.37698014245E+03  0.54622492256E+03  0.17209350717E+03 0.  0.
         24    2    3    3    0    0  0.86828794713E+02 -0.33492989527E+03  0.30717609753E+03  0.46979022891E+03  0.81415170238E+02 0.  0.
         -6    2    1    2    0  502 -0.60387763049E+02  0.35069186060E+03  0.16274222497E+04  0.16752861413E+04  0.17733869658E+03 0.  0.
        -24    2    5    5    0    0  0.28785560995E+02  0.10344909286E+03  0.58655673587E+03  0.60173876188E+03  0.80687110616E+02 0.  0.
          5    1    3    3  501    0 -0.26441031664E+02 -0.15761965321E+02  0.69804044924E+02  0.76434693654E+02  0.47000000000E+01 0. -1.
        -13    1    4    4    0    0  0.23882780612E+02 -0.92295203785E+02  0.39861762689E+02  0.10333320849E+03  0.00000000000E+00 0.  1.
         14    1    4    4    0    0  0.62946014100E+02 -0.24263469149E+03  0.26731433484E+03  0.36645702042E+03  0.00000000000E+00 0. -1.
         -5    1    5    5    0  502 -0.89173324044E+02  0.24724276773E+03  0.10408655138E+04  0.10735473794E+04  0.47000000000E+01 0.  1.
         13    1    6    6    0    0 -0.58744917280E+01  0.49003991878E+02  0.10670993200E+03  0.11757087420E+03  0.00000000000E+00 0. -1.
        -14    1    6    6    0    0  0.34660052723E+02  0.54445100984E+02  0.47984680387E+03  0.48416788768E+03  0.00000000000E+00 0.  1.
</event>
<event>
12    1  0.9873238E-001  0.1905252E+03  0.7818608E-02  0.1158071E+00
         21   -1    0    0  503  502  0.00000000000E+00  0.00000000000E+00  0.56258700291E+03  0.56258700291E+03  0.00000000000E+00 0. -1.
         21   -1    0    0  501  503 -0.00000000000E+00 -0.00000000000E+00 -0.64883717062E+02  0.64883717062E+02  0.00000000000E+00 0. -1.
          6    2    1    2  501    0 -0.56521844830E+02 -0.59523710973E+02  0.22198735657E+03  0.29253761675E+03  0.17193626617E+03 0.  0.
         24    2    3    3    0    0 -0.48500654707E+02  0.33414113934E+01  0.44341274072E+02  0.10386704743E+03  0.80366264179E+02 0.  0.
         -6    2    1    2    0  502  0.56521844830E+02  0.59523710973E+02  0.27571592928E+03  0.33493310322E+03  0.17153168473E+03 0.  0.
        -24    2    5    5    0    0 -0.27717258174E+02  0.55050025346E+02  0.18170414972E+03  0.20853474471E+03  0.81679801887E+02 0.  0.
          5    1    3    3  501    0 -0.80211901228E+01 -0.62865122367E+02  0.17764608249E+03  0.18867056932E+03  0.47000000000E+01 0. -1.
        -11    1    4    4    0    0  0.70593789325E+01 -0.13116019315E+01  0.47484202737E+02  0.48024000667E+02  0.00000000000E+00 0.  1.
         12    1    4    4    0    0 -0.55560033640E+02  0.46530133249E+01 -0.31429286643E+01  0.55843046762E+02  0.00000000000E+00 0. -1.
         -5    1    5    5    0  502  0.84239103004E+02  0.44736856269E+01  0.94011779562E+02  0.12639835851E+03  0.47000000000E+01 0.  1.
         13    1    6    6    0    0 -0.29750317500E+00  0.46154440048E+02  0.17205157710E+03  0.17813496577E+03  0.00000000000E+00 0. -1.
        -14    1    6    6    0    0 -0.27419754999E+02  0.88955852982E+01  0.96525726151E+01  0.30399778948E+02  0.00000000000E+00 0.  1.
</event>
<event>
12    1  0.9873238E-001  0.2429789E+03  0.7818608E-02  0.1117858E+00
         21   -1    0    0  501  502  0.00000000000E+00  0.00000000000E+00  0.39576649190E+03  0.39576649190E+03  0.00000000000E+00 0.  1.
         21   -1    0    0  502  503 -0.00000000000E+00 -0.00000000000E+00 -0.16382158492E+03  0.16382158492E+03  0.00000000000E+00 0.  1.
         -6    2    1    2    0  503  0.10370798759E+03  0.13665177103E+03  0.20003368483E+03  0.31472563129E+03  0.17207467770E+03 0.  0.
        -24    2    3    3    0    0  0.86653622078E+02  0.12946580336E+03  0.22424430302E+03  0.28389166386E+03  0.77709233132E+02 0.  0.
          6    2    1    2  501    0 -0.10370798759E+03 -0.13665177103E+03  0.31911222141E+02  0.24486244553E+03  0.17178544151E+03 0.  0.
         24    2    5    5    0    0 -0.96509585702E+02 -0.39384098263E+02  0.59236188687E+02  0.14346441324E+03  0.78790256301E+02 0.  0.
          5    1    5    5  501    0 -0.71984018898E+01 -0.97267672766E+02 -0.27324966546E+02  0.10139803229E+03  0.47000000000E+01 0. -1.
        -11    1    6    6    0    0 -0.21826107264E+02 -0.18087281069E+02  0.59385081742E+02  0.65803621696E+02  0.00000000000E+00 0.  1.
         12    1    6    6    0    0 -0.74683478438E+02 -0.21296817194E+02 -0.14889305527E+00  0.77660791545E+02  0.00000000000E+00 0. -1.
         -5    1    3    3    0  503  0.17054365514E+02  0.71859676643E+01 -0.24210618186E+02  0.30833967427E+02  0.47000000000E+01 0.  1.
         13    1    4    4    0    0  0.41813714595E+02  0.86837968133E+01  0.36420259194E+02  0.56126912752E+02  0.00000000000E+00 0. -1.
        -14    1    4    4    0    0  0.44839907484E+02  0.12078200655E+03  0.18782404382E+03  0.22776475111E+03  0.00000000000E+00 0.  1.
</event>
<event>
12    1  0.9873238E-001  0.1754317E+03  0.7818608E-02  0.1172708E+00
         21   -1    0    0  503  502  0.00000000000E+00  0.00000000000E+00  0.55837239477E+03  0.55837239477E+03  0.00000000000E+00 0.  1.
         21   -1    0    0  501  503 -0.00000000000E+00 -0.00000000000E+00 -0.73960702211E+02  0.73960702211E+02  0.00000000000E+00 0.  1.
          6    2    1    2  501    0  0.23097274165E+02 -0.94537746540E+01  0.79645680542E+02  0.19118482227E+03  0.17200390667E+03 0.  0.
         24    2    3    3    0    0 -0.65499171369E+01  0.16236863546E+02  0.11270646580E+03  0.13966715186E+03  0.80607870096E+02 0.  0.
         -6    2    1    2    0  502 -0.23097274165E+02  0.94537746540E+01  0.40476601202E+03  0.44114827471E+03  0.17364739521E+03 0.  0.
        -24    2    5    5    0    0 -0.44197082949E+02 -0.36622455141E+02  0.12660637928E+03  0.15837081421E+03  0.75878542133E+02 0.  0.
          5    1    3    3  501    0  0.29647191301E+02 -0.25690638200E+02 -0.33060785261E+02  0.51517670418E+02  0.47000000000E+01 0. -1.
        -13    1    4    4    0    0 -0.30340904939E+02  0.17075661744E+02  0.13009076538E+02  0.37166985469E+02  0.00000000000E+00 0.  1.
         14    1    4    4    0    0  0.23790987802E+02 -0.83879819755E+00  0.99697389264E+02  0.10250016639E+03  0.00000000000E+00 0. -1.
         -5    1    5    5    0  502  0.21099808784E+02  0.46076229795E+02  0.27815963274E+03  0.28277746051E+03  0.47000000000E+01 0.  1.
         13    1    6    6    0    0 -0.28947668691E+02  0.16473063127E+02  0.21534073417E+02  0.39661639520E+02  0.00000000000E+00 0. -1.
        -14    1    6    6    0    0 -0.15249414257E+02 -0.53095518269E+02  0.10507230586E+03  0.11870917469E+03  0.00000000000E+00 0.  1.
</event>
<event>
12    1  0.9873238E-001  0.2009844E+03  0.7818608E-02  0.1149446E+00
         21   -1    0    0  501  502  0.00000000000E+00  0.00000000000E+00  0.33723632618E+02  0.33723632618E+02  0.00000000000E+00 0. -1.
         21   -1    0    0  502  503 -0.00000000000E+00 -0.00000000000E+00 -0.12116600043E+04  0.12116600043E+04  0.00000000000E+00 0. -1.
         -6    2    1    2    0  503  0.94375297305E+02  0.33984541644E+02 -0.48916473272E+03  0.52788722902E+03  0.17123418181E+03 0.  0.
        -24    2    3    3    0    0  0.38635160971E+00  0.60059349812E+02 -0.26786873010E+03  0.28600331408E+03  0.80230694451E+02 0.  0.
          6    2    1    2  501    0 -0.94375297305E+02 -0.33984541644E+02 -0.68877163899E+03  0.71749640792E+03  0.17416394256E+03 0.  0.
         24    2    5    5    0    0 -0.32906633520E+02 -0.45932876184E+02 -0.18578414069E+03  0.21060423717E+03  0.81521298665E+02 0.  0.
          5    1    5    5  501    0 -0.61468663785E+02  0.11948334540E+02 -0.50298749830E+03  0.50689217075E+03  0.47000000000E+01 0. -1.
        -11    1    6    6    0    0 -0.12824330036E+02  0.23557729065E+02 -0.52669076232E+02  0.59105512693E+02  0.00000000000E+00 0.  1.
         12    1    6    6    0    0 -0.20082303484E+02 -0.69490605249E+02 -0.13311506446E+03  0.15149872448E+03  0.00000000000E+00 0. -1.
         -5    1    3    3    0  503  0.93988945695E+02 -0.26074808167E+02 -0.22129600261E+03  0.24188391494E+03  0.47000000000E+01 0.  1.
         11    1    4    4    0    0  0.32060122906E+02  0.54240138600E+02 -0.13055291923E+03  0.14496174956E+03  0.00000000000E+00 0. -1.
        -12    1    4    4    0    0 -0.31673771297E+02  0.58192112119E+01 -0.13731581087E+03  0.14104156452E+03  0.00000000000E+00 0.  1.
</event>
<event>
12    1  0.9873238E-001  0.2930274E+03  0.7818608E-02  0.1088835E+00
         21   -1    0    0  501  502  0.00000000000E+00  0.00000000000E+00  0.11013999445E+04  0.11013999445E+04  0.00000000000E+00 0. -1.
         21   -1    0    0  502  503 -0.00000000000E+00 -0.00000000000E+00 -0.88438239346E+02  0.88438239346E+02  0.00000000000E+00 0. -1.
         -6    2    1    2    0  503 -0.23217103866E+03 -0.48012730683E+02  0.30090071112E+03  0.42000752651E+03  0.17221054227E+03 0.  0.
        -24    2    3    3    0    0 -0.24917200794E+03 -0.30603861305E+02  0.25009864686E+03  0.36348282905E+03  0.80914448568E+02 0.  0.
          6    2    1    2  501    0  0.23217103866E+03  0.48012730683E+02  0.71206099405E+03  0.76983065736E+03  0.17146360622E+03 0.  0.
         24    2    5    5    0    0  0.28339966515E+02 -0.13589846496E+02  0.22992121282E+03  0.24274163060E+03  0.71217255561E+02 0.  0.
          5    1    5    5  501    0  0.20383107214E+03  0.61602577179E+02  0.48213978123E+03  0.52708902676E+03  0.47000000000E+01 0. -1.
        -11    1    6    6    0    0  0.32881542833E+02 -0.36208387207E+02  0.19384029215E+03  0.19991573731E+03  0.00000000000E+00 0.  1.
         12    1    6    6    0    0 -0.45415763183E+01  0.22618540711E+02  0.36080920671E+02  0.42825893287E+02  0.00000000000E+00 0. -1.
         -5    1    3    3    0  503  0.17000969279E+02 -0.17408869377E+02  0.50802064260E+02  0.56524697456E+02  0.47000000000E+01 0.  1.
         13    1    4    4    0    0  0.36265824976E+01 -0.93142015937E+01  0.79055356007E+01  0.12743780643E+02  0.00000000000E+00 0. -1.
        -14    1    4    4    0    0 -0.25279859044E+03 -0.21289659712E+02  0.24219311126E+03  0.35073904841E+03  0.00000000000E+00 0.  1.
</event>
<event>
12    1  0.9873238E-001  0.3171450E+03  0.7818608E-02  0.1077063E+00
         21   -1    0    0  501  502  0.00000000000E+00  0.00000000000E+00  0.16150024285E+04  0.16150024285E+04  0.00000000000E+00 0. -1.
         21   -1    0    0  502  503 -0.00000000000E+00 -0.00000000000E+00 -0.10005098069E+03  0.10005098069E+03  0.00000000000E+00 0.  1.
         -6    2    1    2    0  503  0.24179072346E+03  0.11113648257E+03  0.12860352528E+04  0.13245631822E+04  0.17253081042E+03 0.  0.
        -24    2    3    3    0    0  0.90867029672E+02 -0.39076402071E+00  0.65839913268E+03  0.66945595638E+03  0.80155410503E+02 0.  0.
          6    2    1    2  501    0 -0.24179072346E+03 -0.11113648257E+03  0.22891619498E+03  0.39049022694E+03  0.17107285378E+03 0.  0.
         24    2    5    5    0    0 -0.21711946962E+03 -0.40603218394E+02  0.13759293064E+03  0.27239856452E+03  0.80496446888E+02 0.  0.
          5    1    5    5  501    0 -0.24671253839E+02 -0.70533264176E+02  0.91323264346E+02  0.11809166242E+03  0.47000000000E+01 0. -1.
        -13    1    6    6    0    0 -0.20811839732E+03 -0.46466331784E+02  0.10423735624E+03  0.23735587991E+03  0.00000000000E+00 0.  1.
         14    1    6    6    0    0 -0.90010722920E+01  0.58631133897E+01  0.33355574398E+02  0.35042684607E+02  0.00000000000E+00 0. -1.
         -5    1    3    3    0  503  0.15092369378E+03  0.11152724659E+03  0.62763612012E+03  0.65510722584E+03  0.47000000000E+01 0.  1.
         13    1    4    4    0    0  0.10057241321E+03 -0.14177786805E+02  0.60475339146E+03  0.61322302991E+03  0.00000000000E+00 0. -1.
        -14    1    4    4    0    0 -0.97053835398E+01  0.13787022785E+02  0.53645741225E+02  0.56232926462E+02  0.00000000000E+00 0.  1.
</event>
<event>
12    1  0.9873238E-001  0.3283318E+03  0.7818608E-02  0.1071918E+00
         21   -1    0    0  501  502  0.00000000000E+00  0.00000000000E+00  0.44848778602E+03  0.44848778602E+03  0.00000000000E+00 0.  1.
         21   -1    0    0  502  503 -0.00000000000E+00 -0.00000000000E+00 -0.31369991356E+03  0.31369991356E+03  0.00000000000E+00 0.  1.
         -6    2    1    2    0  503  0.20068994382E+03 -0.19497437697E+03  0.25201816268E+03  0.41390207206E+03  0.17178565045E+03 0.  0.
        -24    2    3    3    0    0  0.97747191925E+02 -0.18449084958E+03  0.18749284166E+03  0.29186633316E+03  0.80255863648E+02 0.  0.
          6    2    1    2  501    0 -0.20068994382E+03  0.19497437697E+03 -0.11723029022E+03  0.34828562752E+03  0.17108032080E+03 0.  0.
         24    2    5    5    0    0 -0.20108973483E+03  0.11321151768E+03 -0.10232183449E+03  0.26504094574E+03  0.80765190005E+02 0.  0.
          5    1    5    5  501    0  0.39979100924E+00  0.81762859288E+02 -0.14908455739E+02  0.83244681778E+02  0.47000000000E+01 0. -1.
        -13    1    6    6    0    0 -0.78316276863E+02  0.18881164872E+01 -0.40199065090E+02  0.88050945705E+02  0.00000000000E+00 0.  1.
         14    1    6    6    0    0 -0.12277345797E+03  0.11132340120E+03 -0.62122769395E+02  0.17699000004E+03  0.00000000000E+00 0. -1.
         -5    1    3    3    0  503  0.10294275190E+03 -0.10483527394E+02  0.64525321025E+02  0.12203573890E+03  0.47000000000E+01 0.  1.
         13    1    4    4    0    0  0.10522522877E+03 -0.17194152938E+03  0.19003649162E+03  0.27703809565E+03  0.00000000000E+00 0. -1.
        -14    1    4    4    0    0 -0.74780368414E+01 -0.12549320198E+02 -0.25436499606E+01  0.14828237507E+02  0.00000000000E+00 0.  1.
</event>
<event>
12    1  0.9873238E-001  0.2679517E+03  0.7818608E-02  0.1102495E+00
         21   -1    0    0  501  502  0.00000000000E+00  0.00000000000E+00  0.18659930462E+03  0.18659930462E+03  0.00000000000E+00 0.  1.
         21   -1    0    0  502  503 -0.00000000000E+00 -0.00000000000E+00 -0.41315711979E+03  0.41315711979E+03  0.00000000000E+00 0.  1.
         -6    2    1    2    0  503  0.62832907438E+02 -0.19584752583E+03 -0.34112369177E+02  0.26985741539E+03  0.17133342722E+03 0.  0.
        -24    2    3    3    0    0  0.30719774448E+02 -0.19066124606E+03  0.16102617160E+02  0.20984253673E+03  0.80493357804E+02 0.  0.
          6    2    1    2  501    0 -0.62832907438E+02  0.19584752583E+03 -0.19244544600E+03  0.32989900902E+03  0.17173782005E+03 0.  0.
         24    2    5    5    0    0 -0.10382138137E+03  0.10337031290E+03 -0.11064421052E+03  0.19972365793E+03  0.78632673836E+02 0.  0.
          5    1    5    5  501    0  0.40988473934E+02  0.92477212925E+02 -0.81801235475E+02  0.13017535109E+03  0.47000000000E+01 0. -1.
        -13    1    6    6    0    0 -0.45210052667E+02  0.18417694619E+02 -0.76995697420E+02  0.91167416100E+02  0.00000000000E+00 0.  1.
         14    1    6    6    0    0 -0.58611328705E+02  0.84952618285E+02 -0.33648513104E+02  0.10855624183E+03  0.00000000000E+00 0. -1.
         -5    1    3    3    0  503  0.32113132990E+02 -0.51862797697E+01 -0.50214986336E+02  0.60014878664E+02  0.47000000000E+01 0.  1.
         13    1    4    4    0    0 -0.17633998474E+02 -0.66914861132E+02 -0.20248928223E+02  0.72101148650E+02  0.00000000000E+00 0. -1.
        -14    1    4    4    0    0  0.48353772922E+02 -0.12374638493E+03  0.36351545383E+02  0.13774138808E+03  0.00000000000E+00 0.  1.
</event>
<event>
12    1  0.9873238E-001  0.2332530E+03  0.7818608E-02  0.1124423E+00
         21   -1    0    0  501  502  0.00000000000E+00  0.00000000000E+00  0.26959972504E+03  0.26959972504E+03  0.00000000000E+00 0.  1.
         21   -1    0    0  502  503 -0.00000000000E+00 -0.00000000000E+00 -0.20157064136E+03  0.20157064136E+03  0.00000000000E+00 0.  1.
         -6    2    1    2    0  503  0.78439239962E+02  0.13629326590E+03  0.36762112792E+02  0.23613218704E+03  0.17227416557E+03 0.  0.
        -24    2    3    3    0    0  0.10049399964E+03  0.15430046830E+03  0.46222825908E+02  0.20576334025E+03  0.79336776299E+02 0.  0.
          6    2    1    2  501    0 -0.78439239962E+02 -0.13629326590E+03  0.31266970890E+02  0.23503817936E+03  0.17186260091E+03 0.  0.
         24    2    5    5    0    0 -0.95791991313E+02 -0.98886733096E+02 -0.28793568785E+02  0.16203321308E+03  0.80442531996E+02 0.  0.
          5    1    5    5  501    0  0.17352751351E+02 -0.37406532803E+02  0.60060539675E+02  0.73004966282E+02  0.47000000000E+01 0. -1.
        -11    1    6    6    0    0  0.77535855062E+01  0.28364225644E+01 -0.13835859485E+02  0.16111933120E+02  0.00000000000E+00 0.  1.
         12    1    6    6    0    0 -0.10354557682E+03 -0.10172315566E+03 -0.14957709300E+02  0.14592127996E+03  0.00000000000E+00 0. -1.
         -5    1    3    3    0  503 -0.22054759679E+02 -0.18007202402E+02 -0.94607131155E+01  0.30368846792E+02  0.47000000000E+01 0.  1.
         13    1    4    4    0    0  0.19351185236E+02  0.29383830289E+02  0.44587114217E+02  0.56796906665E+02  0.00000000000E+00 0. -1.
        -14    1    4    4    0    0  0.81142814406E+02  0.12491663801E+03  0.16357116905E+01  0.14896643358E+03  0.00000000000E+00 0.  1.
</event>
<event>
12    1  0.9873238E-001  0.2825408E+03  0.7818608E-02  0.1094511E+00
         21   -1    0    0  501  502  0.00000000000E+00  0.00000000000E+00  0.79715576304E+02  0.79715576304E+02  0.00000000000E+00 0. -1.
         21   -1    0    0  502  503 -0.00000000000E+00 -0.00000000000E+00 -0.12304267512E+04  0.12304267512E+04  0.00000000000E+00 0. -1.
         -6    2    1    2    0  503  0.20884846445E+03  0.82094845691E+02 -0.28829190647E+03  0.40262026868E+03  0.16921469387E+03 0.  0.
        -24    2    3    3    0    0  0.29350460940E+02  0.17553131732E+02 -0.12371145825E+03  0.15064015034E+03  0.78856629391E+02 0.  0.
          6    2    1    2  501    0 -0.20884846445E+03 -0.82094845691E+02 -0.86241926843E+03  0.90752205883E+03  0.17167424942E+03 0.  0.
         24    2    5    5    0    0 -0.23284668856E+03 -0.76547418591E+02 -0.77963625251E+03  0.82102462284E+03  0.78559896982E+02 0.  0.
          5    1    5    5  501    0  0.23998224117E+02 -0.55474270995E+01 -0.82783015917E+02  0.86497435988E+02  0.47000000000E+01 0. -1.
        -13    1    6    6    0    0 -0.16396096189E+03 -0.14404342765E+02 -0.50372086857E+03  0.52992961376E+03  0.00000000000E+00 0.  1.
         14    1    6    6    0    0 -0.68885726675E+02 -0.62143075827E+02 -0.27591538394E+03  0.29109500908E+03  0.00000000000E+00 0. -1.
         -5    1    3    3    0  503  0.17949800351E+03  0.64541713959E+02 -0.16458044822E+03  0.25198011834E+03  0.47000000000E+01 0.  1.
         11    1    4    4    0    0  0.10777918854E+02  0.45553418068E+02 -0.44458096132E+02  0.64558498621E+02  0.00000000000E+00 0. -1.
        -12    1    4    4    0    0  0.18572542086E+02 -0.28000286336E+02 -0.79253362121E+02  0.86081651714E+02  0.00000000000E+00 0.  1.
</event>
<event>
12    1  0.9873238E-001  0.2022946E+03  0.7818608E-02  0.1147964E+00
         21   -1    0    0  501  502  0.00000000000E+00  0.00000000000E+00  0.51603055052E+02  0.51603055052E+02  0.00000000000E+00 0.  1.
         21   -1    0    0  502  503 -0.00000000000E+00 -0.00000000000E+00 -0.94977780581E+03  0.94977780581E+03  0.00000000000E+00 0.  1.
         -6    2    1    2    0  503  0.58644812427E+02 -0.87617642817E+02 -0.24325342655E+03  0.31592840989E+03  0.17182102692E+03 0.  0.
        -24    2    3    3    0    0  0.44966916930E+02 -0.34105624898E+02 -0.24088673832E+03  0.26044587120E+03  0.81365925647E+02 0.  0.
          6    2    1    2  501    0 -0.58644812427E+02  0.87617642817E+02 -0.65492132421E+03  0.68545245097E+03  0.17264720177E+03 0.  0.
         24    2    5    5    0    0 -0.40289997928E+02 -0.20544934661E+02 -0.29696952032E+03  0.31103607007E+03  0.80666985865E+02 0.  0.
          5    1    5    5  501    0 -0.18354814498E+02  0.10816257748E+03 -0.35795180389E+03  0.37441638091E+03  0.47000000000E+01 0. -1.
        -13    1    6    6    0    0  0.22822451796E+02 -0.11714492728E+02 -0.12578664864E+03  0.12837591138E+03  0.00000000000E+00 0.  1.
         14    1    6    6    0    0 -0.63112449724E+02 -0.88304419330E+01 -0.17118287168E+03  0.18266015869E+03  0.00000000000E+00 0. -1.
         -5    1    3    3    0  503  0.13677895496E+02 -0.53512017919E+02 -0.23666882262E+01  0.55482538696E+02  0.47000000000E+01 0.  1.
         11    1    4    4    0    0  0.22053346609E+02 -0.44954674575E+02 -0.61639955975E+02  0.79415093247E+02  0.00000000000E+00 0. -1.
        -12    1    4    4    0    0  0.22913570322E+02  0.10849049676E+02 -0.17924678235E+03  0.18103077795E+03  0.00000000000E+00 0.  1.
</event>
<event>
12    1  0.9873238E-001  0.1735921E+03  0.7818608E-02  0.1174447E+00
         21   -1    0    0  501  502  0.00000000000E+00  0.00000000000E+00  0.56406964367E+02  0.56406964367E+02  0.00000000000E+00 0.  1.
         21   -1    0    0  502  503 -0.00000000000E+00 -0.00000000000E+00 -0.63060936436E+03  0.63060936436E+03  0.00000000000E+00 0.  1.
         -6    2    1    2    0  503  0.64220825343E+01  0.11192743839E+02 -0.15116429527E+03  0.23018441136E+03  0.17311180898E+03 0.  0.
        -24    2    3    3    0    0 -0.61488116584E+02  0.14863683861E+02 -0.10447999048E+03  0.14756004897E+03  0.82802065577E+02 0.  0.
          6    2    1    2  501    0 -0.64220825343E+01 -0.11192743839E+02 -0.42303810472E+03  0.45683191737E+03  0.17195244117E+03 0.  0.
         24    2    5    5    0    0 -0.51463945666E+02 -0.52187853600E+02 -0.31056896446E+03  0.32884455092E+03  0.79457832974E+02 0.  0.
          5    1    5    5  501    0  0.45041863132E+02  0.40995109761E+02 -0.11246914026E+03  0.12798736645E+03  0.47000000000E+01 0. -1.
        -11    1    6    6    0    0 -0.16480597168E+02 -0.56078323370E+01 -0.54900892562E+01  0.18253737880E+02  0.00000000000E+00 0.  1.
         12    1    6    6    0    0 -0.34983348497E+02 -0.46580021263E+02 -0.30507887520E+03  0.31059081304E+03  0.00000000000E+00 0. -1.
         -5    1    3    3    0  503  0.67910199118E+02 -0.36709400218E+01 -0.46684304796E+02  0.82624362383E+02  0.47000000000E+01 0.  1.
         13    1    4    4    0    0 -0.60175919121E+02  0.42922805888E+02 -0.61198351834E+02  0.95962215349E+02  0.00000000000E+00 0. -1.
        -14    1    4    4    0    0 -0.13121974625E+01 -0.28059122027E+02 -0.43281638644E+02  0.51597833625E+02  0.00000000000E+00 0.  1.
</event>
<event>
12    1  0.9873238E-001  0.2981825E+03  0.7818608E-02  0.1086199E+00
         21   -1    0    0  503  502  0.00000000000E+00  0.00000000000E+00  0.88236985041E+02  0.88236985041E+02  0.00000000000E+00 0.  1.
         21   -1    0    0  501  503 -0.00000000000E+00 -0.00000000000E+00 -0.13281463959E+04  0.13281463959E+04  0.00000000000E+00 0.  1.
          6    2    1    2  501    0 -0.13224817173E+03 -0.20394050914E+03 -0.27111636949E+03  0.40274006796E+03  0.17208767049E+03 0.  0.
         24    2    3    3    0    0 -0.12521585730E+03 -0.22642329109E+03 -0.24721406676E+03  0.36885291691E+03  0.89393298614E+02 0.  0.
         -6    2    1    2    0  502  0.13224817173E+03  0.20394050914E+03 -0.96879304135E+03  0.10136433130E+04  0.17271797464E+03 0.  0.
        -24    2    5    5    0    0  0.13189224010E+03  0.16771859454E+03 -0.57931325428E+03  0.62245442212E+03  0.79502019367E+02 0.  0.
          5    1    3    3  501    0 -0.70323144315E+01  0.22482781949E+02 -0.23902302730E+02  0.33887151049E+02  0.47000000000E+01 0. -1.
        -11    1    4    4    0    0 -0.21297746753E+02 -0.50568432877E+01 -0.11219029701E+01  0.21918584514E+02  0.00000000000E+00 0.  1.
         12    1    4    4    0    0 -0.10391811055E+03 -0.22136644780E+03 -0.24609216379E+03  0.34693433239E+03  0.00000000000E+00 0. -1.
         -5    1    5    5    0  502  0.35593163250E+00  0.36221914600E+02 -0.38947978708E+03  0.39118889085E+03  0.47000000000E+01 0.  1.
         13    1    6    6    0    0  0.90464944811E+02  0.12742019182E+03 -0.50307011824E+03  0.52678207581E+03  0.00000000000E+00 0. -1.
        -14    1    6    6    0    0  0.41427295290E+02  0.40298402717E+02 -0.76243136032E+02  0.95672346311E+02  0.00000000000E+00 0.  1.
</event>
<event>
12    1  0.9873238E-001  0.2931457E+03  0.7818608E-02  0.1088744E+00
         21   -1    0    0  503  502  0.00000000000E+00  0.00000000000E+00  0.59237834882E+03  0.59237834882E+03  0.00000000000E+00 0.  1.
         21   -1    0    0  501  503 -0.00000000000E+00 -0.00000000000E+00 -0.16308644762E+03  0.16308644762E+03  0.00000000000E+00 0. -1.
          6    2    1    2  501    0  0.78216817776E+02  0.22447441409E+03  0.34062184753E+03  0.44939699004E+03  0.17154526656E+03 0.  0.
         24    2    3    3    0    0  0.10353484821E+03  0.22920769915E+03  0.28955264107E+03  0.39200743959E+03  0.81076917792E+02 0.  0.
         -6    2    1    2    0  502 -0.78216817776E+02 -0.22447441409E+03  0.88670053674E+02  0.30606780640E+03  0.17119722699E+03 0.  0.
        -24    2    5    5    0    0 -0.10456524298E+03 -0.22444496393E+03  0.59859885160E+02  0.26674407072E+03  0.79118654808E+02 0.  0.
          5    1    3    3  501    0 -0.25318030436E+02 -0.47332850617E+01  0.51069206455E+02  0.57389550448E+02  0.47000000000E+01 0. -1.
        -13    1    4    4    0    0  0.10897953351E+02  0.88045899150E+02  0.60226621112E+02  0.10722915478E+03  0.00000000000E+00 0.  1.
         14    1    4    4    0    0  0.92636894861E+02  0.14116180000E+03  0.22932601996E+03  0.28477828481E+03  0.00000000000E+00 0. -1.
         -5    1    5    5    0  502  0.26348425202E+02 -0.29450160061E-01  0.28810168515E+02  0.39323735679E+02  0.47000000000E+01 0.  1.
         11    1    6    6    0    0 -0.23129937250E+02 -0.81911325346E+02  0.57230331991E+02  0.10256593059E+03  0.00000000000E+00 0. -1.
        -12    1    6    6    0    0 -0.81435305727E+02 -0.14253363859E+03  0.26295531684E+01  0.16417814013E+03  0.00000000000E+00 0.  1.
</event>
<event>
12    1  0.9873238E-001  0.1755795E+03  0.7818608E-02  0.1172479E+00
         21   -1    0    0  503  502  0.00000000000E+00  0.00000000000E+00  0.28006468807E+04  0.28006468807E+04  0.00000000000E+00 0.  1.
         21   -1    0    0  501  503 -0.00000000000E+00 -0.00000000000E+00 -0.21851177798E+02  0.21851177798E+02  0.00000000000E+00 0.  1.
          6    2    1    2  501    0 -0.25203587991E+02  0.10665425792E+02  0.23846978934E+04  0.23910571775E+04  0.17210871856E+03 0.  0.
         24    2    3    3    0    0 -0.51637780160E+01 -0.12621743070E+02  0.22861217321E+04  0.22876974378E+04  0.83791525490E+02 0.  0.
         -6    2    1    2    0  502  0.25203587991E+02 -0.10665425792E+02  0.39409780942E+03  0.43144088095E+03  0.17343349793E+03 0.  0.
        -24    2    5    5    0    0  0.80570366425E+02 -0.20126968257E+02  0.22634436877E+03  0.25447108751E+03  0.81406893475E+02 0.  0.
          5    1    3    3  501    0 -0.20039809975E+02  0.23287168862E+02  0.98576161322E+02  0.10335973974E+03  0.47000000000E+01 0. -1.
        -13    1    4    4    0    0 -0.37767350581E+02 -0.64648090973E+01  0.18169304838E+04  0.18173344628E+04  0.00000000000E+00 0.  1.
         14    1    4    4    0    0  0.32603572564E+02 -0.61569339727E+01  0.46919124827E+03  0.47036297498E+03  0.00000000000E+00 0. -1.
         -5    1    5    5    0  502 -0.55366778433E+02  0.94615424650E+01  0.16775344065E+03  0.17696979344E+03  0.47000000000E+01 0.  1.
         11    1    6    6    0    0  0.30810636776E+02 -0.37504502731E+02  0.17219686120E+03  0.17890679716E+03  0.00000000000E+00 0. -1.
        -12    1    6    6    0    0  0.49759729648E+02  0.17377534474E+02  0.54147507572E+02  0.75564290345E+02  0.00000000000E+00 0.  1.
</event>
<event>
12    1  0.9873238E-001  0.2163360E+03  0.7818608E-02  0.1136689E+00
         21   -1    0    0  503  502  0.00000000000E+00  0.00000000000E+00  0.99470836190E+03  0.99470836190E+03  0.00000000000E+00 0.  1.
         21   -1    0    0  501  503 -0.00000000000E+00 -0.00000000000E+00 -0.47025512354E+02  0.47025512354E+02  0.00000000000E+00 0.  1.
          6    2    1    2  501    0 -0.62078874507E+02  0.11518314456E+03  0.46143274520E+03  0.50953050973E+03  0.17198900706E+03 0.  0.
         24    2    3    3    0    0  0.33284423120E+02  0.39420131318E+02  0.21522675106E+03  0.23480578521E+03  0.78418128138E+02 0.  0.
         -6    2    1    2    0  502  0.62078874507E+02 -0.11518314456E+03  0.48625010435E+03  0.53220336453E+03  0.17227975443E+03 0.  0.
        -24    2    5    5    0    0  0.56987962720E+02 -0.71850242077E+02  0.46661975594E+03  0.48412947974E+03  0.90759414574E+02 0.  0.
          5    1    3    3  501    0 -0.95363297627E+02  0.75763013244E+02  0.24620599414E+03  0.27472472451E+03  0.47000000000E+01 0. -1.
        -11    1    4    4    0    0  0.32657047770E+02  0.17334673098E+01  0.25770605002E+02  0.41636663653E+02  0.00000000000E+00 0.  1.
         12    1    4    4    0    0  0.62737534948E+00  0.37686664008E+02  0.18945614606E+03  0.19316912156E+03  0.00000000000E+00 0. -1.
         -5    1    5    5    0  502  0.50909117874E+01 -0.43332902485E+02  0.19630348410E+02  0.48073884795E+02  0.47000000000E+01 0.  1.
         13    1    6    6    0    0  0.11335468470E+01 -0.11851455460E+02  0.16856182125E+01  0.12024276849E+02  0.00000000000E+00 0. -1.
        -14    1    6    6    0    0  0.55854415873E+02 -0.59998786616E+02  0.46493413773E+03  0.47210520289E+03  0.00000000000E+00 0.  1.
</event>
<event>
12    1  0.9873238E-001  0.2722969E+03  0.7818608E-02  0.1100276E+00
         21   -1    0    0  503  502  0.00000000000E+00  0.00000000000E+00  0.44797778801E+03  0.44797778801E+03  0.00000000000E+00 0. -1.
         21   -1    0    0  501  503 -0.00000000000E+00 -0.00000000000E+00 -0.16422240894E+03  0.16422240894E+03  0.00000000000E+00 0. -1.
          6    2    1    2  501    0  0.37539725820E+02  0.20690262426E+03  0.14306165734E+03  0.30570331143E+03  0.16961706836E+03 0.  0.
         24    2    3    3    0    0 -0.27761503633E+01  0.30457302235E+02  0.69870663674E+02  0.11041549028E+03  0.79839317264E+02 0.  0.
         -6    2    1    2    0  502 -0.37539725820E+02 -0.20690262426E+03  0.14069372173E+03  0.30649688553E+03  0.17299621546E+03 0.  0.
        -24    2    5    5    0    0 -0.82392015964E+02 -0.90250197179E+02  0.60670098337E+02  0.15801999515E+03  0.79723996702E+02 0.  0.
          5    1    3    3  501    0  0.40315876183E+02  0.17644532202E+03  0.73190993662E+02  0.19528782115E+03  0.47000000000E+01 0. -1.
        -13    1    4    4    0    0  0.10239783715E+02  0.55931220694E+02  0.45114354207E+02  0.72584155119E+02  0.00000000000E+00 0.  1.
         14    1    4    4    0    0 -0.13015934078E+02 -0.25473918459E+02  0.24756309467E+02  0.37831335160E+02  0.00000000000E+00 0. -1.
         -5    1    5    5    0  502  0.44852290144E+02 -0.11665242708E+03  0.80023623397E+02  0.14847689038E+03  0.47000000000E+01 0.  1.
         11    1    6    6    0    0 -0.18830295498E+02 -0.40526562001E+02  0.63054838281E+02  0.77284506124E+02  0.00000000000E+00 0. -1.
        -12    1    6    6    0    0 -0.63561720466E+02 -0.49723635178E+02 -0.23847399446E+01  0.80735489028E+02  0.00000000000E+00 0.  1.
</event>
<event>
12    1  0.9873238E-001  0.2281158E+03  0.7818608E-02  0.1128259E+00
         21   -1    0    0  503  502  0.00000000000E+00  0.00000000000E+00  0.10561187614E+03  0.10561187614E+03  0.00000000000E+00 0.  1.
         21   -1    0    0  501  503 -0.00000000000E+00 -0.00000000000E+00 -0.11651949665E+04  0.11651949665E+04  0.00000000000E+00 0.  1.
          6    2    1    2  501    0 -0.84474059870E+02  0.12239512436E+03 -0.45060077936E+02  0.23095409403E+03  0.17085944418E+03 0.  0.
         24    2    3    3    0    0 -0.42255477640E+02  0.14750677921E+03 -0.38970145141E+02  0.18123306049E+03  0.88221169208E+02 0.  0.
         -6    2    1    2    0  502  0.84474059870E+02 -0.12239512436E+03 -0.10145230124E+04  0.10398527486E+04  0.17297503522E+03 0.  0.
        -24    2    5    5    0    0  0.13741900975E+02 -0.12346514080E+03 -0.52688326448E+03  0.54708627551E+03  0.79151359021E+02 0.  0.
          5    1    3    3  501    0 -0.42218582230E+02 -0.25111654850E+02 -0.60899327958E+01  0.49721033540E+02  0.47000000000E+01 0. -1.
        -11    1    4    4    0    0 -0.47797302360E+02  0.57069326120E+02  0.14763435483E+02  0.75891034543E+02  0.00000000000E+00 0.  1.
         12    1    4    4    0    0  0.55418247207E+01  0.90437453094E+02 -0.53733580623E+02  0.10534202594E+03  0.00000000000E+00 0. -1.
         -5    1    5    5    0  502  0.70732158894E+02  0.10700164341E+01 -0.48763974790E+03  0.49276647306E+03  0.47000000000E+01 0.  1.
         13    1    6    6    0    0  0.44781359889E+02 -0.55350731885E+02 -0.22141342000E+03  0.23257896781E+03  0.00000000000E+00 0. -1.
        -14    1    6    6    0    0 -0.31039458913E+02 -0.68114408914E+02 -0.30546984448E+03  0.31450730770E+03  0.00000000000E+00 0.  1.
</event>
<event>
12    1  0.9873238E-001  0.2132419E+03  0.7818608E-02  0.1139116E+00
         21   -1    0    0  501  502  0.00000000000E+00  0.00000000000E+00  0.12857759980E+04  0.12857759980E+04  0.00000000000E+00 0. -1.
         21   -1    0    0  502  503 -0.00000000000E+00 -0.00000000000E+00 -0.54129174043E+02  0.54129174043E+02  0.00000000000E+00 0. -1.
         -6    2    1    2    0  503  0.11754748897E+03 -0.41801570739E+02  0.10115309716E+04  0.10337635211E+04  0.17293735179E+03 0.  0.
        -24    2    3    3    0    0  0.20211619402E+02 -0.29408970034E+00  0.70113590873E+03  0.70579351101E+03  0.78385723367E+02 0.  0.
          6    2    1    2  501    0 -0.11754748897E+03  0.41801570739E+02  0.22011585239E+03  0.30614165094E+03  0.17235700882E+03 0.  0.
         24    2    5    5    0    0 -0.13307950967E+02  0.11432309164E+01  0.30800539017E+02  0.86184019211E+02  0.79376340479E+02 0.  0.
          5    1    5    5  501    0 -0.10423953800E+03  0.40658339823E+02  0.18931531337E+03  0.21995763173E+03  0.47000000000E+01 0. -1.
        -11    1    6    6    0    0 -0.37881255237E+02  0.24485581956E+02  0.25688725146E+02  0.51908032342E+02  0.00000000000E+00 0.  1.
         12    1    6    6    0    0  0.24573304270E+02 -0.23342351040E+02  0.51118138712E+01  0.34275986869E+02  0.00000000000E+00 0. -1.
         -5    1    3    3    0  503  0.97335869564E+02 -0.41507481039E+02  0.31039506288E+03  0.32797001014E+03  0.47000000000E+01 0.  1.
         13    1    4    4    0    0  0.67166837406E+00 -0.22965951910E+02  0.59699393267E+03  0.59743588922E+03  0.00000000000E+00 0. -1.
        -14    1    4    4    0    0  0.19539951028E+02  0.22671862210E+02  0.10414197606E+03  0.10835762179E+03  0.00000000000E+00 0.  1.
</event>
<event>
12    1  0.9873238E-001  0.1900579E+03  0.7818608E-02  0.1159147E+00
         21   -1    0    0  503  502  0.00000000000E+00  0.00000000000E+00  0.31066494799E+03  0.31066494799E+03  0.00000000000E+00 0. -1.
         21   -1    0    0  501  503 -0.00000000000E+00 -0.00000000000E+00 -0.13722201411E+03  0.13722201411E+03  0.00000000000E+00 0. -1.
          6    2    1    2  501    0 -0.89807185304E+01 -0.79710037325E+02  0.17887085566E+03  0.26099195538E+03  0.17230111554E+03 0.  0.
         24    2    3    3    0    0  0.34755102159E+02  0.65227586103E+01  0.55407717282E+02  0.10410297029E+03  0.80727627135E+02 0.  0.
         -6    2    1    2    0  502  0.89807185304E+01  0.79710037325E+02 -0.54279217724E+01  0.18689500671E+03  0.16871851660E+03 0.  0.
        -24    2    5    5    0    0  0.25360342623E+02 -0.49796827700E+00 -0.44986994364E+02  0.95853112663E+02  0.80750198731E+02 0.  0.
          5    1    3    3  501    0 -0.43735820690E+02 -0.86232795935E+02  0.12346313838E+03  0.15688898509E+03  0.47000000000E+01 0. -1.
        -13    1    4    4    0    0  0.17544779650E+02 -0.35410123517E+02  0.39998957992E+02  0.56228220503E+02  0.00000000000E+00 0.  1.
         14    1    4    4    0    0  0.17210322510E+02  0.41932882127E+02  0.15408759290E+02  0.47874749788E+02  0.00000000000E+00 0. -1.
         -5    1    5    5    0  502 -0.16379624093E+02  0.80208005602E+02  0.39559072591E+02  0.91041894050E+02  0.47000000000E+01 0.  1.
         11    1    6    6    0    0 -0.45758765576E+01  0.21987751458E+02 -0.53002375628E+02  0.57564326477E+02  0.00000000000E+00 0. -1.
        -12    1    6    6    0    0  0.29936219181E+02 -0.22485719735E+02  0.80153812645E+01  0.38288786187E+02  0.00000000000E+00 0.  1.
</event>
<event>
12    1  0.9873238E-001  0.2534205E+03  0.7818608E-02  0.1111231E+00
         21   -1    0    0  503  502  0.00000000000E+00  0.00000000000E+00  0.36991083776E+03  0.36991083776E+03  0.00000000000E+00 0. -1.
         21   -1    0    0  501  503 -0.00000000000E+00 -0.00000000000E+00 -0.17334185567E+03  0.17334185567E+03  0.00000000000E+00 0. -1.
          6    2    1    2  501    0  0.17942380419E+02 -0.18483502107E+03  0.94681702718E+02  0.27011730114E+03  0.17179294955E+03 0.  0.
         24    2    3    3    0    0 -0.47459140564E+02 -0.14205421976E+03  0.42584359198E+02  0.17607593200E+03  0.82204226201E+02 0.  0.
         -6    2    1    2    0  502 -0.17942380419E+02  0.18483502107E+03  0.10188727938E+03  0.27313539230E+03  0.17244132566E+03 0.  0.
        -24    2    5    5    0    0  0.39983647860E+02  0.60185295564E+02  0.11271113736E+02  0.10843457780E+03  0.80062836315E+02 0.  0.
          5    1    3    3  501    0  0.65401520983E+02 -0.42780801311E+02  0.52097343521E+02  0.94041369139E+02  0.47000000000E+01 0. -1.
        -11    1    4    4    0    0 -0.39687932473E+01 -0.30473715365E+02  0.47094827683E+02  0.56234521804E+02  0.00000000000E+00 0.  1.
         12    1    4    4    0    0 -0.43490347317E+02 -0.11158050440E+03 -0.45104684858E+01  0.11984141019E+03  0.00000000000E+00 0. -1.
         -5    1    5    5    0  502 -0.57926028279E+02  0.12464972551E+03  0.90616165640E+02  0.16470081450E+03  0.47000000000E+01 0.  1.
         13    1    6    6    0    0  0.19336164606E+02 -0.17487879989E+02 -0.47022860819E+01  0.26491974305E+02  0.00000000000E+00 0. -1.
        -14    1    6    6    0    0  0.20647483254E+02  0.77673175553E+02  0.15973399818E+02  0.81942603491E+02  0.00000000000E+00 0.  1.
</event>
<event>
12    1  0.9873238E-001  0.2138986E+03  0.7818608E-02  0.1139060E+00
         21   -1    0    0  503  502  0.00000000000E+00  0.00000000000E+00  0.81769504783E+03  0.81769504783E+03  0.00000000000E+00 0.  1.
         21   -1    0    0  501  503 -0.00000000000E+00 -0.00000000000E+00 -0.67170930529E+02  0.67170930529E+02  0.00000000000E+00 0.  1.
          6    2    1    2  501    0  0.12577352837E+03  0.53444258306E+01  0.55981874987E+03  0.59829811248E+03  0.16945812275E+03 0.  0.
         24    2    3    3    0    0  0.15256067873E+02  0.14693179773E+02  0.17284931420E+03  0.19572024123E+03  0.89335828592E+02 0.  0.
         -6    2    1    2    0  502 -0.12577352837E+03 -0.53444258306E+01  0.19070536743E+03  0.28656786588E+03  0.17293079905E+03 0.  0.
        -24    2    5    5    0    0 -0.14346598205E+02 -0.42343079897E+02  0.11173808056E+03  0.14499532770E+03  0.80867083001E+02 0.  0.
          5    1    3    3  501    0  0.11051746050E+03 -0.93487539427E+01  0.38696943566E+03  0.40257787124E+03  0.47000000000E+01 0. -1.
        -13    1    4    4    0    0  0.89654553384E+01 -0.37326841493E+02  0.87794876805E+02  0.95820733030E+02  0.00000000000E+00 0.  1.
         14    1    4    4    0    0  0.62906125350E+01  0.52020021266E+02  0.85054437396E+02  0.99899508204E+02  0.00000000000E+00 0. -1.
         -5    1    5    5    0  502 -0.11142693017E+03  0.36998654066E+02  0.78967286868E+02  0.14157253817E+03  0.47000000000E+01 0.  1.
         13    1    6    6    0    0 -0.32775748975E+02 -0.42559683707E+02  0.30665580767E+02  0.61854298492E+02  0.00000000000E+00 0. -1.
        -14    1    6    6    0    0  0.18429150771E+02  0.21660381031E+00  0.81072499797E+02  0.83141029213E+02  0.00000000000E+00 0.  1.
</event>
<event>
12    1  0.9873238E-001  0.1811447E+03  0.7818608E-02  0.1166881E+00
         21   -1    0    0  501  502  0.00000000000E+00  0.00000000000E+00  0.17208990133E+02  0.17208990133E+02  0.00000000000E+00 0.  1.
         21   -1    0    0  502  503 -0.00000000000E+00 -0.00000000000E+00 -0.20493322298E+04  0.20493322298E+04  0.00000000000E+00 0.  1.
         -6    2    1    2    0  503 -0.54523294908E+02 -0.16056924776E+02 -0.73800818324E+03  0.75991412796E+03  0.17199647911E+03 0.  0.
        -24    2    3    3    0    0 -0.19356420903E+02  0.10973332820E+02 -0.68787752934E+03  0.69281333577E+03  0.79496778431E+02 0.  0.
          6    2    1    2  501    0  0.54523294908E+02  0.16056924776E+02 -0.12941150565E+04  0.13066270920E+04  0.17120152944E+03 0.  0.
         24    2    5    5    0    0  0.64615607082E+02 -0.28913876990E+02 -0.49798379795E+03  0.50914900544E+03  0.78953516431E+02 0.  0.
          5    1    5    5  501    0 -0.10092312174E+02  0.44970801766E+02 -0.79613125851E+03  0.79747808657E+03  0.47000000000E+01 0. -1.
        -13    1    6    6    0    0  0.21052666638E+02  0.77779034620E-01 -0.22572334219E+02  0.30866342417E+02  0.00000000000E+00 0.  1.
         14    1    6    6    0    0  0.43562940444E+02 -0.28991656025E+02 -0.47541146373E+03  0.47828266302E+03  0.00000000000E+00 0. -1.
         -5    1    3    3    0  503 -0.35166874004E+02 -0.27030257596E+02 -0.50130653900E+02  0.67100792197E+02  0.47000000000E+01 0.  1.
         11    1    4    4    0    0 -0.15899289842E+02 -0.33335583038E+02 -0.25508830052E+03  0.25774811265E+03  0.00000000000E+00 0. -1.
        -12    1    4    4    0    0 -0.34571310614E+01  0.44308915858E+02 -0.43278922882E+03  0.43506522311E+03  0.00000000000E+00 0.  1.
</event>
<event>
12    1  0.9873238E-001  0.1886106E+03  0.7818608E-02  0.1160683E+00
         21   -1    0    0  503  502  0.00000000000E+00  0.00000000000E+00  0.82222193164E+02  0.82222193164E+02  0.00000000000E+00 0. -1.
         21   -1    0    0  501  503 -0.00000000000E+00 -0.00000000000E+00 -0.49931657625E+03  0.49931657625E+03  0.00000000000E+00 0. -1.
          6    2    1    2  501    0  0.22375593733E+02  0.65464490910E+02 -0.92990339786E+02  0.20654891901E+03  0.17096486741E+03 0.  0.
         24    2    3    3    0    0 -0.28068880697E+02  0.82991338836E+02 -0.96128259868E+02  0.15284815607E+03  0.80290049711E+02 0.  0.
         -6    2    1    2    0  502 -0.22375593733E+02 -0.65464490910E+02 -0.32410404330E+03  0.37498985040E+03  0.17546421360E+03 0.  0.
        -24    2    5    5    0    0 -0.83410032789E+02 -0.44101107470E+02 -0.22096473436E+03  0.25316454944E+03  0.79779283129E+02 0.  0.
          5    1    3    3  501    0  0.50444474429E+02 -0.17526847926E+02  0.31379200822E+01  0.53700762947E+02  0.47000000000E+01 0. -1.
        -11    1    4    4    0    0  0.58592336019E+01  0.43398836580E+02 -0.90330014469E+02  0.10038576168E+03  0.00000000000E+00 0.  1.
         12    1    4    4    0    0 -0.33928114299E+02  0.39592502256E+02 -0.57982453991E+01  0.52462394384E+02  0.00000000000E+00 0. -1.
         -5    1    5    5    0  502  0.61034439057E+02 -0.21363383440E+02 -0.10313930894E+03  0.12182530095E+03  0.47000000000E+01 0.  1.
         11    1    6    6    0    0 -0.31301084201E+02 -0.15015558065E+02 -0.13435576425E+02  0.37225523100E+02  0.00000000000E+00 0. -1.
        -12    1    6    6    0    0 -0.52108948588E+02 -0.29085549404E+02 -0.20752915793E+03  0.21593902634E+03  0.00000000000E+00 0.  1.
</event>
<event>
12    1  0.9873238E-001  0.1786733E+03  0.7818608E-02  0.1169223E+00
         21   -1    0    0  501  502  0.00000000000E+00  0.00000000000E+00  0.18505938174E+03  0.18505938174E+03  0.00000000000E+00 0.  1.
         21   -1    0    0  502  503 -0.00000000000E+00 -0.00000000000E+00 -0.38044833417E+03  0.38044833417E+03  0.00000000000E+00 0.  1.
         -6    2    1    2    0  503  0.35039211173E+02  0.29605824299E+02  0.11166900023E+03  0.21024901494E+03  0.17213492243E+03 0.  0.
        -24    2    3    3    0    0  0.66802979023E+02  0.36347420596E+02  0.20964015746E+02  0.11379244296E+03  0.82008884453E+02 0.  0.
          6    2    1    2  501    0 -0.35039211173E+02 -0.29605824299E+02 -0.30705795266E+03  0.35525870097E+03  0.17268441496E+03 0.  0.
         24    2    5    5    0    0 -0.20161455912E+02 -0.25732053020E+02 -0.41282936210E+02  0.88997920766E+02  0.71747656558E+02 0.  0.
          5    1    5    5  501    0 -0.14877755261E+02 -0.38737712791E+01 -0.26577501645E+03  0.26626078020E+03  0.47000000000E+01 0. -1.
        -13    1    6    6    0    0 -0.30546312574E+01 -0.10992425113E+01  0.20269625231E+02  0.20527951997E+02  0.00000000000E+00 0.  1.
         14    1    6    6    0    0 -0.17106824655E+02 -0.24632810509E+02 -0.61552561441E+02  0.68469968769E+02  0.00000000000E+00 0. -1.
         -5    1    3    3    0  503 -0.31763767849E+02 -0.67415962964E+01  0.90704984481E+02  0.96456571981E+02  0.47000000000E+01 0.  1.
         11    1    4    4    0    0  0.53647813486E+02  0.16873458572E+01  0.44634014228E+02  0.69807809405E+02  0.00000000000E+00 0. -1.
        -12    1    4    4    0    0  0.13155165537E+02  0.34660074738E+02 -0.23669998481E+02  0.43984633559E+02  0.00000000000E+00 0.  1.
</event>
<event>
12    1  0.9873238E-001  0.2459868E+03  0.7818608E-02  0.1116514E+00
         21   -1    0    0  501  502  0.00000000000E+00  0.00000000000E+00  0.13450671171E+03  0.13450671171E+03  0.00000000000E+00 0.  1.
         21   -1    0    0  502  503 -0.00000000000E+00 -0.00000000000E+00 -0.49499148156E+03  0.49499148156E+03  0.00000000000E+00 0.  1.
         -6    2    1    2    0  503  0.14704669859E+03 -0.93373392300E+02 -0.76559737678E+02  0.25383486813E+03  0.16801614472E+03 0.  0.
        -24    2    3    3    0    0  0.12915060997E+03 -0.55685457240E+02  0.52297508798E+01  0.16189868985E+03  0.80019280669E+02 0.  0.
          6    2    1    2  501    0 -0.14704669859E+03  0.93373392300E+02 -0.28392503217E+03  0.37566332514E+03  0.17368991912E+03 0.  0.
         24    2    5    5    0    0 -0.68750568306E+02  0.70074293314E+02 -0.66268653103E+02  0.14313478629E+03  0.80367813432E+02 0.  0.
          5    1    5    5  501    0 -0.78296130285E+02  0.23299098986E+02 -0.21765637907E+03  0.23252853885E+03  0.47000000000E+01 0. -1.
        -11    1    6    6    0    0  0.43476102172E+01  0.49103824878E+02 -0.37055185756E+02  0.61669880198E+02  0.00000000000E+00 0.  1.
         12    1    6    6    0    0 -0.73098178523E+02  0.20970468436E+02 -0.29213467347E+02  0.81464906090E+02  0.00000000000E+00 0. -1.
         -5    1    3    3    0  503  0.17896088623E+02 -0.37687935060E+02 -0.81789488558E+02  0.91936178274E+02  0.47000000000E+01 0.  1.
         13    1    4    4    0    0  0.11252010019E+03 -0.97322075335E+01  0.31262667041E+01  0.11298346053E+03  0.00000000000E+00 0. -1.
        -14    1    4    4    0    0  0.16630509781E+02 -0.45953249707E+02  0.21034841757E+01  0.48915229324E+02  0.00000000000E+00 0.  1.
</event>
<event>
12    1  0.9873238E-001  0.2149362E+03  0.7818608E-02  0.1138732E+00
         21   -1    0    0  501  502  0.00000000000E+00  0.00000000000E+00  0.40185454569E+03  0.40185454569E+03  0.00000000000E+00 0. -1.
         21   -1    0    0  502  503 -0.00000000000E+00 -0.00000000000E+00 -0.11279089197E+03  0.11279089197E+03  0.00000000000E+00 0. -1.
         -6    2    1    2    0  503 -0.23157262912E+02 -0.12165568535E+03  0.12742189567E+03  0.24986778556E+03  0.17567357845E+03 0.  0.
        -24    2    3    3    0    0 -0.50471027941E+02 -0.90065419683E+02  0.15157475742E+03  0.20139679037E+03  0.83226531821E+02 0.  0.
          6    2    1    2  501    0  0.23157262912E+02  0.12165568535E+03  0.16164175805E+03  0.26477765210E+03  0.16924178711E+03 0.  0.
         24    2    5    5    0    0  0.53063956294E+02  0.13915043827E+03  0.10925807702E+03  0.20179656981E+03  0.81276689551E+02 0.  0.
          5    1    5    5  501    0 -0.29906693382E+02 -0.17494752920E+02  0.52383681029E+02  0.62981082294E+02  0.47000000000E+01 0. -1.
        -13    1    6    6    0    0 -0.99216907479E+01  0.81120125908E+02  0.69910717361E+02  0.10754730669E+03  0.00000000000E+00 0.  1.
         14    1    6    6    0    0  0.62985647042E+02  0.58030312358E+02  0.39347359661E+02  0.94249263116E+02  0.00000000000E+00 0. -1.
         -5    1    3    3    0  503  0.27313765029E+02 -0.31590265663E+02 -0.24152861751E+02  0.48470995198E+02  0.47000000000E+01 0.  1.
         13    1    4    4    0    0 -0.14918148828E+02 -0.57035879722E+02  0.13941634169E+03  0.15136895015E+03  0.00000000000E+00 0. -1.
        -14    1    4    4    0    0 -0.35552879113E+02 -0.33029539961E+02  0.12158415728E+02  0.50027840212E+02  0.00000000000E+00 0.  1.
</event>
<event>
12    1  0.9873238E-001  0.2187182E+03  0.7818608E-02  0.1135310E+00
         21   -1    0    0  501  502  0.00000000000E+00  0.00000000000E+00  0.39989005929E+02  0.39989005929E+02  0.00000000000E+00 0. -1.
         21   -1    0    0  502  503 -0.00000000000E+00 -0.00000000000E+00 -0.13584807758E+04  0.13584807758E+04  0.00000000000E+00 0. -1.
         -6    2    1    2    0  503  0.12331192669E+03  0.45843242218E+02 -0.91398718546E+03  0.93979265285E+03  0.17472899315E+03 0.  0.
        -24    2    3    3    0    0  0.82655014193E+02  0.98982507159E+02 -0.66973680220E+03  0.68650012289E+03  0.78138635834E+02 0.  0.
          6    2    1    2  501    0 -0.12331192669E+03 -0.45843242218E+02 -0.40450458445E+03  0.45867712892E+03  0.17161968311E+03 0.  0.
         24    2    5    5    0    0 -0.34626859136E+02  0.15273564933E+02 -0.28021489846E+03  0.29414651971E+03  0.81052357018E+02 0.  0.
          5    1    5    5  501    0 -0.88685067552E+02 -0.61116807152E+02 -0.12428968599E+03  0.16453060921E+03  0.47000000000E+01 0. -1.
        -13    1    6    6    0    0 -0.14019178735E+02  0.32083103217E+02 -0.43026943954E+02  0.55472342572E+02  0.00000000000E+00 0.  1.
         14    1    6    6    0    0 -0.20607680401E+02 -0.16809538284E+02 -0.23718795451E+03  0.23867417714E+03  0.00000000000E+00 0. -1.
         -5    1    3    3    0  503  0.40656912495E+02 -0.53139264941E+02 -0.24425038326E+03  0.25329252996E+03  0.47000000000E+01 0.  1.
         13    1    4    4    0    0  0.20885734760E+02  0.66237993836E+02 -0.46494822500E+03  0.47010694281E+03  0.00000000000E+00 0. -1.
        -14    1    4    4    0    0  0.61769279433E+02  0.32744513323E+02 -0.20478857720E+03  0.21639318008E+03  0.00000000000E+00 0.  1.
</event>
<event>
12    1  0.1012319E+000  0.5344891E+03  0.7818608E-02  0.1005203E+00
         21   -1    0    0  501  502  0.00000000000E+00  0.00000000000E+00  0.52593655662E+03  0.52593655662E+03  0.00000000000E+00 0. -1.
         21   -1    0    0  502  503 -0.00000000000E+00 -0.00000000000E+00 -0.87830151149E+03  0.87830151149E+03  0.00000000000E+00 0.  1.
         -6    2    1    2    0  503 -0.37190103123E+03  0.34199655689E+03  0.25801645730E+03  0.59350747566E+03  0.17437491067E+03 0.  0.
        -24    2    3    3    0    0 -0.11626194820E+03  0.92275275725E+02  0.34089003688E+02  0.17175203287E+03  0.79404870849E+02 0.  0.
          6    2    1    2  501    0  0.37190103123E+03 -0.34199655689E+03 -0.61038141217E+03  0.81073059244E+03  0.17160012600E+03 0.  0.
         24    2    5    5    0    0  0.11544572501E+03 -0.18594853014E+03 -0.24925489457E+03  0.34109801004E+03  0.79468727810E+02 0.  0.
          5    1    5    5  501    0  0.25645530623E+03 -0.15604802675E+03 -0.36112651760E+03  0.46963258240E+03  0.47000000000E+01 0. -1.
        -13    1    6    6    0    0  0.65914507010E+02 -0.37533121291E+02 -0.70715623016E+02  0.10370225054E+03  0.00000000000E+00 0.  1.
         14    1    6    6    0    0  0.49531217995E+02 -0.14841540885E+03 -0.17853927156E+03  0.23739575950E+03  0.00000000000E+00 0. -1.
         -5    1    3    3    0  503 -0.25563908303E+03  0.24972128117E+03  0.22392745361E+03  0.42175544279E+03  0.47000000000E+01 0.  1.
         13    1    4    4    0    0 -0.38128183961E+02  0.21293564410E+02  0.48439468496E+02  0.65219294734E+02  0.00000000000E+00 0. -1.
        -14    1    4    4    0    0 -0.78133764238E+02  0.70981711315E+02 -0.14350464808E+02  0.10653273814E+03  0.00000000000E+00 0.  1.
</event>
<event>
12    1  0.9873238E-001  0.5806947E+03  0.7818608E-02  0.9946696E-01
         21   -1    0    0  501  502  0.00000000000E+00  0.00000000000E+00  0.21814903890E+03  0.21814903890E+03  0.00000000000E+00 0.  1.
         21   -1    0    0  502  503 -0.00000000000E+00 -0.00000000000E+00 -0.17107456874E+04  0.17107456874E+04  0.00000000000E+00 0. -1.
         -6    2    1    2    0  503  0.45617988121E+03  0.31394844302E+03 -0.10480597070E+04  0.11981800575E+04  0.17476438953E+03 0.  0.
        -24    2    3    3    0    0  0.15326437960E+03  0.62645928346E+02 -0.27821261949E+03  0.33354291792E+03  0.80213054139E+02 0.  0.
          6    2    1    2  501    0 -0.45617988121E+03 -0.31394844302E+03 -0.44453694150E+03  0.73071466881E+03  0.17224147573E+03 0.  0.
         24    2    5    5    0    0 -0.10981001624E+03 -0.12469173064E+03 -0.12542466771E+03  0.22312731690E+03  0.80300591025E+02 0.  0.
          5    1    5    5  501    0 -0.34636986497E+03 -0.18925671238E+03 -0.31911227379E+03  0.50758735191E+03  0.47000000000E+01 0. -1.
        -11    1    6    6    0    0 -0.73646741044E+02 -0.12370249941E+03 -0.78822838722E+02  0.16413162624E+03  0.00000000000E+00 0.  1.
         12    1    6    6    0    0 -0.36163275199E+02 -0.98923122825E+00 -0.46601828989E+02  0.58995690662E+02  0.00000000000E+00 0. -1.
         -5    1    3    3    0  503  0.30291550161E+03  0.25130251467E+03 -0.76984708749E+03  0.86463713956E+03  0.47000000000E+01 0.  1.
         11    1    4    4    0    0  0.37553918288E+02  0.37688530157E+02 -0.14945173597E+03  0.15863966550E+03  0.00000000000E+00 0. -1.
        -12    1    4    4    0    0  0.11571046131E+03  0.24957398189E+02 -0.12876088352E+03  0.17490325242E+03  0.00000000000E+00 0.  1.
</event>
<event>
12    1  0.9873238E-001  0.2435715E+03  0.7818608E-02  0.1117621E+00
         21   -1    0    0  503  502  0.00000000000E+00  0.00000000000E+00  0.18799152461E+03  0.18799152461E+03  0.00000000000E+00 0.  1.
         21   -1    0    0  501  503 -0.00000000000E+00 -0.00000000000E+00 -0.33421199153E+03  0.33421199153E+03  0.00000000000E+00 0.  1.
          6    2    1    2  501    0  0.98798712427E+02  0.14175184165E+03 -0.89325701067E+01  0.24260551952E+03  0.17006727228E+03 0.  0.
         24    2    3    3    0    0  0.74361902960E+02  0.12251995270E+03 -0.66790283773E+02  0.17675243880E+03  0.78991462786E+02 0.  0.
         -6    2    1    2    0  502 -0.98798712427E+02 -0.14175184165E+03 -0.13728789681E+03  0.27959799662E+03  0.17167499211E+03 0.  0.
        -24    2    5    5    0    0 -0.15249754285E+02 -0.11268112194E+03 -0.13044477632E+03  0.19074725971E+03  0.80243922971E+02 0.  0.
          5    1    3    3  501    0  0.24436809467E+02  0.19231888954E+02  0.57857713666E+02  0.65853080720E+02  0.47000000000E+01 0. -1.
        -11    1    4    4    0    0  0.39354499509E+02  0.87510671599E+02 -0.80644528530E+02  0.12534127116E+03  0.00000000000E+00 0.  1.
         12    1    4    4    0    0  0.35007403452E+02  0.35009281100E+02  0.13854244757E+02  0.51411167633E+02  0.00000000000E+00 0. -1.
         -5    1    5    5    0  502 -0.83548958142E+02 -0.29070719716E+02 -0.68431204907E+01  0.88850736910E+02  0.47000000000E+01 0.  1.
         11    1    6    6    0    0 -0.26651022767E+02 -0.42745684546E+02 -0.10318804438E+03  0.11482701365E+03  0.00000000000E+00 0. -1.
        -12    1    6    6    0    0  0.11401268482E+02 -0.69935437391E+02 -0.27256731937E+02  0.75920246061E+02  0.00000000000E+00 0.  1.
</event>
<event>
12    1  0.9873238E-001  0.2402811E+03  0.7818608E-02  0.1121364E+00
         21   -1    0    0  501  502  0.00000000000E+00  0.00000000000E+00  0.74122684590E+02  0.74122684590E+02  0.00000000000E+00 0.  1.
         21   -1    0    0  502  503 -0.00000000000E+00 -0.00000000000E+00 -0.74873369871E+03  0.74873369871E+03  0.00000000000E+00 0. -1.
         -6    2    1    2    0  503 -0.44006315863E+02 -0.14608680979E+03 -0.30415275833E+03  0.38129738964E+03  0.17204908346E+03 0.  0.
        -24    2    3    3    0    0 -0.17154789363E+02 -0.15469023681E+02 -0.18343725429E+03  0.20136314210E+03  0.79776633439E+02 0.  0.
          6    2    1    2  501    0  0.44006315863E+02  0.14608680979E+03 -0.37045825579E+03  0.44155899366E+03  0.18562627444E+03 0.  0.
         24    2    5    5    0    0  0.98319718864E+02  0.12945151384E+03 -0.30374006783E+03  0.35380886305E+03  0.80611545154E+02 0.  0.
          5    1    5    5  501    0 -0.54313403002E+02  0.16635295955E+02 -0.66718187962E+02  0.87750130610E+02  0.47000000000E+01 0. -1.
        -11    1    6    6    0    0  0.74619789333E+02  0.77509685716E+02 -0.11890371451E+03  0.16035572227E+03  0.00000000000E+00 0.  1.
         12    1    6    6    0    0  0.23699929531E+02  0.51941828121E+02 -0.18483635332E+03  0.19345314078E+03  0.00000000000E+00 0. -1.
         -5    1    3    3    0  503 -0.26851526499E+02 -0.13061778611E+03 -0.12071550403E+03  0.17993424754E+03  0.47000000000E+01 0.  1.
         13    1    4    4    0    0 -0.12233349512E+02 -0.47226762754E+02 -0.13183452714E+03  0.14057156365E+03  0.00000000000E+00 0. -1.
        -14    1    4    4    0    0 -0.49214398517E+01  0.31757739073E+02 -0.51602727156E+02  0.60791578456E+02  0.00000000000E+00 0.  1.
</event>
<event>
12    1  0.9873238E-001  0.2569184E+03  0.7818608E-02  0.1109045E+00
         21   -1    0    0  501  502  0.00000000000E+00  0.00000000000E+00  0.37382795827E+03  0.37382795827E+03  0.00000000000E+00 0.  1.
         21   -1    0    0  502  503 -0.00000000000E+00 -0.00000000000E+00 -0.18097854843E+03  0.18097854843E+03  0.00000000000E+00 0.  1.
         -6    2    1    2    0  503  0.81758058327E+01 -0.19122685634E+03  0.52293898854E+02  0.26195347056E+03  0.17102752554E+03 0.  0.
        -24    2    3    3    0    0 -0.17499733767E+02 -0.20595537109E+03  0.62808655190E+02  0.23019166045E+03  0.79494765934E+02 0.  0.
          6    2    1    2  501    0 -0.81758058327E+01  0.19122685634E+03  0.14055551099E+03  0.29285303614E+03  0.17138405619E+03 0.  0.
         24    2    5    5    0    0  0.16375202132E+02  0.18579366232E+03  0.64622446809E+02  0.21272693661E+03  0.79304834188E+02 0.  0.
          5    1    5    5  501    0 -0.24551007964E+02  0.54331940247E+01  0.75933064184E+02  0.80126099529E+02  0.47000000000E+01 0. -1.
        -11    1    6    6    0    0  0.54619402792E+01  0.61349390710E+02 -0.16515327473E+02  0.63767833378E+02  0.00000000000E+00 0.  1.
         12    1    6    6    0    0  0.10913261852E+02  0.12444427161E+03  0.81137774283E+02  0.14895910323E+03  0.00000000000E+00 0. -1.
         -5    1    3    3    0  503  0.25675539599E+02  0.14728514751E+02 -0.10514756336E+02  0.31761810107E+02  0.47000000000E+01 0.  1.
         11    1    4    4    0    0  0.70309152161E+00  0.60090115693E+01  0.88338583152E+01  0.10706988861E+02  0.00000000000E+00 0. -1.
        -12    1    4    4    0    0 -0.18202825288E+02 -0.21196438266E+03  0.53974796875E+02  0.21948467159E+03  0.00000000000E+00 0.  1.
</event>
<event>
12    1  0.9873238E-001  0.2524230E+03  0.7818608E-02  0.1111944E+00
         21   -1    0    0  501  502  0.00000000000E+00  0.00000000000E+00  0.14149905783E+03  0.14149905783E+03  0.00000000000E+00 0. -1.
         21   -1    0    0  502  503 -0.00000000000E+00 -0.00000000000E+00 -0.45711769994E+03  0.45711769994E+03  0.00000000000E+00 0. -1.
         -6    2    1    2    0  503  0.16532990379E+03  0.80835966288E+02 -0.11630858359E+03  0.27699292780E+03  0.17125701416E+03 0.  0.
        -24    2    3    3    0    0  0.99628027414E+02  0.88236216319E+02 -0.14934053550E+02  0.15587156056E+03  0.79759286103E+02 0.  0.
          6    2    1    2  501    0 -0.16532990379E+03 -0.80835966288E+02 -0.19931005852E+03  0.32162382996E+03  0.17276850998E+03 0.  0.
         24    2    5    5    0    0 -0.17350221443E+03 -0.11107802824E+03 -0.17568557013E+03  0.28210705601E+03  0.79231463003E+02 0.  0.
          5    1    5    5  501    0  0.81723106390E+01  0.30242061951E+02 -0.23624488389E+02  0.39516773956E+02  0.47000000000E+01 0. -1.
        -11    1    6    6    0    0 -0.73435816823E+02 -0.84872071515E+02 -0.61283850820E+02  0.12787414941E+03  0.00000000000E+00 0.  1.
         12    1    6    6    0    0 -0.10006639761E+03 -0.26205956724E+02 -0.11440171931E+03  0.15423290660E+03  0.00000000000E+00 0. -1.
         -5    1    3    3    0  503  0.65701876376E+02 -0.74002500309E+01 -0.10137453004E+03  0.12112136724E+03  0.47000000000E+01 0.  1.
         11    1    4    4    0    0  0.28868462799E+02  0.54208444681E+02  0.26735553643E+02  0.66983083295E+02  0.00000000000E+00 0. -1.
        -12    1    4    4    0    0  0.70759564615E+02  0.34027771638E+02 -0.41669607193E+02  0.88888477267E+02  0.00000000000E+00 0.  1.
</event>
<event>
12    1  0.9873238E-001  0.1793370E+03  0.7818608E-02  0.1168659E+00
         21   -1    0    0  501  502  0.00000000000E+00  0.00000000000E+00  0.11755906767E+03  0.11755906767E+03  0.00000000000E+00 0. -1.
         21   -1    0    0  502  503 -0.00000000000E+00 -0.00000000000E+00 -0.27344330077E+03  0.27344330077E+03  0.00000000000E+00 0. -1.
         -6    2    1    2    0  503  0.39693913356E+02  0.29281368148E+02 -0.90656541167E+02  0.20017147769E+03  0.17151386750E+03 0.  0.
        -24    2    3    3    0    0  0.75722195744E+02 -0.22306652865E+02 -0.79056595184E+02  0.13601534165E+03  0.77580862542E+02 0.  0.
          6    2    1    2  501    0 -0.39693913356E+02 -0.29281368148E+02 -0.65227691925E+02  0.19083089076E+03  0.17242033463E+03 0.  0.
         24    2    5    5    0    0 -0.15588251139E+01 -0.45887995920E+02  0.22312678976E+02  0.93797537836E+02  0.78689162886E+02 0.  0.
          5    1    5    5  501    0 -0.38135088242E+02  0.16606627772E+02 -0.87540370901E+02  0.97033352919E+02  0.47000000000E+01 0. -1.
        -13    1    6    6    0    0  0.10664715013E+02  0.20384200877E+02  0.66206773065E+00  0.23014997836E+02  0.00000000000E+00 0.  1.
         14    1    6    6    0    0 -0.12223540127E+02 -0.66272196797E+02  0.21650611245E+02  0.70782540000E+02  0.00000000000E+00 0. -1.
         -5    1    3    3    0  503 -0.36028282388E+02  0.51588021013E+02 -0.11599945983E+02  0.64156136033E+02  0.47000000000E+01 0.  1.
         13    1    4    4    0    0  0.44466467944E+02 -0.45414574037E+02 -0.72805415195E+02  0.96645635122E+02  0.00000000000E+00 0. -1.
        -14    1    4    4    0    0  0.31255727799E+02  0.23107921172E+02 -0.62511799891E+01  0.39369706532E+02  0.00000000000E+00 0.  1.
</event>
<event>
12    1  0.9873238E-001  0.1883909E+03  0.7818608E-02  0.1160073E+00
         21   -1    0    0  501  502  0.00000000000E+00  0.00000000000E+00  0.35977056818E+03  0.35977056818E+03  0.00000000000E+00 0. -1.
         21   -1    0    0  502  503 -0.00000000000E+00 -0.00000000000E+00 -0.98958515587E+02  0.98958515587E+02  0.00000000000E+00 0. -1.
         -6    2    1    2    0  503 -0.68082662075E+00  0.74985357507E+02  0.14887367819E+03  0.23959140087E+03  0.17209706548E+03 0.  0.
        -24    2    3    3    0    0  0.18992792100E+02 -0.68940193397E+01  0.11879692050E+03  0.15004819912E+03  0.89406376087E+02 0.  0.
          6    2    1    2  501    0  0.68082662075E+00 -0.74985357507E+02  0.11193837441E+03  0.21913768290E+03  0.17282319589E+03 0.  0.
         24    2    5    5    0    0 -0.22604697025E+02 -0.46963542991E+02 -0.64457589230E+01  0.95184745361E+02  0.79385396915E+02 0.  0.
          5    1    5    5  501    0  0.23285523646E+02 -0.28021814516E+02  0.11838413333E+03  0.12395293754E+03  0.47000000000E+01 0. -1.
        -13    1    6    6    0    0  0.16133760040E+02 -0.43143844750E+02  0.17736430187E+02  0.49358591031E+02  0.00000000000E+00 0.  1.
         14    1    6    6    0    0 -0.38738457065E+02 -0.38196982410E+01 -0.24182189110E+02  0.45826154329E+02  0.00000000000E+00 0. -1.
         -5    1    3    3    0  503 -0.19673618720E+02  0.81879376846E+02  0.30076757690E+02  0.89543201749E+02  0.47000000000E+01 0.  1.
         11    1    4    4    0    0 -0.13814475942E+02 -0.24663915487E+02  0.30463257139E+01  0.28432878382E+02  0.00000000000E+00 0. -1.
        -12    1    4    4    0    0  0.32807268041E+02  0.17769896148E+02  0.11575059478E+03  0.12161532074E+03  0.00000000000E+00 0.  1.
</event>
<event>
12    1  0.9873238E-001  0.2033778E+03  0.7818608E-02  0.1147009E+00
         21   -1    0    0  501  502  0.00000000000E+00  0.00000000000E+00  0.74045899899E+03  0.74045899899E+03  0.00000000000E+00 0. -1.
         21   -1    0    0  502  503 -0.00000000000E+00 -0.00000000000E+00 -0.56311338965E+02  0.56311338965E+02  0.00000000000E+00 0. -1.
         -6    2    1    2    0  503 -0.90443832646E+02 -0.60183335341E+02  0.30240144941E+03  0.36442992198E+03  0.17193141281E+03 0.  0.
        -24    2    3    3    0    0 -0.82333162065E+02 -0.94670085615E+01  0.28959486404E+03  0.31128834308E+03  0.78529443092E+02 0.  0.
          6    2    1    2  501    0  0.90443832646E+02  0.60183335341E+02  0.38174621062E+03  0.43234041598E+03  0.17142329262E+03 0.  0.
         24    2    5    5    0    0  0.72366309772E+02  0.76252070059E+02  0.38532110961E+03  0.40744320787E+03  0.80537874013E+02 0.  0.
          5    1    5    5  501    0  0.18077522874E+02 -0.16068734718E+02 -0.35748989964E+01  0.24897208107E+02  0.47000000000E+01 0. -1.
        -13    1    6    6    0    0  0.48529051867E+02  0.16652388581E+02  0.77113169077E+02  0.92621875201E+02  0.00000000000E+00 0.  1.
         14    1    6    6    0    0  0.23837257905E+02  0.59599681478E+02  0.30820794053E+03  0.31482133267E+03  0.00000000000E+00 0. -1.
         -5    1    3    3    0  503 -0.81106705809E+01 -0.50716326779E+02  0.12806585377E+02  0.53141578903E+02  0.47000000000E+01 0.  1.
         13    1    4    4    0    0 -0.21009026252E+02  0.15904872882E+02  0.18519758901E+02  0.32207540037E+02  0.00000000000E+00 0. -1.
        -14    1    4    4    0    0 -0.61324135813E+02 -0.25371881444E+02  0.27107510514E+03  0.27908080304E+03  0.00000000000E+00 0.  1.
</event>
<event>
12    1  0.9873238E-001  0.2206538E+03  0.7818608E-02  0.1133564E+00
         21   -1    0    0  503  502  0.00000000000E+00  0.00000000000E+00  0.12192534617E+03  0.12192534617E+03  0.00000000000E+00 0.  1.
         21   -1    0    0  501  503 -0.00000000000E+00 -0.00000000000E+00 -0.42185345724E+03  0.42185345724E+03  0.00000000000E+00 0.  1.
          6    2    1    2  501    0 -0.46395685657E+02  0.13040872303E+03 -0.21531154013E+03  0.30829717996E+03  0.17184032463E+03 0.  0.
         24    2    3    3    0    0 -0.50713723137E+02  0.15516895874E+03 -0.14408911214E+03  0.23262394183E+03  0.81871476142E+02 0.  0.
         -6    2    1    2    0  502  0.46395685657E+02 -0.13040872303E+03 -0.84616570943E+02  0.23548162346E+03  0.17068285274E+03 0.  0.
        -24    2    5    5    0    0  0.15733830799E+02 -0.14538598995E+03 -0.28001386733E+02  0.16921068752E+03  0.80396141737E+02 0.  0.
          5    1    3    3  501    0  0.43180374794E+01 -0.24760235711E+02 -0.71222427989E+02  0.75673238128E+02  0.47000000000E+01 0. -1.
        -13    1    4    4    0    0 -0.44055729027E+02  0.25388463717E+02 -0.55943253868E+02  0.75598472229E+02  0.00000000000E+00 0.  1.
         14    1    4    4    0    0 -0.66579941100E+01  0.12978049502E+03 -0.88145858270E+02  0.15702546960E+03  0.00000000000E+00 0. -1.
         -5    1    5    5    0  502  0.30661854858E+02  0.14977266921E+02 -0.56615184210E+02  0.66270935944E+02  0.47000000000E+01 0.  1.
         13    1    6    6    0    0  0.29262079245E+02 -0.41647865398E+02 -0.38851252992E+02  0.64033068277E+02  0.00000000000E+00 0. -1.
        -14    1    6    6    0    0 -0.13528248446E+02 -0.10373812455E+03  0.10849866259E+02  0.10517761924E+03  0.00000000000E+00 0.  1.
</event>
<event>
12    1  0.9873238E-001  0.2014275E+03  0.7818608E-02  0.1150267E+00
         21   -1    0    0  501  502  0.00000000000E+00  0.00000000000E+00  0.16942614062E+03  0.16942614062E+03  0.00000000000E+00 0. -1.
         21   -1    0    0  502  503 -0.00000000000E+00 -0.00000000000E+00 -0.26209066371E+03  0.26209066371E+03  0.00000000000E+00 0. -1.
         -6    2    1    2    0  503  0.83956976991E+02  0.34097717129E+02  0.30032761318E+02  0.19566166165E+03  0.17079253727E+03 0.  0.
        -24    2    3    3    0    0  0.12923119786E+01 -0.20814137337E+02 -0.20100019955E+02  0.84377591089E+02  0.79250669981E+02 0.  0.
          6    2    1    2  501    0 -0.83956976991E+02 -0.34097717129E+02 -0.12269728440E+03  0.23585514268E+03  0.17989329179E+03 0.  0.
         24    2    5    5    0    0 -0.75025210166E+02  0.31470954749E+02 -0.23081313468E+02  0.11617031133E+03  0.79646663769E+02 0.  0.
          5    1    5    5  501    0 -0.89317668256E+01 -0.65568671879E+02 -0.99615970932E+02  0.11968483135E+03  0.47000000000E+01 0. -1.
        -13    1    6    6    0    0  0.50087594421E+01 -0.17106499864E+01  0.19091501817E+02  0.19811598526E+02  0.00000000000E+00 0.  1.
         14    1    6    6    0    0 -0.80033969608E+02  0.33181604736E+02 -0.42172815285E+02  0.96358712803E+02  0.00000000000E+00 0. -1.
         -5    1    3    3    0  503  0.82664665013E+02  0.54911854466E+02  0.50132781273E+02  0.11128407056E+03  0.47000000000E+01 0.  1.
         13    1    4    4    0    0  0.11248565183E+02 -0.49561413360E+02 -0.71853949063E+01  0.51327320336E+02  0.00000000000E+00 0. -1.
        -14    1    4    4    0    0 -0.99562532048E+01  0.28747276024E+02 -0.12914625049E+02  0.33050270752E+02  0.00000000000E+00 0.  1.
</event>
<event>
12    1  0.9873238E-001  0.1894313E+03  0.7818608E-02  0.1159217E+00
         21   -1    0    0  501  502  0.00000000000E+00  0.00000000000E+00  0.19196187655E+02  0.19196187655E+02  0.00000000000E+00 0.  1.
         21   -1    0    0  502  503 -0.00000000000E+00 -0.00000000000E+00 -0.20324949309E+04  0.20324949309E+04  0.00000000000E+00 0.  1.
         -6    2    1    2    0  503  0.95118455765E+01 -0.76248247524E+02 -0.13038930516E+04  0.13174291358E+04  0.17198304377E+03 0.  0.
        -24    2    3    3    0    0 -0.29232607205E+02 -0.10283409759E+03 -0.76311963927E+03  0.77459774988E+03  0.78871372003E+02 0.  0.
          6    2    1    2  501    0 -0.95118455765E+01  0.76248247524E+02 -0.70940569164E+03  0.73426198277E+03  0.17314720196E+03 0.  0.
         24    2    5    5    0    0  0.49533198835E+01 -0.64727147881E+01 -0.53245828565E+03  0.53834242502E+03  0.78957641893E+02 0.  0.
          5    1    5    5  501    0 -0.14465165460E+02  0.82720962312E+02 -0.17694740599E+03  0.19591955774E+03  0.47000000000E+01 0. -1.
        -11    1    6    6    0    0  0.16121452947E+02  0.33833178429E+02 -0.23999355939E+03  0.24290223085E+03  0.00000000000E+00 0.  1.
         12    1    6    6    0    0 -0.11168133063E+02 -0.40305893218E+02 -0.29246472626E+03  0.29544019417E+03  0.00000000000E+00 0. -1.
         -5    1    3    3    0  503  0.38744452781E+02  0.26585850061E+02 -0.54077341237E+03  0.54283138595E+03  0.47000000000E+01 0.  1.
         11    1    4    4    0    0  0.89926731589E+01 -0.16954527332E+02 -0.36604720572E+03  0.36654997065E+03  0.00000000000E+00 0. -1.
        -12    1    4    4    0    0 -0.38225280364E+02 -0.85879570253E+02 -0.39707243355E+03  0.40804777923E+03  0.00000000000E+00 0.  1.
</event>
<event>
12    1  0.9873238E-001  0.2070004E+03  0.7818608E-02  0.1144469E+00
         21   -1    0    0  501  502  0.00000000000E+00  0.00000000000E+00  0.28505129013E+03  0.28505129013E+03  0.00000000000E+00 0.  1.
         21   -1    0    0  502  503 -0.00000000000E+00 -0.00000000000E+00 -0.25942205405E+03  0.25942205405E+03  0.00000000000E+00 0.  1.
         -6    2    1    2    0  503  0.11142930961E+03 -0.22537031341E+02 -0.16513607694E+03  0.26480010148E+03  0.17298774816E+03 0.  0.
        -24    2    3    3    0    0 -0.71652176977E+01  0.10613345093E+02  0.49501349435E+00  0.58355538741E+02  0.56931014611E+02 0.  0.
          6    2    1    2  501    0 -0.11142930961E+03  0.22537031341E+02  0.19076531303E+03  0.27967324270E+03  0.17000385056E+03 0.  0.
         24    2    5    5    0    0 -0.76311012366E+02 -0.26817536526E+02  0.18682862690E+03  0.21879011147E+03  0.80135049600E+02 0.  0.
          5    1    5    5  501    0 -0.35118297243E+02  0.49354567867E+02  0.39366861311E+01  0.60883131230E+02  0.47000000000E+01 0. -1.
        -13    1    6    6    0    0  0.17010858439E+02 -0.65324236666E+01  0.34032102871E+02  0.38603444013E+02  0.00000000000E+00 0.  1.
         14    1    6    6    0    0 -0.93321870805E+02 -0.20285112859E+02  0.15279652403E+03  0.18018666746E+03  0.00000000000E+00 0. -1.
         -5    1    3    3    0  503  0.11859452731E+03 -0.33150376434E+02 -0.16563109044E+03  0.20644456274E+03  0.47000000000E+01 0.  1.
         13    1    4    4    0    0 -0.15384693561E+02 -0.22105595118E+01 -0.24541676305E+02  0.29049427622E+02  0.00000000000E+00 0. -1.
        -14    1    4    4    0    0  0.82194758629E+01  0.12823904605E+02  0.25036689800E+02  0.29306111119E+02  0.00000000000E+00 0.  1.
</event>
<event>
12    1  0.9873238E-001  0.2005431E+03  0.7818608E-02  0.1149954E+00
         21   -1    0    0  503  502  0.00000000000E+00  0.00000000000E+00  0.32387981879E+03  0.32387981879E+03  0.00000000000E+00 0. -1.
         21   -1    0    0  501  503 -0.00000000000E+00 -0.00000000000E+00 -0.12234439390E+03  0.12234439390E+03  0.00000000000E+00 0. -1.
          6    2    1    2  501    0 -0.95651114338E+02  0.29427919308E+01  0.92816978295E+02  0.21810747691E+03  0.17262121632E+03 0.  0.
         24    2    3    3    0    0  0.14692826077E+02 -0.16595350729E+02  0.24279970730E+02  0.86665719423E+02  0.80188185791E+02 0.  0.
         -6    2    1    2    0  502  0.95651114338E+02 -0.29427919308E+01  0.10871844660E+03  0.22811673577E+03  0.17623776216E+03 0.  0.
        -24    2    5    5    0    0  0.43882442252E+02  0.40084431490E+01  0.13991514335E+03  0.16709510873E+03  0.80017446020E+02 0.  0.
          5    1    3    3  501    0 -0.11034394042E+03  0.19538142660E+02  0.68537007566E+02  0.13144175749E+03  0.47000000000E+01 0. -1.
        -11    1    4    4    0    0  0.10334116482E+02  0.20699722335E+02 -0.18588073648E+02  0.29678088721E+02  0.00000000000E+00 0.  1.
         12    1    4    4    0    0  0.43587095956E+01 -0.37295073064E+02  0.42868044377E+02  0.56987630701E+02  0.00000000000E+00 0. -1.
         -5    1    5    5    0  502  0.51768672086E+02 -0.69512350798E+01 -0.31196696757E+02  0.61021627045E+02  0.47000000000E+01 0.  1.
         11    1    6    6    0    0  0.31654107396E+01 -0.13815661421E+02 -0.53747580090E+01  0.15158507489E+02  0.00000000000E+00 0. -1.
        -12    1    6    6    0    0  0.40717031512E+02  0.17824104570E+02  0.14528990136E+03  0.15193660124E+03  0.00000000000E+00 0.  1.
</event>
<event>
12    1  0.9873238E-001  0.2112602E+03  0.7818608E-02  0.1140672E+00
         21   -1    0    0  501  502  0.00000000000E+00  0.00000000000E+00  0.42275815115E+03  0.42275815115E+03  0.00000000000E+00 0. -1.
         21   -1    0    0  502  503 -0.00000000000E+00 -0.00000000000E+00 -0.10595643848E+03  0.10595643848E+03  0.00000000000E+00 0. -1.
         -6    2    1    2    0  503 -0.11424575526E+03 -0.43070190931E+02  0.17911405342E+03  0.27697058318E+03  0.17240570140E+03 0.  0.
        -24    2    3    3    0    0 -0.14731622269E+03 -0.19088257649E+02  0.12950095393E+03  0.21253194120E+03  0.79579506871E+02 0.  0.
          6    2    1    2  501    0  0.11424575526E+03  0.43070190931E+02  0.13768765926E+03  0.25174400644E+03  0.17178480528E+03 0.  0.
         24    2    5    5    0    0  0.12277686822E+03  0.11742765689E+02  0.15610624284E+03  0.21412058712E+03  0.79160690125E+02 0.  0.
          5    1    5    5  501    0 -0.85311129592E+01  0.31327425243E+02 -0.18418583574E+02  0.37623419323E+02  0.47000000000E+01 0. -1.
        -13    1    6    6    0    0  0.78829016746E+02  0.40647232217E+02  0.69027903338E+02  0.11238800117E+03  0.00000000000E+00 0.  1.
         14    1    6    6    0    0  0.43947851474E+02 -0.28904466528E+02  0.87078339498E+02  0.10173258595E+03  0.00000000000E+00 0. -1.
         -5    1    3    3    0  503  0.33070467431E+02 -0.23981933283E+02  0.49613099486E+02  0.64438641983E+02  0.47000000000E+01 0.  1.
         13    1    4    4    0    0 -0.33971574472E+02 -0.28417210932E+02  0.60850712830E+01  0.44706082828E+02  0.00000000000E+00 0. -1.
        -14    1    4    4    0    0 -0.11334464822E+03  0.93289532833E+01  0.12341588265E+03  0.16782585837E+03  0.00000000000E+00 0.  1.
</event>
<event>
12    1  0.9873238E-001  0.2689193E+03  0.7818608E-02  0.1102028E+00
         21   -1    0    0  501  502  0.00000000000E+00  0.00000000000E+00  0.70832812850E+03  0.70832812850E+03  0.00000000000E+00 0.  1.
         21   -1    0    0  502  503 -0.00000000000E+00 -0.00000000000E+00 -0.10382207496E+03  0.10382207496E+03  0.00000000000E+00 0.  1.
         -6    2    1    2    0  503 -0.18838854036E+03  0.83643620096E+02  0.35901863827E+03  0.44803256676E+03  0.17132513221E+03 0.  0.
        -24    2    3    3    0    0 -0.18378718982E+03  0.97040725052E+02  0.36834351905E+03  0.43043432112E+03  0.80013269616E+02 0.  0.
          6    2    1    2  501    0  0.18838854036E+03 -0.83643620096E+02  0.24548741527E+03  0.36411763670E+03  0.17271677676E+03 0.  0.
         24    2    5    5    0    0  0.14662297476E+03  0.78153475505E+01  0.17066351427E+03  0.23869909184E+03  0.79321150756E+02 0.  0.
          5    1    5    5  501    0  0.41765565598E+02 -0.91458967646E+02  0.74823900999E+02  0.12541854485E+03  0.47000000000E+01 0. -1.
        -13    1    6    6    0    0  0.15593115893E+03  0.29320115782E+01  0.16364861687E+03  0.22606192253E+03  0.00000000000E+00 0.  1.
         14    1    6    6    0    0 -0.93081841626E+01  0.48833359723E+01  0.70148974057E+01  0.12637169313E+02  0.00000000000E+00 0. -1.
         -5    1    3    3    0  503 -0.46013505448E+01 -0.13397104956E+02 -0.93248807749E+01  0.17598245637E+02  0.47000000000E+01 0.  1.
         11    1    4    4    0    0 -0.11402348750E+03  0.35849136406E+02  0.14077734376E+03  0.18467478658E+03  0.00000000000E+00 0. -1.
        -12    1    4    4    0    0 -0.69763702317E+02  0.61191588646E+02  0.22756617529E+03  0.24575953454E+03  0.00000000000E+00 0.  1.
</event>
<event>
12    1  0.9873238E-001  0.2234559E+03  0.7818608E-02  0.1131867E+00
         21   -1    0    0  503  502  0.00000000000E+00  0.00000000000E+00  0.12100425108E+03  0.12100425108E+03  0.00000000000E+00 0. -1.
         21   -1    0    0  501  503 -0.00000000000E+00 -0.00000000000E+00 -0.46675534181E+03  0.46675534181E+03  0.00000000000E+00 0. -1.
          6    2    1    2  501    0  0.14260546796E+03 -0.38594784576E+01 -0.27676826545E+03  0.35389818519E+03  0.16820237113E+03 0.  0.
         24    2    3    3    0    0  0.16808820304E+03 -0.27809983657E+02 -0.24637081461E+03  0.30732467873E+03  0.68722926855E+02 0.  0.
         -6    2    1    2    0  502 -0.14260546796E+03  0.38594784576E+01 -0.68982825279E+02  0.23386140769E+03  0.17199218807E+03 0.  0.
        -24    2    5    5    0    0 -0.83404619916E+02  0.25468600901E+02  0.24669294963E+02  0.12088130233E+03  0.79992092628E+02 0.  0.
          5    1    3    3  501    0 -0.25482735075E+02  0.23950505200E+02 -0.30397450844E+02  0.46573506460E+02  0.47000000000E+01 0. -1.
        -11    1    4    4    0    0  0.11768800282E+03  0.96216369667E+01 -0.18540644554E+03  0.21981490385E+03  0.00000000000E+00 0.  1.
         12    1    4    4    0    0  0.50400200218E+02 -0.37431620624E+02 -0.60964369070E+02  0.87509774886E+02  0.00000000000E+00 0. -1.
         -5    1    5    5    0  502 -0.59200848049E+02 -0.21609122444E+02 -0.93652120242E+02  0.11298010536E+03  0.47000000000E+01 0.  1.
         13    1    6    6    0    0 -0.38600950715E+02 -0.20688478477E+02  0.34572990300E+02  0.55797295598E+02  0.00000000000E+00 0. -1.
        -14    1    6    6    0    0 -0.44803669201E+02  0.46157079378E+02 -0.99036953367E+01  0.65084006729E+02  0.00000000000E+00 0.  1.
</event>
<event>
12    1  0.9873238E-001  0.2133111E+03  0.7818608E-02  0.1139168E+00
         21   -1    0    0  501  502  0.00000000000E+00  0.00000000000E+00  0.21945020550E+04  0.21945020550E+04  0.00000000000E+00 0.  1.
         21   -1    0    0  502  503 -0.00000000000E+00 -0.00000000000E+00 -0.22084576285E+02  0.22084576285E+02  0.00000000000E+00 0.  1.
         -6    2    1    2    0  503  0.12125091195E+03 -0.29229976754E+02  0.13724677308E+04  0.13889453890E+04  0.17304752611E+03 0.  0.
        -24    2    3    3    0    0  0.68158864326E+02  0.44308560046E+02  0.55158080878E+03  0.56304944477E+03  0.78577410010E+02 0.  0.
          6    2    1    2  501    0 -0.12125091195E+03  0.29229976754E+02  0.79994974789E+03  0.82764124228E+03  0.17179712333E+03 0.  0.
         24    2    5    5    0    0 -0.84768980602E+02  0.77789615715E+02  0.41621181639E+03  0.43909798867E+03  0.79610069527E+02 0.  0.
          5    1    5    5  501    0 -0.36481931347E+02 -0.48559638961E+02  0.38373793150E+03  0.38854325361E+03  0.47000000000E+01 0. -1.
        -11    1    6    6    0    0 -0.78149339692E+01  0.29271598289E+02  0.22854094828E+03  0.23054037542E+03  0.00000000000E+00 0.  1.
         12    1    6    6    0    0 -0.76954046633E+02  0.48518017426E+02  0.18767086811E+03  0.20855761325E+03  0.00000000000E+00 0. -1.
         -5    1    3    3    0  503  0.53092047623E+02 -0.73538536800E+02  0.82088692207E+03  0.82589594426E+03  0.47000000000E+01 0.  1.
         11    1    4    4    0    0  0.48936420911E+02 -0.13631293336E+02  0.29211712166E+03  0.29650126175E+03  0.00000000000E+00 0. -1.
        -12    1    4    4    0    0  0.19222443415E+02  0.57939853383E+02  0.25946368712E+03  0.26654818303E+03  0.00000000000E+00 0.  1.
</event>
<event>
12    1  0.9873238E-001  0.1837394E+03  0.7818608E-02  0.1165223E+00
         21   -1    0    0  501  502  0.00000000000E+00  0.00000000000E+00  0.53519562494E+03  0.53519562494E+03  0.00000000000E+00 0. -1.
         21   -1    0    0  502  503 -0.00000000000E+00 -0.00000000000E+00 -0.81978678096E+02  0.81978678096E+02  0.00000000000E+00 0. -1.
         -6    2    1    2    0  503 -0.48659966891E+02 -0.35647135493E+02  0.71046744998E+02  0.19312921903E+03  0.16915302132E+03 0.  0.
        -24    2    3    3    0    0 -0.16647422861E+02 -0.63189066841E+02 -0.71693339993E+01  0.10411682680E+03  0.80739825466E+02 0.  0.
          6    2    1    2  501    0  0.48659966891E+02  0.35647135493E+02  0.38217020185E+03  0.42404508400E+03  0.17355592598E+03 0.  0.
         24    2    5    5    0    0 -0.40544936141E+01  0.14100966849E+01  0.33764110170E+03  0.34687047722E+03  0.79367418489E+02 0.  0.
          5    1    5    5  501    0  0.52714460505E+02  0.34237038808E+02  0.44529100148E+02  0.77174606787E+02  0.47000000000E+01 0. -1.
        -13    1    6    6    0    0 -0.35410494173E+02 -0.20699356182E+02  0.18312326576E+03  0.18766058964E+03  0.00000000000E+00 0.  1.
         14    1    6    6    0    0  0.31356000558E+02  0.22109452867E+02  0.15451783594E+03  0.15920988757E+03  0.00000000000E+00 0. -1.
         -5    1    3    3    0  503 -0.32012544031E+02  0.27541931348E+02  0.78216078997E+02  0.89012392235E+02  0.47000000000E+01 0.  1.
         13    1    4    4    0    0  0.29082173810E+01  0.25640231503E+00  0.28569163516E+02  0.28717948647E+02  0.00000000000E+00 0. -1.
        -14    1    4    4    0    0 -0.19555640242E+02 -0.63445469156E+02 -0.35738497516E+02  0.75398878150E+02  0.00000000000E+00 0.  1.
</event>
<event>
12    1  0.9873238E-001  0.2881201E+03  0.7818608E-02  0.1091475E+00
         21   -1    0    0  503  502  0.00000000000E+00  0.00000000000E+00  0.11119985822E+04  0.11119985822E+04  0.00000000000E+00 0.  1.
         21   -1    0    0  501  503 -0.00000000000E+00 -0.00000000000E+00 -0.81341288213E+02  0.81341288213E+02  0.00000000000E+00 0.  1.
          6    2    1    2  501    0 -0.22773560314E+03  0.29593035853E+02  0.33986556817E+03  0.44487050346E+03  0.17222632701E+03 0.  0.
         24    2    3    3    0    0 -0.22298878450E+03 -0.60167115906E+01  0.33195403370E+03  0.40778588700E+03  0.79596798423E+02 0.  0.
         -6    2    1    2    0  502  0.22773560314E+03 -0.29593035853E+02  0.69079172580E+03  0.74846936693E+03  0.17399405765E+03 0.  0.
        -24    2    5    5    0    0  0.15623824081E+03  0.42311296383E+02  0.36792816018E+03  0.41002427860E+03  0.80920604877E+02 0.  0.
          5    1    3    3  501    0 -0.47468186389E+01  0.35609747443E+02  0.79115344725E+01  0.37084616459E+02  0.47000000000E+01 0. -1.
        -13    1    4    4    0    0 -0.80788857121E+02  0.17573120816E+02  0.18140583738E+03  0.19935830017E+03  0.00000000000E+00 0.  1.
         14    1    4    4    0    0 -0.14219992738E+03 -0.23589832407E+02  0.15054819632E+03  0.20842758684E+03  0.00000000000E+00 0. -1.
         -5    1    5    5    0  502  0.71497362331E+02 -0.71904332236E+02  0.32286356562E+03  0.33844508834E+03  0.47000000000E+01 0.  1.
         11    1    6    6    0    0  0.90319827572E+02 -0.14083113876E+02  0.15268468843E+03  0.17795679091E+03  0.00000000000E+00 0. -1.
        -12    1    6    6    0    0  0.65918413236E+02  0.56394410259E+02  0.21524347175E+03  0.23206748769E+03  0.00000000000E+00 0.  1.
</event>
<event>
12    1  0.9873238E-001  0.1823302E+03  0.7818608E-02  0.1166033E+00
         21   -1    0    0  503  502  0.00000000000E+00  0.00000000000E+00  0.25281009762E+03  0.25281009762E+03  0.00000000000E+00 0.  1.
         21   -1    0    0  501  503 -0.00000000000E+00 -0.00000000000E+00 -0.13044908878E+03  0.13044908878E+03  0.00000000000E+00 0.  1.
          6    2    1    2  501    0 -0.56528826301E+02 -0.15620885098E+01  0.71470759826E+02  0.19583763489E+03  0.17333886294E+03 0.  0.
         24    2    3    3    0    0  0.50511567702E+01  0.40787695792E+02  0.79263190625E+02  0.12054878762E+03  0.80995101678E+02 0.  0.
         -6    2    1    2    0  502  0.56528826301E+02  0.15620885098E+01  0.50890249014E+02  0.18742155151E+03  0.17128652078E+03 0.  0.
        -24    2    5    5    0    0  0.53802876857E+02 -0.46388524304E+02 -0.26851892454E+02  0.95919515302E+02  0.58590823022E+02 0.  0.
          5    1    3    3  501    0 -0.61579983071E+02 -0.42349784302E+02 -0.77924307985E+01  0.75288847270E+02  0.47000000000E+01 0. -1.
        -13    1    4    4    0    0  0.34242339340E+02  0.80089281561E+01  0.65850732674E+02  0.74652526598E+02  0.00000000000E+00 0.  1.
         14    1    4    4    0    0 -0.29191182570E+02  0.32778767636E+02  0.13412457951E+02  0.45896261022E+02  0.00000000000E+00 0. -1.
         -5    1    5    5    0  502  0.27259494443E+01  0.47950612814E+02  0.77742141468E+02  0.91502036204E+02  0.47000000000E+01 0.  1.
         11    1    6    6    0    0  0.56883635129E+02 -0.13446518161E+02 -0.22121381789E+02  0.62497298569E+02  0.00000000000E+00 0. -1.
        -12    1    6    6    0    0 -0.30807582720E+01 -0.32942006143E+02 -0.47305106644E+01  0.33422216734E+02  0.00000000000E+00 0.  1.
</event>
<event>
12    1  0.1922400E+000  0.1816964E+03  0.7818608E-02  0.1166291E+00
         21   -1    0    0  503  502  0.00000000000E+00  0.00000000000E+00  0.30136457452E+03  0.30136457452E+03  0.00000000000E+00 0.  1.
         21   -1    0    0  501  503 -0.00000000000E+00 -0.00000000000E+00 -0.11356344845E+04  0.11356344845E+04  0.00000000000E+00 0.  1.
          6    2    1    2  501    0  0.56525799700E+02 -0.13613133149E+02  0.26587640871E+03  0.32203082111E+03  0.17214267808E+03 0.  0.
         24    2    3    3    0    0 -0.26243714026E+01  0.27966195259E+02  0.63892854555E+02  0.10744510528E+03  0.81689401903E+02 0.  0.
         -6    2    1    2    0  502 -0.56525799700E+02  0.13613133149E+02 -0.11001463187E+04  0.11149682379E+04  0.17161516721E+03 0.  0.
        -24    2    5    5    0    0 -0.54283198410E+02 -0.23351835278E+00 -0.45468768127E+03  0.46934009291E+03  0.10291994533E+03 0.  0.
          5    1    3    3  501    0  0.59150171103E+02 -0.41579328407E+02  0.20198355415E+03  0.21458571583E+03  0.47000000000E+01 0. -1.
        -13    1    4    4    0    0 -0.23426342518E+02  0.93566257945E+01  0.73671388150E+02  0.77870491214E+02  0.00000000000E+00 0.  1.
         14    1    4    4    0    0  0.20801971116E+02  0.18609569464E+02 -0.97785335952E+01  0.29574614067E+02  0.00000000000E+00 0. -1.
         -5    1    5    5    0  502 -0.22426012900E+01  0.13846651502E+02 -0.64545863740E+03  0.64562814499E+03  0.47000000000E+01 0.  1.
         13    1    6    6    0    0 -0.29665936083E+02  0.77977344405E+01 -0.43678257030E+03  0.43785829460E+03  0.00000000000E+00 0. -1.
        -14    1    6    6    0    0 -0.24617262327E+02 -0.80312527933E+01 -0.17905110969E+02  0.31481798309E+02  0.00000000000E+00 0.  1.
</event>
<event>
12    1  0.9873238E-001  0.2706657E+03  0.7818608E-02  0.1100975E+00
         21   -1    0    0  503  502  0.00000000000E+00  0.00000000000E+00  0.41948691378E+03  0.41948691378E+03  0.00000000000E+00 0. -1.
         21   -1    0    0  501  503 -0.00000000000E+00 -0.00000000000E+00 -0.25965440716E+03  0.25965440716E+03  0.00000000000E+00 0. -1.
          6    2    1    2  501    0  0.66132165695E+02  0.19779986338E+03  0.27455382987E+03  0.38516701482E+03  0.17168452031E+03 0.  0.
         24    2    3    3    0    0 -0.31545930048E+02  0.83763251293E+02  0.13162252391E+03  0.17781029921E+03  0.79250146591E+02 0.  0.
         -6    2    1    2    0  502 -0.66132165695E+02 -0.19779986338E+03 -0.11472132326E+03  0.29397430613E+03  0.17251568439E+03 0.  0.
        -24    2    5    5    0    0 -0.11088085196E+03 -0.12350776201E+03 -0.78903894018E+02  0.20002357710E+03  0.78961232863E+02 0.  0.
          5    1    3    3  501    0  0.97678095742E+02  0.11403661209E+03  0.14293130597E+03  0.20735671561E+03  0.47000000000E+01 0. -1.
        -11    1    4    4    0    0 -0.33772683433E+02  0.95716796017E+02  0.94256331843E+02  0.13851554165E+03  0.00000000000E+00 0.  1.
         12    1    4    4    0    0  0.22267533850E+01 -0.11953544724E+02  0.37366192065E+02  0.39294757558E+02  0.00000000000E+00 0. -1.
         -5    1    5    5    0  502  0.44748686263E+02 -0.74292101367E+02 -0.35817429238E+02  0.93950729029E+02  0.47000000000E+01 0.  1.
         13    1    6    6    0    0 -0.50865937238E+02 -0.58388211957E+01 -0.28844389916E+02  0.58765927489E+02  0.00000000000E+00 0. -1.
        -14    1    6    6    0    0 -0.60014914720E+02 -0.11766894082E+03 -0.50059504102E+02  0.14125764961E+03  0.00000000000E+00 0.  1.
</event>
<event>
12    1  0.9873238E-001  0.2454277E+03  0.7818608E-02  0.1116276E+00
         21   -1    0    0  503  502  0.00000000000E+00  0.00000000000E+00  0.88188804013E+03  0.88188804013E+03  0.00000000000E+00 0. -1.
         21   -1    0    0  501  503 -0.00000000000E+00 -0.00000000000E+00 -0.68387622843E+02  0.68387622843E+02  0.00000000000E+00 0.  1.
          6    2    1    2  501    0 -0.95772534272E+02 -0.14678898102E+03  0.38355591142E+03  0.45535690750E+03  0.17180044454E+03 0.  0.
         24    2    3    3    0    0 -0.10789539892E+03 -0.54550654844E+02  0.17174542509E+03  0.22396839269E+03  0.77769909556E+02 0.  0.
         -6    2    1    2    0  502  0.95772534272E+02  0.14678898102E+03  0.42994450586E+03  0.49491875547E+03  0.17138527687E+03 0.  0.
        -24    2    5    5    0    0  0.46194939019E+02  0.16705562493E+03  0.31433748017E+03  0.36742071943E+03  0.78411602536E+02 0.  0.
          5    1    3    3  501    0  0.12122864647E+02 -0.92238326181E+02  0.21181048634E+03  0.23138851481E+03  0.47000000000E+01 0. -1.
        -13    1    4    4    0    0 -0.45059731644E+02 -0.63652555768E+02  0.11414044508E+03  0.13823917127E+03  0.00000000000E+00 0.  1.
         14    1    4    4    0    0 -0.62835667275E+02  0.91019009247E+01  0.57604980013E+02  0.85729221416E+02  0.00000000000E+00 0. -1.
         -5    1    5    5    0  502  0.49577595254E+02 -0.20266643910E+02  0.11560702569E+03  0.12749803605E+03  0.47000000000E+01 0.  1.
         13    1    6    6    0    0  0.35727721887E+02  0.29375045654E+02  0.12343727179E+03  0.13181852481E+03  0.00000000000E+00 0. -1.
        -14    1    6    6    0    0  0.10467217132E+02  0.13768057928E+03  0.19090020838E+03  0.23560219461E+03  0.00000000000E+00 0.  1.
</event>
<event>
12    1  0.9873238E-001  0.1977092E+03  0.7818608E-02  0.1151783E+00
         21   -1    0    0  501  502  0.00000000000E+00  0.00000000000E+00  0.68534927063E+03  0.68534927063E+03  0.00000000000E+00 0. -1.
         21   -1    0    0  502  503 -0.00000000000E+00 -0.00000000000E+00 -0.58438601792E+02  0.58438601792E+02  0.00000000000E+00 0. -1.
         -6    2    1    2    0  503 -0.92135863272E+02  0.28776496781E+02  0.37405672506E+03  0.42309262058E+03  0.17254514761E+03 0.  0.
        -24    2    3    3    0    0 -0.11892224401E+03  0.37771501122E+02  0.36340423920E+03  0.39253144013E+03  0.80306313609E+02 0.  0.
          6    2    1    2  501    0  0.92135863272E+02 -0.28776496781E+02  0.25285394378E+03  0.32069525184E+03  0.17202681070E+03 0.  0.
         24    2    5    5    0    0  0.17694825991E+02 -0.37412888658E+02  0.22055371180E+03  0.23895511309E+03  0.82114403006E+02 0.  0.
          5    1    5    5  501    0  0.74441037281E+02  0.86363918766E+01  0.32300231980E+02  0.81740138745E+02  0.47000000000E+01 0. -1.
        -11    1    6    6    0    0 -0.25544317141E+02 -0.37948716356E+00  0.12617359563E+03  0.12873395971E+03  0.00000000000E+00 0.  1.
         12    1    6    6    0    0  0.43239143133E+02 -0.37033401494E+02  0.94380116167E+02  0.11022115338E+03  0.00000000000E+00 0. -1.
         -5    1    3    3    0  503  0.26786380733E+02 -0.89950043407E+01  0.10652485863E+02  0.30561180457E+02  0.47000000000E+01 0.  1.
         11    1    4    4    0    0 -0.45377881301E+02 -0.88489357199E+00  0.46745657573E+02  0.65154367850E+02  0.00000000000E+00 0. -1.
        -12    1    4    4    0    0 -0.73544362704E+02  0.38656394694E+02  0.31665858162E+03  0.32737707228E+03  0.00000000000E+00 0.  1.
</event>
<event>
12    1  0.9873238E-001  0.5802744E+03  0.7818608E-02  0.9947860E-01
         21   -1    0    0  501  502  0.00000000000E+00  0.00000000000E+00  0.53067884601E+03  0.53067884601E+03  0.00000000000E+00 0.  1.
         21   -1    0    0  502  503 -0.00000000000E+00 -0.00000000000E+00 -0.63937894817E+03  0.63937894817E+03  0.00000000000E+00 0. -1.
         -6    2    1    2    0  503 -0.55276968057E+03  0.30501500264E+00  0.33747648463E+01  0.57905937336E+03  0.17246436167E+03 0.  0.
        -24    2    3    3    0    0 -0.35852253740E+03 -0.52907207411E+02 -0.39688841040E+02  0.37304952554E+03  0.79076937145E+02 0.  0.
          6    2    1    2  501    0  0.55276968057E+03 -0.30501500264E+00 -0.11207486701E+03  0.59099842083E+03  0.17653312668E+03 0.  0.
         24    2    5    5    0    0  0.45849165641E+03 -0.50999726750E+01 -0.31547404684E+02  0.46682878023E+03  0.81812362083E+02 0.  0.
          5    1    5    5  501    0  0.94278024161E+02  0.47949576724E+01 -0.80527462323E+02  0.12416964060E+03  0.47000000000E+01 0. -1.
        -11    1    6    6    0    0  0.23556192968E+02 -0.48748047697E+01  0.16613868055E+02  0.29234886017E+02  0.00000000000E+00 0.  1.
         12    1    6    6    0    0  0.43493546344E+03 -0.22516790537E+00 -0.48161272739E+02  0.43759389421E+03  0.00000000000E+00 0. -1.
         -5    1    3    3    0  503 -0.19424714317E+03  0.53212222414E+02  0.43063605886E+02  0.20600984781E+03  0.47000000000E+01 0.  1.
         13    1    4    4    0    0 -0.27481448565E+03 -0.73955399856E+02 -0.28553983027E+02  0.28602051087E+03  0.00000000000E+00 0. -1.
        -14    1    4    4    0    0 -0.83708051750E+02  0.21048192445E+02 -0.11134858013E+02  0.87029014679E+02  0.00000000000E+00 0.  1.
</event>
<event>
12    1  0.9873238E-001  0.2429838E+03  0.7818608E-02  0.1118629E+00
         21   -1    0    0  501  502  0.00000000000E+00  0.00000000000E+00  0.10248302158E+03  0.10248302158E+03  0.00000000000E+00 0. -1.
         21   -1    0    0  502  503 -0.00000000000E+00 -0.00000000000E+00 -0.68273705072E+03  0.68273705072E+03  0.00000000000E+00 0. -1.
         -6    2    1    2    0  503  0.16115814678E+03 -0.23504347874E+02 -0.45586401825E+03  0.51657830961E+03  0.18032399781E+03 0.  0.
        -24    2    3    3    0    0  0.96658494008E+02 -0.86672690929E+02 -0.29007823175E+03  0.32774647496E+03  0.80108373462E+02 0.  0.
          6    2    1    2  501    0 -0.16115814678E+03  0.23504347874E+02 -0.12439001089E+03  0.26864176269E+03  0.17369835696E+03 0.  0.
         24    2    5    5    0    0 -0.16417681826E+03  0.56218574325E+02 -0.13370577806E+03  0.23417139124E+03  0.82731189006E+02 0.  0.
          5    1    5    5  501    0  0.30186714843E+01 -0.32714226451E+02  0.93157671774E+01  0.34470371450E+02  0.47000000000E+01 0. -1.
        -11    1    6    6    0    0 -0.32560916209E+02 -0.21557216270E+02 -0.21906329506E+02  0.44775150587E+02  0.00000000000E+00 0.  1.
         12    1    6    6    0    0 -0.13161590205E+03  0.77775790595E+02 -0.11179944856E+03  0.18939624065E+03  0.00000000000E+00 0. -1.
         -5    1    3    3    0  503  0.64499652769E+02  0.63168343055E+02 -0.16578578650E+03  0.18883183465E+03  0.47000000000E+01 0.  1.
         11    1    4    4    0    0 -0.13986713020E+02 -0.15963235959E+02 -0.42200574250E+02  0.47237077708E+02  0.00000000000E+00 0. -1.
        -12    1    4    4    0    0  0.11064520703E+03 -0.70709454970E+02 -0.24787765750E+03  0.28050939725E+03  0.00000000000E+00 0.  1.
</event>
<event>
12    1  0.9873238E-001  0.2525599E+03  0.7818608E-02  0.1111711E+00
         21   -1    0    0  501  502  0.00000000000E+00  0.00000000000E+00  0.53061028088E+03  0.53061028088E+03  0.00000000000E+00 0.  1.
         21   -1    0    0  502  503 -0.00000000000E+00 -0.00000000000E+00 -0.12489091562E+03  0.12489091562E+03  0.00000000000E+00 0.  1.
         -6    2    1    2    0  503  0.87331655547E+02 -0.16341507643E+03  0.13912326807E+03  0.28826832158E+03  0.17149937680E+03 0.  0.
        -24    2    3    3    0    0  0.16179782610E+02 -0.13186812917E+03  0.40516701868E+02  0.16255776593E+03  0.84453746383E+02 0.  0.
          6    2    1    2  501    0 -0.87331655547E+02  0.16341507643E+03  0.26659609719E+03  0.36723287491E+03  0.17162517330E+03 0.  0.
         24    2    5    5    0    0 -0.14970142951E+02  0.12876168451E+02  0.11914937566E+03  0.14438589375E+03  0.79125291146E+02 0.  0.
          5    1    5    5  501    0 -0.72361512597E+02  0.15053890798E+03  0.14744672153E+03  0.22284698116E+03  0.47000000000E+01 0. -1.
        -13    1    6    6    0    0 -0.26911992134E+02 -0.13410278716E+02  0.10316849333E+02  0.31788807402E+02  0.00000000000E+00 0.  1.
         14    1    6    6    0    0  0.11941849183E+02  0.26286447167E+02  0.10883252633E+03  0.11259708635E+03  0.00000000000E+00 0. -1.
         -5    1    3    3    0  503  0.71151872938E+02 -0.31546947264E+02  0.98606566202E+02  0.12571055565E+03  0.47000000000E+01 0.  1.
         13    1    4    4    0    0  0.46962055835E+02 -0.10994570221E+03  0.33007578527E+02  0.12402819181E+03  0.00000000000E+00 0. -1.
        -14    1    4    4    0    0 -0.30782273226E+02 -0.21922426959E+02  0.75091233410E+01  0.38529574123E+02  0.00000000000E+00 0.  1.
</event>
<event>
12    1  0.9873238E-001  0.2655265E+03  0.7818608E-02  0.1103892E+00
         21   -1    0    0  501  502  0.00000000000E+00  0.00000000000E+00  0.18316985071E+03  0.18316985071E+03  0.00000000000E+00 0.  1.
         21   -1    0    0  502  503 -0.00000000000E+00 -0.00000000000E+00 -0.40927391893E+03  0.40927391893E+03  0.00000000000E+00 0.  1.
         -6    2    1    2    0  503  0.85812858459E+02  0.18350724877E+03 -0.40386382679E+02  0.26841388124E+03  0.17139485029E+03 0.  0.
        -24    2    3    3    0    0  0.65379001740E+02  0.14942966964E+03 -0.87971433982E+02  0.20624273836E+03  0.90517699318E+02 0.  0.
          6    2    1    2  501    0 -0.85812858459E+02 -0.18350724877E+03 -0.18571768554E+03  0.32402988840E+03  0.17165533148E+03 0.  0.
         24    2    5    5    0    0  0.11463529306E+02 -0.79564973698E+02 -0.12521169058E+03  0.16927279618E+03  0.80705108429E+02 0.  0.
          5    1    5    5  501    0 -0.97276387764E+02 -0.10394227508E+03 -0.60505994958E+02  0.15475709221E+03  0.47000000000E+01 0. -1.
        -11    1    6    6    0    0  0.30925731775E+02 -0.29739145515E+01 -0.17427486720E+02  0.35622497764E+02  0.00000000000E+00 0.  1.
         12    1    6    6    0    0 -0.19462202469E+02 -0.76591059147E+02 -0.10778420386E+03  0.13365029842E+03  0.00000000000E+00 0. -1.
         -5    1    3    3    0  503  0.20433856719E+02  0.34077579133E+02  0.47585051303E+02  0.62171142884E+02  0.47000000000E+01 0.  1.
         11    1    4    4    0    0  0.65631397069E+02  0.14779087950E+03 -0.10260634658E+03  0.19151419452E+03  0.00000000000E+00 0. -1.
        -12    1    4    4    0    0 -0.25239532900E+00  0.16387901424E+01  0.14634912603E+02  0.14728543832E+02  0.00000000000E+00 0.  1.
</event>
<event>
12    1  0.9873238E-001  0.2087737E+03  0.7818608E-02  0.1142861E+00
         21   -1    0    0  501  502  0.00000000000E+00  0.00000000000E+00  0.10281590917E+03  0.10281590917E+03  0.00000000000E+00 0.  1.
         21   -1    0    0  502  503 -0.00000000000E+00 -0.00000000000E+00 -0.50955124103E+03  0.50955124103E+03  0.00000000000E+00 0.  1.
         -6    2    1    2    0  503 -0.50186003136E+02  0.10497155256E+03 -0.74861398503E+02  0.22028708026E+03  0.17141909750E+03 0.  0.
        -24    2    3    3    0    0 -0.37856600358E+02  0.73575867993E+02 -0.11818891780E+03  0.16517748844E+03  0.80426686225E+02 0.  0.
          6    2    1    2  501    0  0.50186003136E+02 -0.10497155256E+03 -0.33187393336E+03  0.39208006994E+03  0.17334593113E+03 0.  0.
         24    2    5    5    0    0 -0.86951623300E+01  0.20044793711E+01 -0.17652209646E+03  0.19442596225E+03  0.81004817608E+02 0.  0.
          5    1    5    5  501    0  0.58881165466E+02 -0.10697603193E+03 -0.15535183690E+03  0.19765410768E+03  0.47000000000E+01 0. -1.
        -13    1    6    6    0    0 -0.10164204324E+02  0.40825643658E+02 -0.10323532679E+03  0.11147904255E+03  0.00000000000E+00 0.  1.
         14    1    6    6    0    0  0.14690419937E+01 -0.38821164287E+02 -0.73286769664E+02  0.82946919706E+02  0.00000000000E+00 0. -1.
         -5    1    3    3    0  503 -0.12329402778E+02  0.31395684569E+02  0.43327519293E+02  0.55109591819E+02  0.47000000000E+01 0.  1.
         11    1    4    4    0    0  0.20579169544E+02  0.24563095989E+02 -0.64138274397E+02  0.71697741571E+02  0.00000000000E+00 0. -1.
        -12    1    4    4    0    0 -0.58435769902E+02  0.49012772004E+02 -0.54050643398E+02  0.93479746872E+02  0.00000000000E+00 0.  1.
</event>
<event>
12    1  0.9873238E-001  0.1928854E+03  0.7818608E-02  0.1156012E+00
         21   -1    0    0  503  502  0.00000000000E+00  0.00000000000E+00  0.11668772532E+04  0.11668772532E+04  0.00000000000E+00 0. -1.
         21   -1    0    0  501  503 -0.00000000000E+00 -0.00000000000E+00 -0.33228625462E+02  0.33228625462E+02  0.00000000000E+00 0. -1.
          6    2    1    2  501    0 -0.86187799328E+02  0.13705803092E+02  0.44272053660E+03  0.48291433290E+03  0.17201335298E+03 0.  0.
         24    2    3    3    0    0 -0.12653470892E+03  0.50086136354E+01  0.31039037121E+03  0.34421726411E+03  0.78148727441E+02 0.  0.
         -6    2    1    2    0  502  0.86187799328E+02 -0.13705803092E+02  0.69092809110E+03  0.71719154572E+03  0.17136481667E+03 0.  0.
        -24    2    5    5    0    0  0.46548422908E+02  0.38124198472E+02  0.52114757058E+03  0.53524335427E+03  0.10616236519E+03 0.  0.
          5    1    3    3  501    0  0.40346909594E+02  0.86971894562E+01  0.13233016539E+03  0.13869706879E+03  0.47000000000E+01 0. -1.
        -13    1    4    4    0    0 -0.74233649431E+02  0.20649144121E+02  0.25524660416E+03  0.26662305001E+03  0.00000000000E+00 0.  1.
         14    1    4    4    0    0 -0.52301059491E+02 -0.15640530485E+02  0.55143767045E+02  0.77594214100E+02  0.00000000000E+00 0. -1.
         -5    1    5    5    0  502  0.39639376421E+02 -0.51830001564E+02  0.16978052052E+03  0.18194819145E+03  0.47000000000E+01 0.  1.
         13    1    6    6    0    0  0.66615575228E+02  0.53826306460E+02  0.47376785978E+03  0.48144666485E+03  0.00000000000E+00 0. -1.
        -14    1    6    6    0    0 -0.20067152320E+02 -0.15702107987E+02  0.47379710799E+02  0.53796689423E+02  0.00000000000E+00 0.  1.
</event>
<event>
12    1  0.9873238E-001  0.2063681E+03  0.7818608E-02  0.1144749E+00
         21   -1    0    0  503  502  0.00000000000E+00  0.00000000000E+00  0.26129494420E+03  0.26129494420E+03  0.00000000000E+00 0.  1.
         21   -1    0    0  501  503 -0.00000000000E+00 -0.00000000000E+00 -0.19874168871E+03  0.19874168871E+03  0.00000000000E+00 0.  1.
          6    2    1    2  501    0  0.10677617516E+03  0.38759429071E+02  0.13036025168E+03  0.24409337051E+03  0.17229141995E+03 0.  0.
         24    2    3    3    0    0  0.54249716124E+01 -0.21168500314E+02  0.44077245521E+02  0.98044507689E+02  0.84807937086E+02 0.  0.
         -6    2    1    2    0  502 -0.10677617516E+03 -0.38759429071E+02 -0.67806996190E+02  0.21594326240E+03  0.17067588851E+03 0.  0.
        -24    2    5    5    0    0 -0.39911192934E+02 -0.47651826349E+02 -0.10005932544E+03  0.14102795475E+03  0.77546215497E+02 0.  0.
          5    1    3    3  501    0  0.10135120355E+03  0.59927929385E+02  0.86283006157E+02  0.14604886282E+03  0.47000000000E+01 0. -1.
        -11    1    4    4    0    0 -0.99873199601E+00 -0.18771845737E+02  0.69352905789E+02  0.71855446553E+02  0.00000000000E+00 0.  1.
         12    1    4    4    0    0  0.64237036084E+01 -0.23966545768E+01 -0.25275660268E+02  0.26189061136E+02  0.00000000000E+00 0. -1.
         -5    1    5    5    0  502 -0.66864982225E+02  0.88923972781E+01  0.32252329253E+02  0.74915307645E+02  0.47000000000E+01 0.  1.
         13    1    6    6    0    0 -0.44829424606E+02 -0.61173696040E+02 -0.10134641561E+03  0.12658196694E+03  0.00000000000E+00 0. -1.
        -14    1    6    6    0    0  0.49182316719E+01  0.13521869692E+02  0.12870901680E+01  0.14445987811E+02  0.00000000000E+00 0.  1.
</event>
<event>
12    1  0.9873238E-001  0.2022054E+03  0.7818608E-02  0.1148364E+00
         21   -1    0    0  501  502  0.00000000000E+00  0.00000000000E+00  0.50089841792E+03  0.50089841792E+03  0.00000000000E+00 0. -1.
         21   -1    0    0  502  503 -0.00000000000E+00 -0.00000000000E+00 -0.15595290729E+03  0.15595290729E+03  0.00000000000E+00 0.  1.
         -6    2    1    2    0  503  0.69118959665E+02  0.77868301572E+02 -0.55137312189E+02  0.20958800730E+03  0.17333812804E+03 0.  0.
        -24    2    3    3    0    0  0.41423566197E+02  0.46598093858E+02  0.36068616665E+02  0.10916155577E+03  0.82024422957E+02 0.  0.
          6    2    1    2  501    0 -0.69118959665E+02 -0.77868301572E+02  0.40008282282E+03  0.44726331791E+03  0.17069653616E+03 0.  0.
         24    2    5    5    0    0  0.23460863186E+02 -0.53943883011E+02  0.25588388324E+03  0.27417713828E+03  0.78969531073E+02 0.  0.
          5    1    5    5  501    0 -0.92579822851E+02 -0.23924418560E+02  0.14419893958E+03  0.17308617963E+03  0.47000000000E+01 0. -1.
        -13    1    6    6    0    0 -0.23367396813E+01 -0.65975822452E+02  0.13905435760E+03  0.15392980176E+03  0.00000000000E+00 0.  1.
         14    1    6    6    0    0  0.25797602868E+02  0.12031939441E+02  0.11682952564E+03  0.12024733652E+03  0.00000000000E+00 0. -1.
         -5    1    3    3    0  503  0.27695393468E+02  0.31270207714E+02 -0.91205928854E+02  0.10042645153E+03  0.47000000000E+01 0.  1.
         11    1    4    4    0    0  0.39624916465E+02 -0.14116075237E+02  0.11222455949E+02  0.43535515416E+02  0.00000000000E+00 0. -1.
        -12    1    4    4    0    0  0.17986497315E+01  0.60714169095E+02  0.24846160715E+02  0.65626040350E+02  0.00000000000E+00 0.  1.
</event>
<event>
12    1  0.9873238E-001  0.2126079E+03  0.7818608E-02  0.1139657E+00
         21   -1    0    0  501  502  0.00000000000E+00  0.00000000000E+00  0.13987336190E+03  0.13987336190E+03  0.00000000000E+00 0. -1.
         21   -1    0    0  502  503 -0.00000000000E+00 -0.00000000000E+00 -0.40670348321E+03  0.40670348321E+03  0.00000000000E+00 0. -1.
         -6    2    1    2    0  503 -0.25154067329E+02 -0.12177309124E+03 -0.25825717157E+03  0.33451290616E+03  0.17245493577E+03 0.  0.
        -24    2    3    3    0    0 -0.55731866814E+01 -0.56129086791E+02 -0.24604679854E+03  0.26477246297E+03  0.79899282113E+02 0.  0.
          6    2    1    2  501    0  0.25154067329E+02  0.12177309124E+03 -0.85729497463E+01  0.21206393894E+03  0.17156982800E+03 0.  0.
         24    2    5    5    0    0 -0.15285130624E+02  0.13885951583E+03  0.15133510538E+02  0.16195045876E+03  0.80519113239E+02 0.  0.
          5    1    5    5  501    0  0.40439197953E+02 -0.17086424599E+02 -0.23706460284E+02  0.50113480181E+02  0.47000000000E+01 0. -1.
        -11    1    6    6    0    0 -0.44570284555E+02  0.53082920279E+02  0.16709522165E+02  0.71298771529E+02  0.00000000000E+00 0.  1.
         12    1    6    6    0    0  0.29285153931E+02  0.85776595555E+02 -0.15760116269E+01  0.90651687234E+02  0.00000000000E+00 0. -1.
         -5    1    3    3    0  503 -0.19580880648E+02 -0.65644004445E+02 -0.12210373025E+02  0.69740443187E+02  0.47000000000E+01 0.  1.
         11    1    4    4    0    0 -0.39512893718E+02 -0.43323967681E+02 -0.11921281391E+03  0.13285303891E+03  0.00000000000E+00 0. -1.
        -12    1    4    4    0    0  0.33939707037E+02 -0.12805119109E+02 -0.12683398463E+03  0.13191942407E+03  0.00000000000E+00 0.  1.
</event>
<event>
12    1  0.9873238E-001  0.4631877E+03  0.7818608E-02  0.1023869E+00
         21   -1    0    0  501  502  0.00000000000E+00  0.00000000000E+00  0.96270852935E+03  0.96270852935E+03  0.00000000000E+00 0.  1.
         21   -1    0    0  502  503 -0.00000000000E+00 -0.00000000000E+00 -0.51813832110E+03  0.51813832110E+03  0.00000000000E+00 0.  1.
         -6    2    1    2    0  503 -0.35777446404E+02 -0.42821681389E+03 -0.33673753143E+03  0.57256019321E+03  0.17257851662E+03 0.  0.
        -24    2    3    3    0    0 -0.82907205427E+02 -0.37274116136E+03 -0.28724098227E+03  0.48440827554E+03  0.79589053463E+02 0.  0.
          6    2    1    2  501    0  0.35777446404E+02  0.42821681389E+03  0.78130773969E+03  0.90828665724E+03  0.17289650733E+03 0.  0.
         24    2    5    5    0    0  0.40636827291E+02  0.44010833663E+03  0.76490177493E+03  0.88692623647E+03  0.78846204406E+02 0.  0.
          5    1    5    5  501    0 -0.48593808872E+01 -0.11891522736E+02  0.16405964756E+02  0.21360420763E+02  0.47000000000E+01 0. -1.
        -13    1    6    6    0    0  0.13306310498E+02  0.11049819007E+03  0.26606159412E+03  0.28840194135E+03  0.00000000000E+00 0.  1.
         14    1    6    6    0    0  0.27330516793E+02  0.32961014656E+03  0.49884018081E+03  0.59852429513E+03  0.00000000000E+00 0. -1.
         -5    1    3    3    0  503  0.47129759024E+02 -0.55475652536E+02 -0.49496549164E+02  0.88151917671E+02  0.47000000000E+01 0.  1.
         11    1    4    4    0    0 -0.44924037463E+01 -0.20180648101E+03 -0.14227558930E+03  0.24695825716E+03  0.00000000000E+00 0. -1.
        -12    1    4    4    0    0 -0.78414801681E+02 -0.17093468035E+03 -0.14496539297E+03  0.23745001838E+03  0.00000000000E+00 0.  1.
</event>
<event>
12    1  0.9873238E-001  0.1904042E+03  0.7818608E-02  0.1158160E+00
         21   -1    0    0  501  502  0.00000000000E+00  0.00000000000E+00  0.22968140896E+03  0.22968140896E+03  0.00000000000E+00 0. -1.
         21   -1    0    0  502  503 -0.00000000000E+00 -0.00000000000E+00 -0.15881902064E+03  0.15881902064E+03  0.00000000000E+00 0. -1.
         -6    2    1    2    0  503  0.22754547232E+02 -0.78269859707E+02  0.18522337887E+02  0.19130297974E+03  0.17207502055E+03 0.  0.
        -24    2    3    3    0    0  0.82256916940E+02 -0.49088436608E+02  0.15323028444E+02  0.12478671830E+03  0.78492387337E+02 0.  0.
          6    2    1    2  501    0 -0.22754547232E+02  0.78269859707E+02  0.52340050435E+02  0.19719744987E+03  0.17176557570E+03 0.  0.
         24    2    5    5    0    0 -0.29216429787E+02  0.66821326525E+02 -0.31136565743E+02  0.11256140384E+03  0.79886760232E+02 0.  0.
          5    1    5    5  501    0  0.64618825547E+01  0.11448533182E+02  0.83476616178E+02  0.84636046025E+02  0.47000000000E+01 0. -1.
        -13    1    6    6    0    0 -0.13295110810E+02  0.28810621042E+02  0.26751704896E+02  0.41502597161E+02  0.00000000000E+00 0.  1.
         14    1    6    6    0    0 -0.15921318976E+02  0.38010705483E+02 -0.57888270638E+02  0.71058806680E+02  0.00000000000E+00 0. -1.
         -5    1    3    3    0  503 -0.59502369708E+02 -0.29181423099E+02  0.31993094423E+01  0.66516261439E+02  0.47000000000E+01 0.  1.
         13    1    4    4    0    0  0.25104508389E+02  0.67825958527E+01 -0.24289528477E+02  0.35584001203E+02  0.00000000000E+00 0. -1.
        -14    1    4    4    0    0  0.57152408551E+02 -0.55871032461E+02  0.39612556922E+02  0.89202717095E+02  0.00000000000E+00 0.  1.
</event>
<event>
12    1  0.9873238E-001  0.1810731E+03  0.7818608E-02  0.1167104E+00
         21   -1    0    0  503  502  0.00000000000E+00  0.00000000000E+00  0.17126852353E+03  0.17126852353E+03  0.00000000000E+00 0. -1.
         21   -1    0    0  501  503 -0.00000000000E+00 -0.00000000000E+00 -0.21465489265E+03  0.21465489265E+03  0.00000000000E+00 0. -1.
          6    2    1    2  501    0  0.35055986751E+02 -0.46388604522E+02  0.43666354528E+02  0.18626387122E+03  0.17148368543E+03 0.  0.
         24    2    3    3    0    0 -0.23607144449E+02 -0.77333883045E+02  0.18146402556E+02  0.11504357093E+03  0.79799151315E+02 0.  0.
         -6    2    1    2    0  502 -0.35055986751E+02  0.46388604522E+02 -0.87052723646E+02  0.19965954495E+03  0.17001450632E+03 0.  0.
        -24    2    5    5    0    0  0.39160788000E+02  0.76327670083E+01 -0.70604193552E+02  0.11420318920E+03  0.80408891472E+02 0.  0.
          5    1    3    3  501    0  0.58663131200E+02  0.30945278523E+02  0.25519951972E+02  0.71220300292E+02  0.47000000000E+01 0. -1.
        -11    1    4    4    0    0  0.29119293044E+02 -0.18948486800E+02  0.24875753258E+01  0.34830538474E+02  0.00000000000E+00 0.  1.
         12    1    4    4    0    0 -0.52726437493E+02 -0.58385396245E+02  0.15658827230E+02  0.80213032455E+02  0.00000000000E+00 0. -1.
         -5    1    5    5    0  502 -0.74216774751E+02  0.38755837514E+02 -0.16448530094E+02  0.85456355750E+02  0.47000000000E+01 0.  1.
         13    1    6    6    0    0  0.73667160568E+01  0.12497462805E+02  0.16131901619E+02  0.21695468003E+02  0.00000000000E+00 0. -1.
        -14    1    6    6    0    0  0.31794071943E+02 -0.48646957969E+01 -0.86736095171E+02  0.92507721199E+02  0.00000000000E+00 0.  1.
</event>
<event>
12    1  0.9873238E-001  0.2438243E+03  0.7818608E-02  0.1117861E+00
         21   -1    0    0  503  502  0.00000000000E+00  0.00000000000E+00  0.20339285184E+04  0.20339285184E+04  0.00000000000E+00 0.  1.
         21   -1    0    0  501  503 -0.00000000000E+00 -0.00000000000E+00 -0.34100460015E+02  0.34100460015E+02  0.00000000000E+00 0.  1.
          6    2    1    2  501    0 -0.39839704634E+01 -0.17337721379E+03  0.59855658947E+03  0.64631282403E+03  0.17139062234E+03 0.  0.
         24    2    3    3    0    0 -0.20792207834E+01 -0.11296215197E+03  0.20058371992E+03  0.24374841594E+03  0.80091763864E+02 0.  0.
         -6    2    1    2    0  502  0.39839704634E+01  0.17337721379E+03  0.14012714690E+04  0.14217161544E+04  0.16625150754E+03 0.  0.
        -24    2    5    5    0    0 -0.16375881871E+02  0.18838815789E+03  0.13368061008E+04  0.13523063156E+04  0.76964619305E+02 0.  0.
          5    1    3    3  501    0 -0.19047496800E+01 -0.60415061826E+02  0.39797286954E+03  0.40256440809E+03  0.47000000000E+01 0. -1.
        -13    1    4    4    0    0  0.84795716634E+01  0.86362783521E+01  0.41541540138E+02  0.43268787785E+02  0.00000000000E+00 0.  1.
         14    1    4    4    0    0 -0.10558792447E+02 -0.12159843032E+03  0.15904217978E+03  0.20047962815E+03  0.00000000000E+00 0. -1.
         -5    1    5    5    0  502  0.20359852335E+02 -0.15010944101E+02  0.64465368203E+02  0.69409838838E+02  0.47000000000E+01 0.  1.
         11    1    6    6    0    0 -0.95871612025E+01  0.15179427546E+03  0.80790057789E+03  0.82209291414E+03  0.00000000000E+00 0. -1.
        -12    1    6    6    0    0 -0.67887206687E+01  0.36593882430E+02  0.52890552287E+03  0.53021340145E+03  0.00000000000E+00 0.  1.
</event>
<event>
12    1  0.9873238E-001  0.3586897E+03  0.7818608E-02  0.1059245E+00
         21   -1    0    0  503  502  0.00000000000E+00  0.00000000000E+00  0.22725749127E+03  0.22725749127E+03  0.00000000000E+00 0. -1.
         21   -1    0    0  501  503 -0.00000000000E+00 -0.00000000000E+00 -0.56391597383E+03  0.56391597383E+03  0.00000000000E+00 0. -1.
          6    2    1    2  501    0  0.11505759200E+03 -0.29242468726E+03 -0.17032280757E+03  0.39707450207E+03  0.17293887422E+03 0.  0.
         24    2    3    3    0    0  0.10761585570E+03 -0.14476021788E+03 -0.15028187103E+03  0.24779655964E+03  0.79257814329E+02 0.  0.
         -6    2    1    2    0  502 -0.11505759200E+03  0.29242468726E+03 -0.16633567499E+03  0.39409896303E+03  0.16998820162E+03 0.  0.
        -24    2    5    5    0    0 -0.98026038730E+01  0.90193821901E+02 -0.18798457349E+02  0.12250136359E+03  0.80138539616E+02 0.  0.
          5    1    3    3  501    0  0.74417363028E+01 -0.14766446938E+03 -0.20040936541E+02  0.14927794243E+03  0.47000000000E+01 0. -1.
        -11    1    4    4    0    0  0.33168048097E+02 -0.78593212419E+02 -0.27357529714E+02  0.89584858570E+02  0.00000000000E+00 0.  1.
         12    1    4    4    0    0  0.74447807600E+02 -0.66167005461E+02 -0.12292434132E+03  0.15821170107E+03  0.00000000000E+00 0. -1.
         -5    1    5    5    0  502 -0.10525498813E+03  0.20223086536E+03 -0.14753721764E+03  0.27159759944E+03  0.47000000000E+01 0.  1.
         11    1    6    6    0    0 -0.29985118628E+02  0.30118540523E+02  0.21267060663E+02  0.47523906527E+02  0.00000000000E+00 0. -1.
        -12    1    6    6    0    0  0.20182514755E+02  0.60075281378E+02 -0.40065518012E+02  0.74977457066E+02  0.00000000000E+00 0.  1.
</event>
<event>
12    1  0.9873238E-001  0.1995821E+03  0.7818608E-02  0.1150565E+00
         21   -1    0    0  501  502  0.00000000000E+00  0.00000000000E+00  0.16063349899E+04  0.16063349899E+04  0.00000000000E+00 0.  1.
         21   -1    0    0  502  503 -0.00000000000E+00 -0.00000000000E+00 -0.25324329504E+02  0.25324329504E+02  0.00000000000E+00 0.  1.
         -6    2    1    2    0  503  0.96040786494E+02  0.15353857304E+02  0.64099829454E+03  0.67069299501E+03  0.17172858335E+03 0.  0.
        -24    2    3    3    0    0  0.87009355245E+02  0.61185033951E+02  0.57201764485E+03  0.58725149733E+03  0.79661149950E+02 0.  0.
          6    2    1    2  501    0 -0.96040786494E+02 -0.15353857304E+02  0.94001236590E+03  0.96096632444E+03  0.17427981829E+03 0.  0.
         24    2    5    5    0    0 -0.42451942417E+02 -0.74085606563E+02  0.61821506383E+03  0.62945949767E+03  0.82088668765E+02 0.  0.
          5    1    5    5  501    0 -0.53588844077E+02  0.58731749259E+02  0.32179730207E+03  0.33150682677E+03  0.47000000000E+01 0. -1.
        -13    1    6    6    0    0  0.23954200459E+02 -0.19550818727E+02  0.21309760872E+03  0.21532911804E+03  0.00000000000E+00 0.  1.
         14    1    6    6    0    0 -0.66406142875E+02 -0.54534787836E+02  0.40511745511E+03  0.41413037963E+03  0.00000000000E+00 0. -1.
         -5    1    3    3    0  503  0.90314312486E+01 -0.45831176647E+02  0.68980649688E+02  0.83441497677E+02  0.47000000000E+01 0.  1.
         11    1    4    4    0    0 -0.86760320675E+00  0.41684657917E+02  0.21935712667E+03  0.22328437576E+03  0.00000000000E+00 0. -1.
        -12    1    4    4    0    0  0.87876958452E+02  0.19500376035E+02  0.35266051819E+03  0.36396712157E+03  0.00000000000E+00 0.  1.
</event>
<event>
12    1  0.9873238E-001  0.7704592E+03  0.7818608E-02  0.9603843E-01
         21   -1    0    0  501  502  0.00000000000E+00  0.00000000000E+00  0.17956858014E+04  0.17956858014E+04  0.00000000000E+00 0.  1.
         21   -1    0    0  502  503 -0.00000000000E+00 -0.00000000000E+00 -0.85425228110E+03  0.85425228110E+03  0.00000000000E+00 0.  1.
         -6    2    1    2    0  503  0.69514207592E+03 -0.28376587793E+03 -0.56672363966E+03  0.95644295348E+03  0.17280584571E+03 0.  0.
        -24    2    3    3    0    0  0.40573950765E+03 -0.10061205649E+03 -0.35401830410E+03  0.55324967649E+03  0.77517165337E+02 0.  0.
          6    2    1    2  501    0 -0.69514207592E+03  0.28376587793E+03  0.15081571600E+04  0.16934951290E+04  0.17216896837E+03 0.  0.
         24    2    5    5    0    0 -0.16122846715E+03  0.59760907418E+02  0.33972264318E+03  0.38946166378E+03  0.81871414989E+02 0.  0.
          5    1    5    5  501    0 -0.53391360877E+03  0.22400497051E+03  0.11684345168E+04  0.13040334653E+04  0.47000000000E+01 0. -1.
        -11    1    6    6    0    0 -0.25507480377E+02  0.24256640420E+02  0.14657723501E+03  0.15074449238E+03  0.00000000000E+00 0.  1.
         12    1    6    6    0    0 -0.13572098677E+03  0.35504266998E+02  0.19314540817E+03  0.23871717141E+03  0.00000000000E+00 0. -1.
         -5    1    3    3    0  503  0.28940256827E+03 -0.18315382144E+03 -0.21270533556E+03  0.40319327698E+03  0.47000000000E+01 0.  1.
         13    1    4    4    0    0  0.22346253784E+03 -0.45114365202E+02 -0.14382335164E+03  0.26954771052E+03  0.00000000000E+00 0. -1.
        -14    1    4    4    0    0  0.18227696981E+03 -0.55497691290E+02 -0.21019495246E+03  0.28370196598E+03  0.00000000000E+00 0.  1.
</event>
<event>
12    1  0.9873238E-001  0.1795673E+03  0.7818608E-02  0.1168274E+00
         21   -1    0    0  501  502  0.00000000000E+00  0.00000000000E+00  0.11680304492E+04  0.11680304492E+04  0.00000000000E+00 0.  1.
         21   -1    0    0  502  503 -0.00000000000E+00 -0.00000000000E+00 -0.28773289755E+02  0.28773289755E+02  0.00000000000E+00 0.  1.
         -6    2    1    2    0  503  0.49676600843E+02  0.13276360328E+02  0.69152578043E+03  0.71440577458E+03  0.17182455975E+03 0.  0.
        -24    2    3    3    0    0  0.73963686630E+02  0.25349195722E+01  0.23352554584E+03  0.25561219794E+03  0.72981932110E+02 0.  0.
          6    2    1    2  501    0 -0.49676600843E+02 -0.13276360328E+02  0.44773137897E+03  0.48239796434E+03  0.17204761511E+03 0.  0.
         24    2    5    5    0    0  0.29588075650E+02 -0.37382823916E+02  0.18613239535E+03  0.20795283547E+03  0.79537308457E+02 0.  0.
          5    1    5    5  501    0 -0.79264676493E+02  0.24106463588E+02  0.26159898362E+03  0.27444512886E+03  0.47000000000E+01 0. -1.
        -13    1    6    6    0    0  0.48302394865E+02  0.28208468125E+01  0.96691450197E+02  0.10812176038E+03  0.00000000000E+00 0.  1.
         14    1    6    6    0    0 -0.18714319215E+02 -0.40203670729E+02  0.89440945155E+02  0.99831075092E+02  0.00000000000E+00 0. -1.
         -5    1    3    3    0  503 -0.24287085787E+02  0.10741440756E+02  0.45800023459E+03  0.45879357664E+03  0.47000000000E+01 0.  1.
         13    1    4    4    0    0  0.31959992152E+02  0.29904542289E+02  0.16499312276E+03  0.17069989252E+03  0.00000000000E+00 0. -1.
        -14    1    4    4    0    0  0.42003694478E+02 -0.27369622717E+02  0.68532423087E+02  0.84912305420E+02  0.00000000000E+00 0.  1.
</event>
<event>
12    1  0.9873238E-001  0.1937930E+03  0.7818608E-02  0.1155194E+00
         21   -1    0    0  501  502  0.00000000000E+00  0.00000000000E+00  0.26470856612E+03  0.26470856612E+03  0.00000000000E+00 0.  1.
         21   -1    0    0  502  503 -0.00000000000E+00 -0.00000000000E+00 -0.14513442031E+03  0.14513442031E+03  0.00000000000E+00 0.  1.
         -6    2    1    2    0  503 -0.87419210251E+02  0.23357682105E+02  0.92236938122E+02  0.21462380278E+03  0.17137101368E+03 0.  0.
        -24    2    3    3    0    0 -0.18855147706E+02 -0.47782792087E+02  0.42018318667E+02  0.10369140227E+03  0.79672178251E+02 0.  0.
          6    2    1    2  501    0  0.87419210251E+02 -0.23357682105E+02  0.27337207681E+02  0.19521918366E+03  0.17080839297E+03 0.  0.
         24    2    5    5    0    0  0.11400172248E+03 -0.40760215727E+02  0.54517165292E+02  0.15314403388E+03  0.76309802036E+02 0.  0.
          5    1    5    5  501    0 -0.26582512230E+02  0.17402533622E+02 -0.27179957612E+02  0.42075149776E+02  0.47000000000E+01 0. -1.
        -13    1    6    6    0    0  0.86215414207E+02 -0.16126748703E+02  0.70680852531E+02  0.11264525105E+03  0.00000000000E+00 0.  1.
         14    1    6    6    0    0  0.27786308274E+02 -0.24633467025E+02 -0.16163687239E+02  0.40498782825E+02  0.00000000000E+00 0. -1.
         -5    1    3    3    0  503 -0.68564062544E+02  0.71140474192E+02  0.50218619456E+02  0.11093240050E+03  0.47000000000E+01 0.  1.
         13    1    4    4    0    0  0.27825687382E+02 -0.36264489988E+01  0.23103765769E+01  0.28155955863E+02  0.00000000000E+00 0. -1.
        -14    1    4    4    0    0 -0.46680835089E+02 -0.44156343088E+02  0.39707942090E+02  0.75535446411E+02  0.00000000000E+00 0.  1.
</event>
<event>
12    1  0.9873238E-001  0.1756523E+03  0.7818608E-02  0.1172850E+00
         21   -1    0    0  501  502  0.00000000000E+00  0.00000000000E+00  0.12809066096E+03  0.12809066096E+03  0.00000000000E+00 0. -1.
         21   -1    0    0  502  503 -0.00000000000E+00 -0.00000000000E+00 -0.23832514733E+03  0.23832514733E+03  0.00000000000E+00 0. -1.
         -6    2    1    2    0  503 -0.19747250399E+02  0.31799613273E+02 -0.39494724347E+02  0.17705414301E+03  0.16848491625E+03 0.  0.
        -24    2    3    3    0    0  0.27586135066E+02 -0.33641588129E+02 -0.27675349134E+02  0.95293591088E+02  0.80138581551E+02 0.  0.
          6    2    1    2  501    0  0.19747250399E+02 -0.31799613273E+02 -0.70739762020E+02  0.18936166527E+03  0.17161747301E+03 0.  0.
         24    2    5    5    0    0 -0.13131116344E+02 -0.81570667191E+02 -0.42901897647E+02  0.12336786632E+03  0.80949723013E+02 0.  0.
          5    1    5    5  501    0  0.32878366742E+02  0.49771053918E+02 -0.27837864373E+02  0.65993798956E+02  0.47000000000E+01 0. -1.
        -13    1    6    6    0    0 -0.20691824340E+02 -0.60304001546E+02 -0.65516263270E+02  0.91417202702E+02  0.00000000000E+00 0.  1.
         14    1    6    6    0    0  0.75607079961E+01 -0.21266665645E+02  0.22614365622E+02  0.31950663617E+02  0.00000000000E+00 0. -1.
         -5    1    3    3    0  503 -0.47333385465E+02  0.65441201402E+02 -0.11819375213E+02  0.81760551924E+02  0.47000000000E+01 0.  1.
         13    1    4    4    0    0  0.25507350018E+02 -0.59660368253E+02 -0.22566228778E+02  0.68696572886E+02  0.00000000000E+00 0. -1.
        -14    1    4    4    0    0  0.20787850480E+01  0.26018780124E+02 -0.51091203558E+01  0.26597018202E+02  0.00000000000E+00 0.  1.
</event>
<event>
12    1  0.9873238E-001  0.3093220E+03  0.7818608E-02  0.1080853E+00
         21   -1    0    0  501  502  0.00000000000E+00  0.00000000000E+00  0.34245285589E+03  0.34245285589E+03  0.00000000000E+00 0.  1.
         21   -1    0    0  502  503 -0.00000000000E+00 -0.00000000000E+00 -0.29673267328E+03  0.29673267328E+03  0.00000000000E+00 0.  1.
         -6    2    1    2    0  503 -0.14514488942E+03 -0.21000503417E+03  0.10312894220E+03  0.32606088199E+03  0.17467388684E+03 0.  0.
        -24    2    3    3    0    0 -0.69781496617E+02 -0.11562511659E+03  0.12887479562E+03  0.20248034636E+03  0.78428010680E+02 0.  0.
          6    2    1    2  501    0  0.14514488942E+03  0.21000503417E+03 -0.57408759586E+02  0.31312464717E+03  0.17199455134E+03 0.  0.
         24    2    5    5    0    0  0.31478693922E+02  0.53649312982E+02  0.25455470786E+02  0.10275429227E+03  0.77725842759E+02 0.  0.
          5    1    5    5  501    0  0.11366619550E+03  0.15635572119E+03 -0.82864230372E+02  0.21037035490E+03  0.47000000000E+01 0. -1.
        -13    1    6    6    0    0  0.73596260268E+01  0.61621794306E+02 -0.59694701335E+01  0.62346164296E+02  0.00000000000E+00 0.  1.
         14    1    6    6    0    0  0.24119067895E+02 -0.79724813242E+01  0.31424940919E+02  0.40408127974E+02  0.00000000000E+00 0. -1.
         -5    1    3    3    0  503 -0.75363392806E+02 -0.94379917578E+02 -0.25745853426E+02  0.12358053563E+03  0.47000000000E+01 0.  1.
         11    1    4    4    0    0 -0.47376221302E+02 -0.11635540992E+03  0.80623077372E+02  0.14927547812E+03  0.00000000000E+00 0. -1.
        -12    1    4    4    0    0 -0.22405275315E+02  0.73029333355E+00  0.48251718251E+02  0.53204868241E+02  0.00000000000E+00 0.  1.
</event>
<event>
12    1  0.9873238E-001  0.2012549E+03  0.7818608E-02  0.1148769E+00
         21   -1    0    0  503  502  0.00000000000E+00  0.00000000000E+00  0.45224431117E+02  0.45224431117E+02  0.00000000000E+00 0.  1.
         21   -1    0    0  501  503 -0.00000000000E+00 -0.00000000000E+00 -0.16634244877E+04  0.16634244877E+04  0.00000000000E+00 0.  1.
          6    2    1    2  501    0 -0.77444604334E+02 -0.70717709011E+02 -0.22755860741E+03  0.30352002996E+03  0.17129748297E+03 0.  0.
         24    2    3    3    0    0  0.24760133810E+02 -0.43909133358E+02 -0.88755792278E+02  0.12901266703E+03  0.78902480148E+02 0.  0.
         -6    2    1    2    0  502  0.77444604334E+02  0.70717709011E+02 -0.13906414492E+04  0.14051288889E+04  0.17176988395E+03 0.  0.
        -24    2    5    5    0    0  0.30469330789E+02  0.10022830510E+03 -0.11760533710E+04  0.11834361174E+04  0.80283369094E+02 0.  0.
          5    1    3    3  501    0 -0.10220473814E+03 -0.26808575653E+02 -0.13880281514E+03  0.17450736293E+03  0.47000000000E+01 0. -1.
        -11    1    4    4    0    0 -0.54891152145E+01  0.18580526243E+02 -0.39162440964E+02  0.43692826912E+02  0.00000000000E+00 0.  1.
         12    1    4    4    0    0  0.30249249025E+02 -0.62489659601E+02 -0.49593351313E+02  0.85319840120E+02  0.00000000000E+00 0. -1.
         -5    1    5    5    0  502  0.46975273546E+02 -0.29510596086E+02 -0.21458807821E+03  0.22169277145E+03  0.47000000000E+01 0.  1.
         13    1    6    6    0    0  0.44764857486E+02  0.48306690138E+02 -0.38842552436E+03  0.39396930940E+03  0.00000000000E+00 0. -1.
        -14    1    6    6    0    0 -0.14295526697E+02  0.51921614958E+02 -0.78762784665E+03  0.78946680805E+03  0.00000000000E+00 0.  1.
</event>
<event>
12    1  0.9873238E-001  0.1969535E+03  0.7818608E-02  0.1152391E+00
         21   -1    0    0  501  502  0.00000000000E+00  0.00000000000E+00  0.10360837584E+04  0.10360837584E+04  0.00000000000E+00 0.  1.
         21   -1    0    0  502  503 -0.00000000000E+00 -0.00000000000E+00 -0.38989387788E+02  0.38989387788E+02  0.00000000000E+00 0.  1.
         -6    2    1    2    0  503 -0.19327110618E+02 -0.94428870636E+02  0.60773668825E+03  0.63885409126E+03  0.17175656861E+03 0.  0.
        -24    2    3    3    0    0  0.17881054411E+02 -0.44253457376E+02  0.53515493111E+03  0.54297801964E+03  0.78461639792E+02 0.  0.
          6    2    1    2  501    0  0.19327110618E+02  0.94428870636E+02  0.38935768232E+03  0.43621905489E+03  0.17145643835E+03 0.  0.
         24    2    5    5    0    0 -0.14509281723E+02  0.62194914097E+02  0.37254652463E+03  0.38633284012E+03  0.79896331265E+02 0.  0.
          5    1    5    5  501    0  0.33836392341E+02  0.32233956539E+02  0.16811157697E+02  0.49886214768E+02  0.47000000000E+01 0. -1.
        -13    1    6    6    0    0 -0.11161023184E+02 -0.17246295101E+02  0.48445447913E+02  0.52620951690E+02  0.00000000000E+00 0.  1.
         14    1    6    6    0    0 -0.33482585395E+01  0.79441209198E+02  0.32410107671E+03  0.33371188843E+03  0.00000000000E+00 0. -1.
         -5    1    3    3    0  503 -0.37208165028E+02 -0.50175413260E+02  0.72581757138E+02  0.95876071622E+02  0.47000000000E+01 0.  1.
         13    1    4    4    0    0  0.42263193422E-01 -0.64350771251E+02  0.34739537406E+03  0.35330520724E+03  0.00000000000E+00 0. -1.
        -14    1    4    4    0    0  0.17838791217E+02  0.20097313875E+02  0.18775955705E+03  0.18967281239E+03  0.00000000000E+00 0.  1.
</event>
<event>
12    1  0.9873238E-001  0.2849553E+03  0.7818608E-02  0.1093205E+00
         21   -1    0    0  501  502  0.00000000000E+00  0.00000000000E+00  0.10468587328E+04  0.10468587328E+04  0.00000000000E+00 0. -1.
         21   -1    0    0  502  503 -0.00000000000E+00 -0.00000000000E+00 -0.93989084494E+02  0.93989084494E+02  0.00000000000E+00 0. -1.
         -6    2    1    2    0  503  0.37586432056E+02 -0.22415235284E+03  0.71869135148E+03  0.77312145853E+03  0.17187935826E+03 0.  0.
        -24    2    3    3    0    0  0.18154977155E+02 -0.18595342779E+03  0.36171396527E+03  0.41354993076E+03  0.72651717549E+02 0.  0.
          6    2    1    2  501    0 -0.37586432056E+02  0.22415235284E+03  0.23417829684E+03  0.36772635878E+03  0.16948800273E+03 0.  0.
         24    2    5    5    0    0 -0.61343195786E+02  0.23479883734E+03  0.22239950324E+03  0.33876843354E+03  0.80056422828E+02 0.  0.
          5    1    5    5  501    0  0.23756763729E+02 -0.10646484505E+02  0.11778793598E+02  0.28957925234E+02  0.47000000000E+01 0. -1.
        -13    1    6    6    0    0 -0.32791130945E+02  0.98869123041E+02  0.14863172001E+03  0.18149862246E+03  0.00000000000E+00 0.  1.
         14    1    6    6    0    0 -0.28552064840E+02  0.13592971430E+03  0.73767783230E+02  0.15726981109E+03  0.00000000000E+00 0. -1.
         -5    1    3    3    0  503  0.19431454901E+02 -0.38198925043E+02  0.35697738621E+03  0.35957152777E+03  0.47000000000E+01 0.  1.
         11    1    4    4    0    0 -0.21189329824E+02 -0.13177303807E+03  0.24479933993E+03  0.27881864732E+03  0.00000000000E+00 0. -1.
        -12    1    4    4    0    0  0.39344306979E+02 -0.54180389725E+02  0.11691462533E+03  0.13473128345E+03  0.00000000000E+00 0.  1.
</event>
<event>
12    1  0.9873238E-001  0.2065465E+03  0.7818608E-02  0.1144340E+00
         21   -1    0    0  503  502  0.00000000000E+00  0.00000000000E+00  0.19669331018E+03  0.19669331018E+03  0.00000000000E+00 0.  1.
         21   -1    0    0  501  503 -0.00000000000E+00 -0.00000000000E+00 -0.21708055984E+03  0.21708055984E+03  0.00000000000E+00 0.  1.
          6    2    1    2  501    0  0.78272861669E+02 -0.83377824109E+02 -0.17030543901E+02  0.20720006707E+03  0.17193989049E+03 0.  0.
         24    2    3    3    0    0  0.10727459031E+03 -0.71015883299E+02  0.26564010565E+02  0.15319550223E+03  0.78817014910E+02 0.  0.
         -6    2    1    2    0  502 -0.78272861669E+02  0.83377824109E+02 -0.33567057617E+01  0.20657380295E+03  0.17199699464E+03 0.  0.
        -24    2    5    5    0    0 -0.99628833824E+02  0.52232404099E+02 -0.50988815364E+02  0.14560641331E+03  0.77118348903E+02 0.  0.
          5    1    3    3  501    0 -0.29001728639E+02 -0.12361940810E+02 -0.43594554465E+02  0.54004564841E+02  0.47000000000E+01 0. -1.
        -11    1    4    4    0    0  0.66242532539E+01 -0.14808627335E+02 -0.22640527830E+02  0.27852642158E+02  0.00000000000E+00 0.  1.
         12    1    4    4    0    0  0.10065033705E+03 -0.56207255963E+02  0.49204538395E+02  0.12534286007E+03  0.00000000000E+00 0. -1.
         -5    1    5    5    0  502  0.21355972155E+02  0.31145420010E+02  0.47632109602E+02  0.60967389639E+02  0.47000000000E+01 0.  1.
         11    1    6    6    0    0 -0.90388560477E+02  0.56015039010E+02 -0.67757220276E+02  0.12609051257E+03  0.00000000000E+00 0. -1.
        -12    1    6    6    0    0 -0.92402733470E+01 -0.37826349117E+01  0.16768404912E+02  0.19515900740E+02  0.00000000000E+00 0.  1.
</event>
<event>
12    1  0.9873238E-001  0.1864686E+03  0.7818608E-02  0.1162396E+00
         21   -1    0    0  501  502  0.00000000000E+00  0.00000000000E+00  0.60090295182E+02  0.60090295182E+02  0.00000000000E+00 0.  1.
         21   -1    0    0  502  503 -0.00000000000E+00 -0.00000000000E+00 -0.56922900310E+03  0.56922900310E+03  0.00000000000E+00 0.  1.
         -6    2    1    2    0  503 -0.48872377150E+02 -0.39121501312E+02 -0.25324492916E+03  0.31269307141E+03  0.17240928526E+03 0.  0.
        -24    2    3    3    0    0 -0.78632296031E+02 -0.76892963056E+02 -0.14874139931E+03  0.19756091324E+03  0.69359533028E+02 0.  0.
          6    2    1    2  501    0  0.48872377150E+02  0.39121501312E+02 -0.25589377876E+03  0.31662622688E+03  0.17564606579E+03 0.  0.
         24    2    5    5    0    0  0.94128761412E+02 -0.30070950110E+01 -0.13774022360E+03  0.18318968188E+03  0.75609681950E+02 0.  0.
          5    1    5    5  501    0 -0.45256384262E+02  0.42128596323E+02 -0.11815355515E+03  0.13343654499E+03  0.47000000000E+01 0. -1.
        -11    1    6    6    0    0  0.39389008222E+02 -0.37886636014E+02 -0.75981090756E+02  0.93594964126E+02  0.00000000000E+00 0.  1.
         12    1    6    6    0    0  0.54739753190E+02  0.34879541003E+02 -0.61759132847E+02  0.89594717757E+02  0.00000000000E+00 0. -1.
         -5    1    3    3    0  503  0.29759918881E+02  0.37771461745E+02 -0.10450352985E+03  0.11513215817E+03  0.47000000000E+01 0.  1.
         13    1    4    4    0    0  0.11525448511E+02 -0.28468740748E+01 -0.63021685295E+01  0.13440907096E+02  0.00000000000E+00 0. -1.
        -14    1    4    4    0    0 -0.90157744543E+02 -0.74046088981E+02 -0.14243923078E+03  0.18412000614E+03  0.00000000000E+00 0.  1.
</event>
<event>
12    1  0.9873238E-001  0.1972572E+03  0.7818608E-02  0.1152295E+00
         21   -1    0    0  503  502  0.00000000000E+00  0.00000000000E+00  0.64965016596E+03  0.64965016596E+03  0.00000000000E+00 0. -1.
         21   -1    0    0  501  503 -0.00000000000E+00 -0.00000000000E+00 -0.95555871709E+02  0.95555871709E+02  0.00000000000E+00 0. -1.
          6    2    1    2  501    0  0.73560095716E+02 -0.62916775924E+02  0.50521134763E+03  0.54198213899E+03  0.17069424370E+03 0.  0.
         24    2    3    3    0    0  0.64401438231E+02 -0.45888748078E+02  0.15665534071E+03  0.19285864408E+03  0.80001489830E+02 0.  0.
         -6    2    1    2    0  502 -0.73560095716E+02  0.62916775924E+02  0.48882946627E+02  0.20322389869E+03  0.17187437899E+03 0.  0.
        -24    2    5    5    0    0  0.13677907284E+02  0.10187188359E+02  0.53466221031E+02  0.10107706821E+03  0.84065884713E+02 0.  0.
          5    1    3    3  501    0  0.91586574845E+01 -0.17028027846E+02  0.34855600692E+03  0.34912349491E+03  0.47000000000E+01 0. -1.
        -13    1    4    4    0    0  0.39425290722E+02 -0.30522366764E+02  0.15573265797E+03  0.16351950703E+03  0.00000000000E+00 0.  1.
         14    1    4    4    0    0  0.24976147510E+02 -0.15366381314E+02  0.92268274185E+00  0.29339137045E+02  0.00000000000E+00 0. -1.
         -5    1    5    5    0  502 -0.87238002999E+02  0.52729587565E+02 -0.45832744045E+01  0.10214683048E+03  0.47000000000E+01 0.  1.
         13    1    6    6    0    0  0.45486650588E+02  0.23555491923E+02  0.30236940795E+02  0.59482511464E+02  0.00000000000E+00 0. -1.
        -14    1    6    6    0    0 -0.31808743304E+02 -0.13368303563E+02  0.23229280236E+02  0.41594556748E+02  0.00000000000E+00 0.  1.
</event>
<event>
12    1  0.9873238E-001  0.1837233E+03  0.7818608E-02  0.1165477E+00
         21   -1    0    0  503  502  0.00000000000E+00  0.00000000000E+00  0.90382786577E+02  0.90382786577E+02  0.00000000000E+00 0. -1.
         21   -1    0    0  501  503 -0.00000000000E+00 -0.00000000000E+00 -0.46124650385E+03  0.46124650385E+03  0.00000000000E+00 0. -1.
          6    2    1    2  501    0  0.24423111110E+02  0.27333885765E+02 -0.31473111657E+03  0.36443097765E+03  0.18002953110E+03 0.  0.
         24    2    3    3    0    0 -0.37541724337E+02 -0.31515385166E+02 -0.20389809491E+03  0.22439910195E+03  0.79861901311E+02 0.  0.
         -6    2    1    2    0  502 -0.24423111110E+02 -0.27333885765E+02 -0.56132600706E+02  0.18719831278E+03  0.17478189202E+03 0.  0.
        -24    2    5    5    0    0  0.51420469339E+02 -0.13150282774E+01 -0.50167309699E+02  0.10665699210E+03  0.78823607089E+02 0.  0.
          5    1    3    3  501    0  0.61964835447E+02  0.58849270931E+02 -0.11083302166E+03  0.14003187570E+03  0.47000000000E+01 0. -1.
        -11    1    4    4    0    0  0.13792608612E+02  0.11090365361E+02 -0.95434368498E+02  0.97061583270E+02  0.00000000000E+00 0.  1.
         12    1    4    4    0    0 -0.51334332949E+02 -0.42605750527E+02 -0.10846372641E+03  0.12733751868E+03  0.00000000000E+00 0. -1.
         -5    1    5    5    0  502 -0.75843580449E+02 -0.26018857487E+02 -0.59652910071E+01  0.80541320681E+02  0.47000000000E+01 0.  1.
         11    1    6    6    0    0  0.57911827549E+01  0.56622444157E+01 -0.59090312094E+02  0.59642801685E+02  0.00000000000E+00 0. -1.
        -12    1    6    6    0    0  0.45629286584E+02 -0.69772726931E+01  0.89230023950E+01  0.47014190412E+02  0.00000000000E+00 0.  1.
</event>
<event>
12    1  0.9873238E-001  0.2395923E+03  0.7818608E-02  0.1120212E+00
         21   -1    0    0  503  502  0.00000000000E+00  0.00000000000E+00  0.73785301689E+03  0.73785301689E+03  0.00000000000E+00 0.  1.
         21   -1    0    0  501  503 -0.00000000000E+00 -0.00000000000E+00 -0.10295598434E+03  0.10295598434E+03  0.00000000000E+00 0.  1.
          6    2    1    2  501    0 -0.75633434125E+02 -0.14827387272E+03  0.52599401048E+03  0.57762780142E+03  0.17110996528E+03 0.  0.
         24    2    3    3    0    0 -0.21186066263E+02 -0.93832610542E+02  0.14710023337E+03  0.19096134149E+03  0.74661550228E+02 0.  0.
         -6    2    1    2    0  502  0.75633434125E+02  0.14827387272E+03  0.10890302207E+03  0.26318119981E+03  0.17233374026E+03 0.  0.
        -24    2    5    5    0    0  0.40293052593E+02  0.17281643886E+03  0.75628573576E+02  0.20858670337E+03  0.79370523845E+02 0.  0.
          5    1    3    3  501    0 -0.54447367861E+02 -0.54441262177E+02  0.37889377712E+03  0.38666645993E+03  0.47000000000E+01 0. -1.
        -11    1    4    4    0    0  0.21554331367E+02 -0.62644530437E+01  0.15780364375E+02  0.27438157235E+02  0.00000000000E+00 0.  1.
         12    1    4    4    0    0 -0.42740397630E+02 -0.87568157499E+02  0.13131986899E+03  0.16352318426E+03  0.00000000000E+00 0. -1.
         -5    1    5    5    0  502  0.35340381532E+02 -0.24542566137E+02  0.33274448494E+02  0.54594496444E+02  0.47000000000E+01 0.  1.
         11    1    6    6    0    0  0.28724537919E+02  0.16955790436E+03  0.48138481278E+02  0.17858414092E+03  0.00000000000E+00 0. -1.
        -12    1    6    6    0    0  0.11568514674E+02  0.32585344962E+01  0.27490092298E+02  0.30002562447E+02  0.00000000000E+00 0.  1.
</event>
<event>
12    1  0.9873238E-001  0.2152339E+03  0.7818608E-02  0.1138700E+00
         21   -1    0    0  503  502  0.00000000000E+00  0.00000000000E+00  0.48958102718E+03  0.48958102718E+03  0.00000000000E+00 0. -1.
         21   -1    0    0  501  503 -0.00000000000E+00 -0.00000000000E+00 -0.27185517148E+03  0.27185517148E+03  0.00000000000E+00 0. -1.
          6    2    1    2  501    0  0.10984683029E+03  0.41244309899E+02  0.41914138741E+03  0.47117418849E+03  0.18043889281E+03 0.  0.
         24    2    3    3    0    0  0.99629937664E+02  0.23562085259E+02  0.42905282311E+03  0.44799289170E+03  0.78294378154E+02 0.  0.
         -6    2    1    2    0  502 -0.10984683029E+03 -0.41244309899E+02 -0.20141553171E+03  0.29026201017E+03  0.17296357683E+03 0.  0.
        -24    2    5    5    0    0 -0.14506276130E+03 -0.37565519069E+02 -0.18213285706E+03  0.24967128659E+03  0.81908490343E+02 0.  0.
          5    1    3    3  501    0  0.10216892627E+02  0.17682224640E+02 -0.99114357067E+01  0.23181296792E+02  0.47000000000E+01 0. -1.
        -13    1    4    4    0    0  0.61937437388E+02  0.41658241174E+02  0.35671296731E+03  0.36443901583E+03  0.00000000000E+00 0.  1.
         14    1    4    4    0    0  0.37692500276E+02 -0.18096155915E+02  0.72339855801E+02  0.83553875872E+02  0.00000000000E+00 0. -1.
         -5    1    5    5    0  502  0.35215931008E+02 -0.36787908300E+01 -0.19282674650E+02  0.40590723576E+02  0.47000000000E+01 0.  1.
         13    1    6    6    0    0  0.71648815290E+01 -0.17316717994E+01 -0.32159155147E+02  0.32993112528E+02  0.00000000000E+00 0. -1.
        -14    1    6    6    0    0 -0.15222764283E+03 -0.35833847270E+02 -0.14997370191E+03  0.21667817407E+03  0.00000000000E+00 0.  1.
</event>
<event>
12    1  0.9873238E-001  0.1744737E+03  0.7818608E-02  0.1173321E+00
         21   -1    0    0  501  502  0.00000000000E+00  0.00000000000E+00  0.82998558509E+03  0.82998558509E+03  0.00000000000E+00 0. -1.
         21   -1    0    0  502  503 -0.00000000000E+00 -0.00000000000E+00 -0.36758833803E+02  0.36758833803E+02  0.00000000000E+00 0. -1.
         -6    2    1    2    0  503 -0.28020036626E+01  0.29789645295E+02  0.37088081342E+03  0.40987027086E+03  0.17188887975E+03 0.  0.
        -24    2    3    3    0    0  0.36963159931E+02  0.16847758031E+01  0.93968325334E+02  0.12866968768E+03  0.79729095690E+02 0.  0.
          6    2    1    2  501    0  0.28020036626E+01 -0.29789645295E+02  0.42234593787E+03  0.45687414804E+03  0.17164679349E+03 0.  0.
         24    2    5    5    0    0 -0.27963140650E+02  0.41674533018E+02  0.27180297543E+03  0.28734864427E+03  0.78572781383E+02 0.  0.
          5    1    5    5  501    0  0.30765144312E+02 -0.71464178312E+02  0.15054296244E+03  0.16952550376E+03  0.47000000000E+01 0. -1.
        -13    1    6    6    0    0 -0.53649326253E+01  0.21775755560E+02  0.11302937313E+02  0.25114187707E+02  0.00000000000E+00 0.  1.
         14    1    6    6    0    0 -0.22598208024E+02  0.19898777458E+02  0.26050003812E+03  0.26223445657E+03  0.00000000000E+00 0. -1.
         -5    1    3    3    0  503 -0.39765163593E+02  0.28104869491E+02  0.27691248808E+03  0.28120058318E+03  0.47000000000E+01 0.  1.
         11    1    4    4    0    0 -0.22454929700E+02  0.14714862442E+02  0.24669682241E+02  0.36460173702E+02  0.00000000000E+00 0. -1.
        -12    1    4    4    0    0  0.59418089631E+02 -0.13030086639E+02  0.69298643093E+02  0.92209513976E+02  0.00000000000E+00 0.  1.
</event>
<event>
12    1  0.9873238E-001  0.7432508E+03  0.7818608E-02  0.9646172E-01
         21   -1    0    0  503  502  0.00000000000E+00  0.00000000000E+00  0.78541752167E+03  0.78541752167E+03  0.00000000000E+00 0. -1.
         21   -1    0    0  501  503 -0.00000000000E+00 -0.00000000000E+00 -0.88226711450E+03  0.88226711450E+03  0.00000000000E+00 0.  1.
          6    2    1    2  501    0 -0.64824129465E+03 -0.31980071617E+03 -0.42434883983E+03  0.85547927017E+03  0.17112442748E+03 0.  0.
         24    2    3    3    0    0 -0.36426917188E+03 -0.18867024475E+03 -0.31663125208E+03  0.52463106365E+03  0.81816332873E+02 0.  0.
         -6    2    1    2    0  502  0.64824129465E+03  0.31980071617E+03  0.32749924700E+03  0.81220536599E+03  0.17301018929E+03 0.  0.
        -24    2    5    5    0    0  0.10173405718E+03  0.60746087874E+02  0.50210472744E+02  0.14685537134E+03  0.70749579049E+02 0.  0.
          5    1    3    3  501    0 -0.28397212277E+03 -0.13113047142E+03 -0.10771758776E+03  0.33084820652E+03  0.47000000000E+01 0. -1.
        -13    1    4    4    0    0 -0.24720913829E+03 -0.98058445342E+02 -0.16636319242E+03  0.31369496099E+03  0.00000000000E+00 0.  1.
         14    1    4    4    0    0 -0.11706003359E+03 -0.90611799404E+02 -0.15026805965E+03  0.21093610266E+03  0.00000000000E+00 0. -1.
         -5    1    5    5    0  502  0.54650723746E+03  0.25905462830E+03  0.27728877426E+03  0.66534999464E+03  0.47000000000E+01 0.  1.
         11    1    6    6    0    0  0.81870356671E+02  0.45231467631E+02  0.68312252162E+02  0.11582402497E+03  0.00000000000E+00 0. -1.
        -12    1    6    6    0    0  0.19863700514E+02  0.15514620243E+02 -0.18101779418E+02  0.31031346369E+02  0.00000000000E+00 0.  1.
</event>
<event>
12    1  0.9873238E-001  0.2698296E+03  0.7818608E-02  0.1101572E+00
         21   -1    0    0  503  502  0.00000000000E+00  0.00000000000E+00  0.46372132325E+03  0.46372132325E+03  0.00000000000E+00 0.  1.
         21   -1    0    0  501  503 -0.00000000000E+00 -0.00000000000E+00 -0.18616701005E+03  0.18616701005E+03  0.00000000000E+00 0.  1.
          6    2    1    2  501    0  0.48970803158E+01  0.20843051494E+03  0.87442660867E+01  0.26997121241E+03  0.17129136694E+03 0.  0.
         24    2    3    3    0    0  0.43234097033E+02  0.14686140193E+03  0.60763732408E+02  0.18059225849E+03  0.74053184451E+02 0.  0.
         -6    2    1    2    0  502 -0.48970803158E+01 -0.20843051494E+03  0.26881004711E+03  0.37991712088E+03  0.16914761705E+03 0.  0.
        -24    2    5    5    0    0 -0.18026379489E+02 -0.95264876870E+02  0.54446638271E+02  0.13711555337E+03  0.80224007838E+02 0.  0.
          5    1    3    3  501    0 -0.38337016717E+02  0.61569113019E+02 -0.52019466321E+02  0.89378953927E+02  0.47000000000E+01 0. -1.
        -13    1    4    4    0    0 -0.16181728295E+01 -0.20047569320E+01 -0.95965628189E+01  0.99363751740E+01  0.00000000000E+00 0.  1.
         14    1    4    4    0    0  0.44852269863E+02  0.14886615886E+03  0.70360295227E+02  0.17065588331E+03  0.00000000000E+00 0. -1.
         -5    1    5    5    0  502  0.13129299173E+02 -0.11316563807E+03  0.21436340884E+03  0.24280156752E+03  0.47000000000E+01 0.  1.
         11    1    6    6    0    0 -0.23446253105E+02 -0.25870952096E+02  0.57692297316E+02  0.67434665541E+02  0.00000000000E+00 0. -1.
        -12    1    6    6    0    0  0.54198736163E+01 -0.69393924775E+02 -0.32456590446E+01  0.69680887826E+02  0.00000000000E+00 0.  1.
</event>
<event>
12    1  0.9873238E-001  0.2530224E+03  0.7818608E-02  0.1111719E+00
         21   -1    0    0  503  502  0.00000000000E+00  0.00000000000E+00  0.13288566954E+04  0.13288566954E+04  0.00000000000E+00 0.  1.
         21   -1    0    0  501  503 -0.00000000000E+00 -0.00000000000E+00 -0.13458250770E+03  0.13458250770E+03  0.00000000000E+00 0. -1.
          6    2    1    2  501    0  0.15953413731E+01  0.18243634782E+03  0.10394585300E+02  0.25323583448E+03  0.17531336041E+03 0.  0.
         24    2    3    3    0    0 -0.50087349489E+02  0.79690339754E+02  0.46157909925E+02  0.13269974819E+03  0.81359558093E+02 0.  0.
         -6    2    1    2    0  502 -0.15953413731E+01 -0.18243634782E+03  0.11838796024E+04  0.12102033686E+04  0.17244046602E+03 0.  0.
        -24    2    5    5    0    0 -0.40293463801E+02 -0.12475864238E+03  0.10292329297E+04  0.10406098966E+04  0.79751182972E+02 0.  0.
          5    1    3    3  501    0  0.51682690862E+02  0.10274600807E+03 -0.35763324625E+02  0.12053608628E+03  0.47000000000E+01 0. -1.
        -11    1    4    4    0    0 -0.37505177197E+01 -0.15224354405E+01  0.38688767969E+02  0.38899935215E+02  0.00000000000E+00 0.  1.
         12    1    4    4    0    0 -0.46336831769E+02  0.81212775194E+02  0.74691419562E+01  0.93799812978E+02  0.00000000000E+00 0. -1.
         -5    1    5    5    0  502  0.38698122428E+02 -0.57677705441E+02  0.15464667266E+03  0.16959347202E+03  0.47000000000E+01 0.  1.
         13    1    6    6    0    0 -0.16404088041E+02 -0.57100470863E+02  0.21003436105E+03  0.21827503453E+03  0.00000000000E+00 0. -1.
        -14    1    6    6    0    0 -0.23889375760E+02 -0.67658171515E+02  0.81919856866E+03  0.82233486205E+03  0.00000000000E+00 0.  1.
</event>
<event>
12    1  0.9873238E-001  0.1820551E+03  0.7818608E-02  0.1166579E+00
         21   -1    0    0  501  502  0.00000000000E+00  0.00000000000E+00  0.13988147961E+03  0.13988147961E+03  0.00000000000E+00 0. -1.
         21   -1    0    0  502  503 -0.00000000000E+00 -0.00000000000E+00 -0.34010355489E+03  0.34010355489E+03  0.00000000000E+00 0. -1.
         -6    2    1    2    0  503  0.54854391012E+02  0.66298687941E+00  0.35213717541E+02  0.18237104780E+03  0.17032248650E+03 0.  0.
        -24    2    3    3    0    0  0.41789823332E+02  0.58561269014E+02  0.53336234926E+02  0.12013432521E+03  0.80073032758E+02 0.  0.
          6    2    1    2  501    0 -0.54854391012E+02 -0.66298687941E+00 -0.23543579283E+03  0.29761398669E+03  0.17359328549E+03 0.  0.
         24    2    5    5    0    0  0.26626053831E+02 -0.39052946639E+02 -0.89206104876E+02  0.12580576937E+03  0.75068522533E+02 0.  0.
          5    1    5    5  501    0 -0.81480444844E+02  0.38389959760E+02 -0.14622968795E+03  0.17180821733E+03  0.47000000000E+01 0. -1.
        -11    1    6    6    0    0 -0.25973687582E+02 -0.19686607108E+02 -0.35163478286E+02  0.47944396453E+02  0.00000000000E+00 0.  1.
         12    1    6    6    0    0  0.52599741413E+02 -0.19366339531E+02 -0.54042626590E+02  0.77861372916E+02  0.00000000000E+00 0. -1.
         -5    1    3    3    0  503  0.13064567680E+02 -0.57898282134E+02 -0.18122517385E+02  0.62236722593E+02  0.47000000000E+01 0.  1.
         11    1    4    4    0    0  0.55176366537E+02  0.16875421941E+02  0.49783901526E+02  0.76207927023E+02  0.00000000000E+00 0. -1.
        -12    1    4    4    0    0 -0.13386543205E+02  0.41685847073E+02  0.35523333999E+01  0.43926398188E+02  0.00000000000E+00 0.  1.
</event>
<event>
12    1  0.9873238E-001  0.2745162E+03  0.7818608E-02  0.1098804E+00
         21   -1    0    0  501  502  0.00000000000E+00  0.00000000000E+00  0.56102167150E+03  0.56102167150E+03  0.00000000000E+00 0. -1.
         21   -1    0    0  502  503 -0.00000000000E+00 -0.00000000000E+00 -0.45543509680E+03  0.45543509680E+03  0.00000000000E+00 0. -1.
         -6    2    1    2    0  503 -0.20947242893E+03 -0.44423240661E+02 -0.37412760314E+03  0.46403727989E+03  0.17177604869E+03 0.  0.
        -24    2    3    3    0    0 -0.34544672645E+02 -0.32926181240E+02 -0.16842161172E+03  0.19372459576E+03  0.82981394841E+02 0.  0.
          6    2    1    2  501    0  0.20947242893E+03  0.44423240661E+02  0.47971417783E+03  0.55241948841E+03  0.17084927852E+03 0.  0.
         24    2    5    5    0    0  0.48637427045E+02 -0.15685037003E+02  0.13259871545E+03  0.16513130488E+03  0.84108910459E+02 0.  0.
          5    1    5    5  501    0  0.16083500189E+03  0.60108277665E+02  0.34711546239E+03  0.38728818353E+03  0.47000000000E+01 0. -1.
        -13    1    6    6    0    0  0.62780168870E+02 -0.15467560815E+01  0.13074877957E+03  0.14504821756E+03  0.00000000000E+00 0.  1.
         14    1    6    6    0    0 -0.14142741825E+02 -0.14138280922E+02  0.18499358769E+01  0.20083087325E+02  0.00000000000E+00 0. -1.
         -5    1    3    3    0  503 -0.17492775629E+03 -0.11497059421E+02 -0.20570599142E+03  0.27031268413E+03  0.47000000000E+01 0.  1.
         11    1    4    4    0    0 -0.47742167204E+02 -0.53091325232E+02 -0.13149783111E+03  0.14963182459E+03  0.00000000000E+00 0. -1.
        -12    1    4    4    0    0  0.13197494559E+02  0.20165143992E+02 -0.36923780604E+02  0.44092771164E+02  0.00000000000E+00 0.  1.
</event>
<event>
12    1  0.9873238E-001  0.3126512E+03  0.7818608E-02  0.1080044E+00
         21   -1    0    0  501  502  0.00000000000E+00  0.00000000000E+00  0.28446707765E+03  0.28446707765E+03  0.00000000000E+00 0. -1.
         21   -1    0    0  502  503 -0.00000000000E+00 -0.00000000000E+00 -0.35884285322E+03  0.35884285322E+03  0.00000000000E+00 0. -1.
         -6    2    1    2    0  503 -0.22404351195E+03 -0.13784712931E+03  0.45467549977E+02  0.31593996100E+03  0.16897761553E+03 0.  0.
        -24    2    3    3    0    0 -0.45550576028E+02 -0.11001357240E+02  0.86111333245E+01  0.93836238576E+02  0.80840603755E+02 0.  0.
          6    2    1    2  501    0  0.22404351195E+03  0.13784712931E+03 -0.11984332554E+03  0.32736996987E+03  0.15365984573E+03 0.  0.
         24    2    5    5    0    0  0.41773078864E+02  0.38483936040E+02 -0.34128927300E+02  0.10272669038E+03  0.78498317098E+02 0.  0.
          5    1    5    5  501    0  0.18227043308E+03  0.99363193271E+02 -0.85714398243E+02  0.22464327949E+03  0.47000000000E+01 0. -1.
        -11    1    6    6    0    0  0.64534832765E+02  0.35068199257E+02 -0.30022910262E+02  0.79346697346E+02  0.00000000000E+00 0.  1.
         12    1    6    6    0    0 -0.22761753901E+02  0.34157367829E+01 -0.41060170374E+01  0.23379993035E+02  0.00000000000E+00 0. -1.
         -5    1    3    3    0  503 -0.17849293592E+03 -0.12684577207E+03  0.36856416652E+02  0.22210372242E+03  0.47000000000E+01 0.  1.
         11    1    4    4    0    0  0.72656279334E+01  0.21923788374E+02 -0.14697693321E+02  0.27376340787E+02  0.00000000000E+00 0. -1.
        -12    1    4    4    0    0 -0.52816203961E+02 -0.32925145614E+02  0.23308826645E+02  0.66459897789E+02  0.00000000000E+00 0.  1.
</event>
<event>
12    1  0.9873238E-001  0.1773582E+03  0.7818608E-02  0.1171365E+00
         21   -1    0    0  503  502  0.00000000000E+00  0.00000000000E+00  0.47842535593E+03  0.47842535593E+03  0.00000000000E+00 0. -1.
         21   -1    0    0  501  503 -0.00000000000E+00 -0.00000000000E+00 -0.68244468557E+02  0.68244468557E+02  0.00000000000E+00 0. -1.
          6    2    1    2  501    0 -0.95650693132E+01  0.41930998641E+02  0.13722681815E+03  0.22115505112E+03  0.16801386198E+03 0.  0.
         24    2    3    3    0    0  0.46902029454E+02  0.47887827464E+02  0.10151037254E+03  0.15391093212E+03  0.94293026816E+02 0.  0.
         -6    2    1    2    0  502  0.95650693132E+01 -0.41930998641E+02  0.27295406922E+03  0.32551477337E+03  0.17206465233E+03 0.  0.
        -24    2    5    5    0    0 -0.15155788401E+02  0.39279217970E+02  0.12764101464E+03  0.15715743341E+03  0.81447377921E+02 0.  0.
          5    1    3    3  501    0 -0.56467098768E+02 -0.59568288225E+01  0.35716445615E+02  0.67244119001E+02  0.47000000000E+01 0. -1.
        -11    1    4    4    0    0  0.16828440306E+02  0.72355131736E+02  0.81522703998E+02  0.11029239665E+03  0.00000000000E+00 0.  1.
         12    1    4    4    0    0  0.30073589149E+02 -0.24467304272E+02  0.19987668540E+02  0.43618535467E+02  0.00000000000E+00 0. -1.
         -5    1    5    5    0  502  0.24720857714E+02 -0.81210216611E+02  0.14531305457E+03  0.16835733996E+03  0.47000000000E+01 0.  1.
         13    1    6    6    0    0 -0.45180536718E+02  0.28143879395E+02  0.10567696413E+03  0.11832573512E+03  0.00000000000E+00 0. -1.
        -14    1    6    6    0    0  0.30024748317E+02  0.11135338575E+02  0.21964050519E+02  0.38831698287E+02  0.00000000000E+00 0.  1.
</event>
<event>
12    1  0.9873238E-001  0.2438148E+03  0.7818608E-02  0.1117312E+00
         21   -1    0    0  503  502  0.00000000000E+00  0.00000000000E+00  0.82843878453E+03  0.82843878453E+03  0.00000000000E+00 0.  1.
         21   -1    0    0  501  503 -0.00000000000E+00 -0.00000000000E+00 -0.81033337887E+02  0.81033337887E+02  0.00000000000E+00 0.  1.
          6    2    1    2  501    0 -0.16924306164E+03 -0.35698734155E+02  0.21917376064E+03  0.32768662659E+03  0.17153359542E+03 0.  0.
         24    2    3    3    0    0 -0.14545523602E+03  0.31056734515E+02  0.18118998114E+03  0.24714464530E+03  0.78287419102E+02 0.  0.
         -6    2    1    2    0  502  0.16924306164E+03  0.35698734155E+02  0.52823168600E+03  0.58178549582E+03  0.17183723555E+03 0.  0.
        -24    2    5    5    0    0  0.14600217407E+03  0.52121696804E+02  0.52451512196E+03  0.55270362165E+03  0.79573074014E+02 0.  0.
          5    1    3    3  501    0 -0.23787825623E+02 -0.66755468671E+02  0.37983779497E+02  0.80541981290E+02  0.47000000000E+01 0. -1.
        -11    1    4    4    0    0 -0.14877497496E+03  0.18838473124E+02  0.14418712635E+03  0.20803559467E+03  0.00000000000E+00 0.  1.
         12    1    4    4    0    0  0.33197389458E+01  0.12218261392E+02  0.37002854798E+02  0.39109050631E+02  0.00000000000E+00 0. -1.
         -5    1    5    5    0  502  0.23240887574E+02 -0.16422962649E+02  0.37165640419E+01  0.29081874177E+02  0.47000000000E+01 0.  1.
         11    1    6    6    0    0  0.94789940849E+02  0.46968577164E+02  0.44914605773E+03  0.46143619418E+03  0.00000000000E+00 0. -1.
        -12    1    6    6    0    0  0.51212233219E+02  0.51531196397E+01  0.75369064227E+02  0.91267427463E+02  0.00000000000E+00 0.  1.
</event>
<event>
12    1  0.9873238E-001  0.2882641E+03  0.7818608E-02  0.1091292E+00
         21   -1    0    0  501  502  0.00000000000E+00  0.00000000000E+00  0.35562164664E+03  0.35562164664E+03  0.00000000000E+00 0. -1.
         21   -1    0    0  502  503 -0.00000000000E+00 -0.00000000000E+00 -0.29856116484E+03  0.29856116484E+03  0.00000000000E+00 0. -1.
         -6    2    1    2    0  503 -0.11030859296E+03  0.20282775765E+03  0.18127785439E+03  0.34052584875E+03  0.17259521493E+03 0.  0.
        -24    2    3    3    0    0 -0.10063629667E+03  0.18609871413E+03  0.82502605941E+02  0.23976844743E+03  0.76953445592E+02 0.  0.
          6    2    1    2  501    0  0.11030859296E+03 -0.20282775765E+03 -0.12421737259E+03  0.31365696273E+03  0.17217331286E+03 0.  0.
         24    2    5    5    0    0  0.13171354910E+03 -0.21400661090E+03 -0.11429189253E+03  0.28712878786E+03  0.78949449649E+02 0.  0.
          5    1    5    5  501    0 -0.21404956133E+02  0.11178853251E+02 -0.99254800623E+01  0.26528174862E+02  0.47000000000E+01 0. -1.
        -13    1    6    6    0    0  0.55201621134E+02 -0.13559808974E+03 -0.98471366665E+02  0.17643885902E+03  0.00000000000E+00 0.  1.
         14    1    6    6    0    0  0.76511927963E+02 -0.78408521152E+02 -0.15820525863E+02  0.11068992885E+03  0.00000000000E+00 0. -1.
         -5    1    3    3    0  503 -0.96722962972E+01  0.16729043511E+02  0.98775248452E+02  0.10075740131E+03  0.47000000000E+01 0.  1.
         13    1    4    4    0    0  0.11105398725E+02  0.49188267663E+01  0.27619988804E+01  0.12456057780E+02  0.00000000000E+00 0. -1.
        -14    1    4    4    0    0 -0.11174169539E+03  0.18117988737E+03  0.79740607061E+02  0.22731238965E+03  0.00000000000E+00 0.  1.
</event>
<event>
12    1  0.9873238E-001  0.1790993E+03  0.7818608E-02  0.1169112E+00
         21   -1    0    0  503  502  0.00000000000E+00  0.00000000000E+00  0.18362569244E+02  0.18362569244E+02  0.00000000000E+00 0. -1.
         21   -1    0    0  501  503 -0.00000000000E+00 -0.00000000000E+00 -0.18197366577E+04  0.18197366577E+04  0.00000000000E+00 0. -1.
          6    2    1    2  501    0 -0.20692132399E+02  0.37637426743E+02 -0.11094950500E+04  0.11238575595E+04  0.17387296494E+03 0.  0.
         24    2    3    3    0    0 -0.55807470125E+02  0.77371417869E+02 -0.84195135063E+03  0.85106900027E+03  0.79596208328E+02 0.  0.
         -6    2    1    2    0  502  0.20692132399E+02 -0.37637426743E+02 -0.69187903849E+03  0.71424166743E+03  0.17204596874E+03 0.  0.
        -24    2    5    5    0    0  0.75160868324E+02 -0.10986420457E+01 -0.47263059387E+03  0.48534453672E+03  0.80803947427E+02 0.  0.
          5    1    3    3  501    0  0.35115337726E+02 -0.39733991126E+02 -0.26754369934E+03  0.27278855924E+03  0.47000000000E+01 0. -1.
        -11    1    4    4    0    0 -0.48118612829E+02  0.18621386034E+01 -0.34996792314E+03  0.35326536157E+03  0.00000000000E+00 0.  1.
         12    1    4    4    0    0 -0.76888572964E+01  0.75509279266E+02 -0.49198342749E+03  0.49780363870E+03  0.00000000000E+00 0. -1.
         -5    1    5    5    0  502 -0.54468735925E+02 -0.36538784697E+02 -0.21924844462E+03  0.22889713071E+03  0.47000000000E+01 0.  1.
         13    1    6    6    0    0  0.22167542362E+02  0.14950007513E+02 -0.34102014292E+02  0.43334167094E+02  0.00000000000E+00 0. -1.
        -14    1    6    6    0    0  0.52993325962E+02 -0.16048649559E+02 -0.43852857958E+03  0.44201036962E+03  0.00000000000E+00 0.  1.
</event>
<event>
12    1  0.9873238E-001  0.1944535E+03  0.7818608E-02  0.1154721E+00
         21   -1    0    0  503  502  0.00000000000E+00  0.00000000000E+00  0.80360445072E+02  0.80360445072E+02  0.00000000000E+00 0. -1.
         21   -1    0    0  501  503 -0.00000000000E+00 -0.00000000000E+00 -0.72449888025E+03  0.72449888025E+03  0.00000000000E+00 0. -1.
          6    2    1    2  501    0 -0.24198014639E+01  0.88651064382E+02 -0.82165164759E+02  0.21019462215E+03  0.17194707972E+03 0.  0.
         24    2    3    3    0    0 -0.47301433075E+01 -0.16948322002E+02 -0.94942321570E+01  0.81899171998E+02  0.79421118447E+02 0.  0.
         -6    2    1    2    0  502  0.24198014639E+01 -0.88651064382E+02 -0.56197327042E+03  0.59466470318E+03  0.17305284129E+03 0.  0.
        -24    2    5    5    0    0  0.17354234128E+02 -0.95676059549E+02 -0.22937838010E+03  0.26162740961E+03  0.79871035987E+02 0.  0.
          5    1    3    3  501    0  0.23103418437E+01  0.10559938638E+03 -0.72670932602E+02  0.12829545015E+03  0.47000000000E+01 0. -1.
        -11    1    4    4    0    0  0.49021109075E+01  0.10907556360E+02  0.30186849144E+02  0.32469236799E+02  0.00000000000E+00 0.  1.
         12    1    4    4    0    0 -0.96322542150E+01 -0.27855878363E+02 -0.39681081301E+02  0.49429935199E+02  0.00000000000E+00 0. -1.
         -5    1    5    5    0  502 -0.14934432664E+02  0.70249951664E+01 -0.33259489033E+03  0.33303729357E+03  0.47000000000E+01 0.  1.
         13    1    6    6    0    0 -0.26829260282E+02 -0.56403552660E+02 -0.83892102279E+02  0.10458993634E+03  0.00000000000E+00 0. -1.
        -14    1    6    6    0    0  0.44183494410E+02 -0.39272506889E+02 -0.14548627782E+03  0.15703747326E+03  0.00000000000E+00 0.  1.
</event>
<event>
12    1  0.9873238E-001  0.1720602E+03  0.7818608E-02  0.1176297E+00
         21   -1    0    0  501  502  0.00000000000E+00  0.00000000000E+00  0.11762931986E+02  0.11762931986E+02  0.00000000000E+00 0.  1.
         21   -1    0    0  502  503 -0.00000000000E+00 -0.00000000000E+00 -0.30480366816E+04  0.30480366816E+04  0.00000000000E+00 0.  1.
         -6    2    1    2    0  503  0.10014166226E+02  0.14032066138E+01 -0.85188438974E+03  0.86864430410E+03  0.16951006179E+03 0.  0.
        -24    2    3    3    0    0  0.30071526001E+02  0.47039454404E+02 -0.31361611131E+03  0.32805222651E+03  0.78397647260E+02 0.  0.
          6    2    1    2  501    0 -0.10014166226E+02 -0.14032066138E+01 -0.21843893599E+04  0.21911553095E+04  0.17176280810E+03 0.  0.
         24    2    5    5    0    0 -0.40244820987E+02 -0.21882033350E+02 -0.20443867268E+04  0.20463930834E+04  0.78160694150E+02 0.  0.
          5    1    5    5  501    0  0.30230654761E+02  0.20478826736E+02 -0.14000263315E+03  0.14476222615E+03  0.47000000000E+01 0. -1.
        -11    1    6    6    0    0 -0.50812368736E+02 -0.37728538582E+02 -0.11033306952E+04  0.11051443175E+04  0.00000000000E+00 0.  1.
         12    1    6    6    0    0  0.10567547749E+02  0.15846505232E+02 -0.94105603157E+03  0.94124876593E+03  0.00000000000E+00 0. -1.
         -5    1    3    3    0  503 -0.20057359775E+02 -0.45636247791E+02 -0.53826827843E+03  0.54059207760E+03  0.47000000000E+01 0.  1.
         13    1    4    4    0    0 -0.75874693771E+01  0.97959553921E+01 -0.27316604810E+01  0.12688278156E+02  0.00000000000E+00 0. -1.
        -14    1    4    4    0    0  0.37658995378E+02  0.37243499012E+02 -0.31088445083E+03  0.31536394835E+03  0.00000000000E+00 0.  1.
</event>
<event>
12    1  0.9873238E-001  0.1745044E+03  0.7818608E-02  0.1175138E+00
         21   -1    0    0  503  502  0.00000000000E+00  0.00000000000E+00  0.22238147409E+03  0.22238147409E+03  0.00000000000E+00 0.  1.
         21   -1    0    0  501  503 -0.00000000000E+00 -0.00000000000E+00 -0.16889083623E+03  0.16889083623E+03  0.00000000000E+00 0.  1.
          6    2    1    2  501    0  0.17037327116E+02  0.22458571307E+02  0.11870923943E+03  0.20497882569E+03  0.16471119427E+03 0.  0.
         24    2    3    3    0    0  0.54018269039E+02 -0.21234360933E+02  0.44330602948E+02  0.11100577659E+03  0.83595505883E+02 0.  0.
         -6    2    1    2    0  502 -0.17037327116E+02 -0.22458571307E+02 -0.65218601574E+02  0.18629348463E+03  0.17221248063E+03 0.  0.
        -24    2    5    5    0    0  0.15151929189E+02 -0.58633057341E+02 -0.87219619776E+02  0.13289988517E+03  0.79923094497E+02 0.  0.
          5    1    3    3  501    0 -0.36980941924E+02  0.43692932239E+02  0.74378636484E+02  0.93973049107E+02  0.47000000000E+01 0. -1.
        -11    1    4    4    0    0  0.29620380156E+00 -0.21941766051E+02 -0.18239328294E+02  0.28534223850E+02  0.00000000000E+00 0.  1.
         12    1    4    4    0    0  0.53722065238E+02  0.70740511808E+00  0.62569931241E+02  0.82471552738E+02  0.00000000000E+00 0. -1.
         -5    1    5    5    0  502 -0.32189256305E+02  0.36174486034E+02  0.22001018202E+02  0.53393599460E+02  0.47000000000E+01 0.  1.
         11    1    6    6    0    0  0.13655566366E+02 -0.42631934346E+02 -0.56657369924E+00  0.44769155952E+02  0.00000000000E+00 0. -1.
        -12    1    6    6    0    0  0.14963628232E+01 -0.16001122995E+02 -0.86653046077E+02  0.88130729222E+02  0.00000000000E+00 0.  1.
</event>
<event>
12    1  0.9873238E-001  0.2171901E+03  0.7818608E-02  0.1136043E+00
         21   -1    0    0  501  502  0.00000000000E+00  0.00000000000E+00  0.23176744726E+03  0.23176744726E+03  0.00000000000E+00 0. -1.
         21   -1    0    0  502  503 -0.00000000000E+00 -0.00000000000E+00 -0.20410896828E+03  0.20410896828E+03  0.00000000000E+00 0. -1.
         -6    2    1    2    0  503  0.12509628815E+03  0.41164520748E+02  0.41020769485E-01  0.21693747169E+03  0.17238986589E+03 0.  0.
        -24    2    3    3    0    0  0.14263682239E+03  0.58321863586E+02 -0.31823180092E+02  0.17644720062E+03  0.79838568017E+02 0.  0.
          6    2    1    2  501    0 -0.12509628815E+03 -0.41164520748E+02  0.27617458213E+02  0.21893894384E+03  0.17270766646E+03 0.  0.
         24    2    5    5    0    0  0.10377225158E+02 -0.21693800883E+02  0.80944814154E+01  0.80608114437E+02  0.76510389393E+02 0.  0.
          5    1    5    5  501    0 -0.13547351331E+03 -0.19470719866E+02  0.19522976797E+02  0.13833082941E+03  0.47000000000E+01 0. -1.
        -11    1    6    6    0    0 -0.31256412508E+02 -0.20453667049E+02  0.10754195573E+02  0.38871178797E+02  0.00000000000E+00 0.  1.
         12    1    6    6    0    0  0.41633637666E+02 -0.12401338330E+01 -0.26597141572E+01  0.41736935640E+02  0.00000000000E+00 0. -1.
         -5    1    3    3    0  503 -0.17540534239E+02 -0.17157342837E+02  0.31864200861E+02  0.40490271068E+02  0.47000000000E+01 0.  1.
         13    1    4    4    0    0  0.51403665258E+02  0.43679555777E+01 -0.46487943682E+02  0.69444544391E+02  0.00000000000E+00 0. -1.
        -14    1    4    4    0    0  0.91233157133E+02  0.53953908008E+02  0.14664763590E+02  0.10700265623E+03  0.00000000000E+00 0.  1.
</event>
<event>
12    1  0.9873238E-001  0.3663263E+03  0.7818608E-02  0.1056137E+00
         21   -1    0    0  501  502  0.00000000000E+00  0.00000000000E+00  0.12990272457E+03  0.12990272457E+03  0.00000000000E+00 0.  1.
         21   -1    0    0  502  503 -0.00000000000E+00 -0.00000000000E+00 -0.11363624271E+04  0.11363624271E+04  0.00000000000E+00 0.  1.
         -6    2    1    2    0  503 -0.30932332985E+03  0.94648876249E+02 -0.69514467141E+03  0.78576145380E+03  0.17191746834E+03 0.  0.
        -24    2    3    3    0    0 -0.24301182829E+03  0.21493165265E+02 -0.40489026705E+03  0.47913679312E+03  0.78225528588E+02 0.  0.
          6    2    1    2  501    0  0.30932332985E+03 -0.94648876249E+02 -0.31131503108E+03  0.48050369783E+03  0.17125251205E+03 0.  0.
         24    2    5    5    0    0  0.16971440618E+03 -0.11711550478E+03 -0.15990327709E+03  0.27327674444E+03  0.81191747740E+02 0.  0.
          5    1    5    5  501    0  0.13960892367E+03  0.22466628527E+02 -0.15141175399E+03  0.20722695339E+03  0.47000000000E+01 0. -1.
        -13    1    6    6    0    0 -0.32861452177E+01 -0.14328494150E+01 -0.25017461532E+02  0.25273013064E+02  0.00000000000E+00 0.  1.
         14    1    6    6    0    0  0.17300055140E+03 -0.11568265536E+03 -0.13488581556E+03  0.24800373138E+03  0.00000000000E+00 0. -1.
         -5    1    3    3    0  503 -0.66311501563E+02  0.73155710984E+02 -0.29025440436E+03  0.30662466068E+03  0.47000000000E+01 0.  1.
         13    1    4    4    0    0 -0.18083225266E+03  0.49640073877E+02 -0.28440481195E+03  0.34066191098E+03  0.00000000000E+00 0. -1.
        -14    1    4    4    0    0 -0.62179575631E+02 -0.28146908612E+02 -0.12048545510E+03  0.13847488213E+03  0.00000000000E+00 0.  1.
</event>
<event>
12    1  0.9873238E-001  0.2235672E+03  0.7818608E-02  0.1132662E+00
         21   -1    0    0  501  502  0.00000000000E+00  0.00000000000E+00  0.28584980857E+03  0.28584980857E+03  0.00000000000E+00 0.  1.
         21   -1    0    0  502  503 -0.00000000000E+00 -0.00000000000E+00 -0.28483538415E+03  0.28483538415E+03  0.00000000000E+00 0.  1.
         -6    2    1    2    0  503 -0.13003107678E+02 -0.14244600520E+03  0.18247586412E+03  0.28274328494E+03  0.16182205963E+03 0.  0.
        -24    2    3    3    0    0  0.25039838177E+02 -0.14138498271E+03  0.10703872407E+03  0.19811915365E+03  0.84718379101E+02 0.  0.
          6    2    1    2  501    0  0.13003107678E+02  0.14244600520E+03 -0.18146143971E+03  0.28794190777E+03  0.17182067089E+03 0.  0.
         24    2    5    5    0    0  0.47254866261E+02  0.15312363383E+03 -0.11684534323E+03  0.21388433123E+03  0.80086224101E+02 0.  0.
          5    1    5    5  501    0 -0.34251758583E+02 -0.10677628630E+02 -0.64616096478E+02  0.74057576541E+02  0.47000000000E+01 0. -1.
        -13    1    6    6    0    0  0.68521111485E+02  0.13212618468E+03 -0.91621337304E+02  0.17477683155E+03  0.00000000000E+00 0.  1.
         14    1    6    6    0    0 -0.21266245224E+02  0.20997449152E+02 -0.25224005924E+02  0.39107499686E+02  0.00000000000E+00 0. -1.
         -5    1    3    3    0  503 -0.38042945856E+02 -0.10610224868E+01  0.75437140050E+02  0.84624131293E+02  0.47000000000E+01 0.  1.
         13    1    4    4    0    0  0.31426024693E+01 -0.12745580186E+03  0.11423741546E+03  0.17118716210E+03  0.00000000000E+00 0. -1.
        -14    1    4    4    0    0  0.21897235708E+02 -0.13929180852E+02 -0.71986913846E+01  0.26931991544E+02  0.00000000000E+00 0.  1.
</event>
<event>
12    1  0.9873238E-001  0.2361932E+03  0.7818608E-02  0.1122601E+00
         21   -1    0    0  503  502  0.00000000000E+00  0.00000000000E+00  0.76810051669E+03  0.76810051669E+03  0.00000000000E+00 0. -1.
         21   -1    0    0  501  503 -0.00000000000E+00 -0.00000000000E+00 -0.84096188208E+02  0.84096188208E+02  0.00000000000E+00 0.  1.
          6    2    1    2  501    0  0.13668913072E+03 -0.88752740796E+02  0.50144985433E+03  0.55367807057E+03  0.16895704175E+03 0.  0.
         24    2    3    3    0    0  0.45935058268E+02 -0.10384667399E+03  0.25867597048E+03  0.29401410085E+03  0.81467002640E+02 0.  0.
         -6    2    1    2    0  502 -0.13668913072E+03  0.88752740796E+02  0.18255447415E+03  0.29851863433E+03  0.17095692895E+03 0.  0.
        -24    2    5    5    0    0 -0.14192929633E+03  0.11998216277E+03  0.13922711092E+03  0.24464761674E+03  0.76997554634E+02 0.  0.
          5    1    3    3  501    0  0.90754072455E+02  0.15093933192E+02  0.24277388385E+03  0.25966396971E+03  0.47000000000E+01 0. -1.
        -11    1    4    4    0    0  0.39934675583E+01  0.14035320517E+02  0.24921422993E+02  0.28879323558E+02  0.00000000000E+00 0.  1.
         12    1    4    4    0    0  0.41941590710E+02 -0.11788199451E+03  0.23375454749E+03  0.26513477729E+03  0.00000000000E+00 0. -1.
         -5    1    5    5    0  502  0.52401656105E+01 -0.31229421973E+02  0.43327363228E+02  0.53871017594E+02  0.47000000000E+01 0.  1.
         13    1    6    6    0    0 -0.13139237453E+03  0.10166334176E+03  0.85346981494E+02  0.18677124616E+03  0.00000000000E+00 0. -1.
        -14    1    6    6    0    0 -0.10536921807E+02  0.18318821011E+02  0.53880129429E+02  0.57876370582E+02  0.00000000000E+00 0.  1.
</event>
<event>
12    1  0.9873238E-001  0.1963469E+03  0.7818608E-02  0.1152874E+00
         21   -1    0    0  503  502  0.00000000000E+00  0.00000000000E+00  0.56182861359E+03  0.56182861359E+03  0.00000000000E+00 0. -1.
         21   -1    0    0  501  503 -0.00000000000E+00 -0.00000000000E+00 -0.22424876959E+03  0.22424876959E+03  0.00000000000E+00 0.  1.
          6    2    1    2  501    0  0.89030239306E+02  0.27390206947E+02  0.49623559262E+03  0.53364176298E+03  0.17276330881E+03 0.  0.
         24    2    3    3    0    0  0.66712261703E+02 -0.49831434164E+02  0.32147722221E+03  0.34122593201E+03  0.78446380327E+02 0.  0.
         -6    2    1    2    0  502 -0.89030239306E+02 -0.27390206947E+02 -0.15865574862E+03  0.25243562020E+03  0.17284527424E+03 0.  0.
        -24    2    5    5    0    0  0.20536585414E+02  0.18759123445E+02 -0.10552001707E+03  0.12212773194E+03  0.54836601405E+02 0.  0.
          5    1    3    3  501    0  0.22317977603E+02  0.77221641111E+02  0.17475837041E+03  0.19241583097E+03  0.47000000000E+01 0. -1.
        -11    1    4    4    0    0  0.39349744586E+02 -0.22361381644E+02  0.28301907143E+03  0.28661512274E+03  0.00000000000E+00 0.  1.
         12    1    4    4    0    0  0.27362517117E+02 -0.27470052519E+02  0.38458150777E+02  0.54610809274E+02  0.00000000000E+00 0. -1.
         -5    1    5    5    0  502 -0.10956682472E+03 -0.46149330393E+02 -0.53135731549E+02  0.13030788826E+03  0.47000000000E+01 0.  1.
         13    1    6    6    0    0  0.28946679913E+02 -0.25204847455E+01 -0.89755732294E+02  0.94341690684E+02  0.00000000000E+00 0. -1.
        -14    1    6    6    0    0 -0.84100944988E+01  0.21279608191E+02 -0.15764284773E+02  0.27786041256E+02  0.00000000000E+00 0.  1.
</event>
<event>
12    1  0.9873238E-001  0.1771276E+03  0.7818608E-02  0.1170786E+00
         21   -1    0    0  501  502  0.00000000000E+00  0.00000000000E+00  0.34675173514E+02  0.34675173514E+02  0.00000000000E+00 0.  1.
         21   -1    0    0  502  503 -0.00000000000E+00 -0.00000000000E+00 -0.13437222154E+04  0.13437222154E+04  0.00000000000E+00 0.  1.
         -6    2    1    2    0  503  0.10770080303E+02 -0.38579005647E+02 -0.25989354893E+03  0.31451366474E+03  0.17253942803E+03 0.  0.
        -24    2    3    3    0    0  0.49753491598E+02 -0.68357583327E+02 -0.12651286211E+03  0.17232024836E+03  0.80873942597E+02 0.  0.
          6    2    1    2  501    0 -0.10770080303E+02  0.38579005647E+02 -0.10491534929E+04  0.10638837242E+04  0.17181732298E+03 0.  0.
         24    2    5    5    0    0  0.37286473919E+02  0.56349669403E+02 -0.42781977805E+03  0.44042329706E+03  0.79858322840E+02 0.  0.
          5    1    5    5  501    0 -0.48056554222E+02 -0.17770663756E+02 -0.62133371488E+03  0.62346042709E+03  0.47000000000E+01 0. -1.
        -13    1    6    6    0    0  0.39976563716E+02  0.30969782651E+02 -0.39788398727E+03  0.40108467985E+03  0.00000000000E+00 0.  1.
         14    1    6    6    0    0 -0.26900897973E+01  0.25379886752E+02 -0.29935790777E+02  0.39338617211E+02  0.00000000000E+00 0. -1.
         -5    1    3    3    0  503 -0.38983411295E+02  0.29778577679E+02 -0.13338068682E+03  0.14219341638E+03  0.47000000000E+01 0.  1.
         11    1    4    4    0    0  0.32392197745E+02 -0.36666029544E+02 -0.94789997221E+01  0.49834763299E+02  0.00000000000E+00 0. -1.
        -12    1    4    4    0    0  0.17361293852E+02 -0.31691553783E+02 -0.11703386239E+03  0.12248548506E+03  0.00000000000E+00 0.  1.
</event>
<event>
12    1  0.9873238E-001  0.2059157E+03  0.7818608E-02  0.1148265E+00
         21   -1    0    0  503  502  0.00000000000E+00  0.00000000000E+00  0.13665463299E+04  0.13665463299E+04  0.00000000000E+00 0. -1.
         21   -1    0    0  501  503 -0.00000000000E+00 -0.00000000000E+00 -0.28815299426E+02  0.28815299426E+02  0.00000000000E+00 0. -1.
          6    2    1    2  501    0 -0.54960729261E+02  0.55207648147E+02  0.69545969105E+03  0.72088868651E+03  0.17305418311E+03 0.  0.
         24    2    3    3    0    0 -0.66176225966E+01 -0.26654395760E+02  0.41669583134E+03  0.42632149608E+03  0.85792496343E+02 0.  0.
         -6    2    1    2    0  502  0.54960729261E+02 -0.55207648147E+02  0.64227133938E+03  0.67447294277E+03  0.19061141352E+03 0.  0.
        -24    2    5    5    0    0  0.49516570902E+02 -0.37642512593E+02  0.15105522260E+03  0.18289025772E+03  0.82233305593E+02 0.  0.
          5    1    3    3  501    0 -0.48343106664E+02  0.81862043907E+02  0.27876385971E+03  0.29456719043E+03  0.47000000000E+01 0. -1.
        -11    1    4    4    0    0 -0.19671490246E+02 -0.55195406575E+02  0.28080687066E+03  0.28685536259E+03  0.00000000000E+00 0.  1.
         12    1    4    4    0    0  0.13053867649E+02  0.28541010815E+02  0.13588896068E+03  0.13946613350E+03  0.00000000000E+00 0. -1.
         -5    1    5    5    0  502  0.54441583586E+01 -0.17565135554E+02  0.49121611679E+03  0.49158268505E+03  0.47000000000E+01 0.  1.
         11    1    6    6    0    0  0.25631720659E+02 -0.15918827468E+02  0.14733214901E+03  0.15039001398E+03  0.00000000000E+00 0. -1.
        -12    1    6    6    0    0  0.23884850243E+02 -0.21723685125E+02  0.37230735819E+01  0.32500243744E+02  0.00000000000E+00 0.  1.
</event>
<event>
12    1  0.9873238E-001  0.3002019E+03  0.7818608E-02  0.1085202E+00
         21   -1    0    0  503  502  0.00000000000E+00  0.00000000000E+00  0.11148235647E+04  0.11148235647E+04  0.00000000000E+00 0.  1.
         21   -1    0    0  501  503 -0.00000000000E+00 -0.00000000000E+00 -0.10343309581E+03  0.10343309581E+03  0.00000000000E+00 0.  1.
          6    2    1    2  501    0  0.18331463397E+03 -0.16314090942E+03  0.79156107682E+03  0.84657551634E+03  0.17292181813E+03 0.  0.
         24    2    3    3    0    0  0.12735605929E+02 -0.64463070204E+02  0.28625292258E+03  0.30417995820E+03  0.79164564066E+02 0.  0.
         -6    2    1    2    0  502 -0.18331463397E+03  0.16314090942E+03  0.21982939203E+03  0.37168114412E+03  0.17205435170E+03 0.  0.
        -24    2    5    5    0    0 -0.56781731767E+02  0.20489293463E+02  0.11275363160E+03  0.15294073325E+03  0.83866025531E+02 0.  0.
          5    1    3    3  501    0  0.17057902804E+03 -0.98677839220E+02  0.50530815423E+03  0.54239555814E+03  0.47000000000E+01 0. -1.
        -13    1    4    4    0    0  0.18921802306E+02 -0.55163061372E+02  0.87741160776E+02  0.10535420844E+03  0.00000000000E+00 0.  1.
         14    1    4    4    0    0 -0.61861963769E+01 -0.93000088321E+01  0.19851176181E+03  0.19882574976E+03  0.00000000000E+00 0. -1.
         -5    1    5    5    0  502 -0.12653290220E+03  0.14265161596E+03  0.10707576042E+03  0.21874041086E+03  0.47000000000E+01 0.  1.
         13    1    6    6    0    0  0.38403196110E+01  0.28138315511E+02  0.46692510999E+01  0.28780457959E+02  0.00000000000E+00 0. -1.
        -14    1    6    6    0    0 -0.60622051378E+02 -0.76490220477E+01  0.10808438050E+03  0.12416027529E+03  0.00000000000E+00 0.  1.
</event>
<event>
12    1  0.9873238E-001  0.2119665E+03  0.7818608E-02  0.1140491E+00
         21   -1    0    0  501  502  0.00000000000E+00  0.00000000000E+00  0.33854840809E+03  0.33854840809E+03  0.00000000000E+00 0.  1.
         21   -1    0    0  502  503 -0.00000000000E+00 -0.00000000000E+00 -0.16257451660E+03  0.16257451660E+03  0.00000000000E+00 0.  1.
         -6    2    1    2    0  503  0.89045457318E+02 -0.81493619692E+02  0.19843655894E+03  0.29035645991E+03  0.17423978412E+03 0.  0.
        -24    2    3    3    0    0  0.55421428071E+02 -0.10420852634E+03  0.75490468008E+02  0.16080194011E+03  0.78914520402E+02 0.  0.
          6    2    1    2  501    0 -0.89045457318E+02  0.81493619692E+02 -0.22462667446E+02  0.21076646478E+03  0.17131149327E+03 0.  0.
         24    2    5    5    0    0 -0.11372587779E+03  0.33538690813E+02 -0.57205953339E+02  0.14643929888E+03  0.64136792064E+02 0.  0.
          5    1    5    5  501    0  0.24680420477E+02  0.47954928879E+02  0.34743285893E+02  0.64327165905E+02  0.47000000000E+01 0. -1.
        -13    1    6    6    0    0 -0.32070562488E+02 -0.83718927093E+00  0.11755488957E+02  0.34167431639E+02  0.00000000000E+00 0.  1.
         14    1    6    6    0    0 -0.81655315307E+02  0.34375880084E+02 -0.68961442296E+02  0.11227186724E+03  0.00000000000E+00 0. -1.
         -5    1    3    3    0  503  0.33624029246E+02  0.22714906649E+02  0.12294609093E+03  0.12955451981E+03  0.47000000000E+01 0.  1.
         13    1    4    4    0    0  0.31642581843E+02 -0.52519386548E+02  0.83235008113E+02  0.10338087601E+03  0.00000000000E+00 0. -1.
        -14    1    4    4    0    0  0.23778846229E+02 -0.51689139793E+02 -0.77445401050E+01  0.57421064096E+02  0.00000000000E+00 0.  1.
</event>
<event>
12    1  0.9873238E-001  0.2329026E+03  0.7818608E-02  0.1124632E+00
         21   -1    0    0  501  502  0.00000000000E+00  0.00000000000E+00  0.42728435585E+03  0.42728435585E+03  0.00000000000E+00 0. -1.
         21   -1    0    0  502  503 -0.00000000000E+00 -0.00000000000E+00 -0.12892755205E+03  0.12892755205E+03  0.00000000000E+00 0. -1.
         -6    2    1    2    0  503  0.11902448643E+03 -0.10256906560E+03  0.11418184929E+03  0.25928763664E+03  0.17177119147E+03 0.  0.
        -24    2    3    3    0    0  0.49521242372E+02 -0.14442166071E+02 -0.51373148661E+01  0.95409009939E+02  0.80097175772E+02 0.  0.
          6    2    1    2  501    0 -0.11902448643E+03  0.10256906560E+03  0.18417495450E+03  0.29692427125E+03  0.17191965392E+03 0.  0.
         24    2    5    5    0    0 -0.25327125811E+02  0.82804776247E+02  0.15727578283E+03  0.19734777826E+03  0.81929112319E+02 0.  0.
          5    1    5    5  501    0 -0.93697360622E+02  0.19764289350E+02  0.26899171668E+02  0.99576492996E+02  0.47000000000E+01 0. -1.
        -11    1    6    6    0    0 -0.49217328947E+02  0.69555981035E+02  0.86212474044E+02  0.12121456450E+03  0.00000000000E+00 0.  1.
         12    1    6    6    0    0  0.23890203136E+02  0.13248795212E+02  0.71063308790E+02  0.76133213755E+02  0.00000000000E+00 0. -1.
         -5    1    3    3    0  503  0.69503244061E+02 -0.88126899526E+02  0.11931916416E+03  0.16387862670E+03  0.47000000000E+01 0.  1.
         11    1    4    4    0    0  0.61618399365E+02 -0.12928244244E+02 -0.28458758289E+02  0.69093180293E+02  0.00000000000E+00 0. -1.
        -12    1    4    4    0    0 -0.12097156993E+02 -0.15139218266E+01  0.23321443423E+02  0.26315829646E+02  0.00000000000E+00 0.  1.
</event>
<event>
12    1  0.9873238E-001  0.5507151E+03  0.7818608E-02  0.1001578E+00
         21   -1    0    0  503  502  0.00000000000E+00  0.00000000000E+00  0.23646306061E+03  0.23646306061E+03  0.00000000000E+00 0. -1.
         21   -1    0    0  501  503 -0.00000000000E+00 -0.00000000000E+00 -0.14563068822E+04  0.14563068822E+04  0.00000000000E+00 0. -1.
          6    2    1    2  501    0  0.33319718716E+03 -0.39811288456E+03 -0.31141268384E+03  0.63266499929E+03  0.18377406588E+03 0.  0.
         24    2    3    3    0    0  0.27902712074E+03 -0.40183215825E+03 -0.27296700401E+03  0.56596875209E+03  0.80525930944E+02 0.  0.
         -6    2    1    2    0  502 -0.33319718716E+03  0.39811288456E+03 -0.90843113777E+03  0.10601049435E+04  0.17047323790E+03 0.  0.
        -24    2    5    5    0    0 -0.76823719049E+02  0.11696250035E+03 -0.33649035258E+03  0.37314697869E+03  0.80192269129E+02 0.  0.
          5    1    3    3  501    0  0.54170066423E+02  0.37192736917E+01 -0.38445679830E+02  0.66696247200E+02  0.47000000000E+01 0. -1.
        -11    1    4    4    0    0  0.27891866915E+03 -0.36781132164E+03 -0.25783789790E+03  0.52873544795E+03  0.00000000000E+00 0.  1.
         12    1    4    4    0    0  0.10845158685E+00 -0.34020836612E+02 -0.15129106110E+02  0.37233304141E+02  0.00000000000E+00 0. -1.
         -5    1    5    5    0  502 -0.25637346812E+03  0.28115038421E+03 -0.57194078519E+03  0.68695796484E+03  0.47000000000E+01 0.  1.
         13    1    6    6    0    0 -0.57384295907E+02  0.93195156293E+02 -0.32020132154E+03  0.33838909688E+03  0.00000000000E+00 0. -1.
        -14    1    6    6    0    0 -0.19439423142E+02  0.23767344056E+02 -0.16289031047E+02  0.34757881812E+02  0.00000000000E+00 0.  1.
</event>
<event>
12    1  0.9873238E-001  0.1836182E+03  0.7818608E-02  0.1164897E+00
         21   -1    0    0  503  502  0.00000000000E+00  0.00000000000E+00  0.65944773165E+02  0.65944773165E+02  0.00000000000E+00 0. -1.
         21   -1    0    0  501  503 -0.00000000000E+00 -0.00000000000E+00 -0.71094575507E+03  0.71094575507E+03  0.00000000000E+00 0. -1.
          6    2    1    2  501    0  0.58069258107E+02  0.29367567916E+02 -0.53310875613E+03  0.56384447197E+03  0.17170075689E+03 0.  0.
         24    2    3    3    0    0 -0.67067099426E+01  0.10080448287E+02 -0.11568152127E+03  0.14095500008E+03  0.79620991516E+02 0.  0.
         -6    2    1    2    0  502 -0.58069258107E+02 -0.29367567916E+02 -0.11189222578E+03  0.21304605627E+03  0.16921660416E+03 0.  0.
        -24    2    5    5    0    0 -0.77111177980E+02 -0.66549068593E+02 -0.10234715134E+03  0.16993854937E+03  0.89606131914E+02 0.  0.
          5    1    3    3  501    0  0.64775968050E+02  0.19287119629E+02 -0.41742723487E+03  0.42288947188E+03  0.47000000000E+01 0. -1.
        -11    1    4    4    0    0 -0.30099879868E+02  0.32376219493E+02 -0.44224562571E+02  0.62530267002E+02  0.00000000000E+00 0.  1.
         12    1    4    4    0    0  0.23393169926E+02 -0.22295771206E+02 -0.71456958694E+02  0.78424733080E+02  0.00000000000E+00 0. -1.
         -5    1    5    5    0  502  0.19041919873E+02  0.37181500677E+02 -0.95450744404E+01  0.43107506900E+02  0.47000000000E+01 0.  1.
         13    1    6    6    0    0  0.91568846983E+01 -0.41707916764E+02 -0.16661832822E+02  0.45836835964E+02  0.00000000000E+00 0. -1.
        -14    1    6    6    0    0 -0.86268062678E+02 -0.24841151829E+02 -0.85685318513E+02  0.12410171341E+03  0.00000000000E+00 0.  1.
</event>
<event>
12    1  0.9873238E-001  0.1770897E+03  0.7818608E-02  0.1170888E+00
         21   -1    0    0  503  502  0.00000000000E+00  0.00000000000E+00  0.11692892587E+03  0.11692892587E+03  0.00000000000E+00 0.  1.
         21   -1    0    0  501  503 -0.00000000000E+00 -0.00000000000E+00 -0.27322185178E+03  0.27322185178E+03  0.00000000000E+00 0.  1.
          6    2    1    2  501    0  0.18131277731E+02 -0.31397017058E+02 -0.48324162275E+02  0.18356464804E+03  0.17333851113E+03 0.  0.
         24    2    3    3    0    0  0.48738280692E+02  0.10199003456E+02 -0.79186626067E+02  0.12321898354E+03  0.80205713518E+02 0.  0.
         -6    2    1    2    0  502 -0.18131277731E+02  0.31397017058E+02 -0.10796876364E+03  0.20658612960E+03  0.17235445776E+03 0.  0.
        -24    2    5    5    0    0 -0.21411020120E+02  0.75750068723E+02 -0.11592173544E+03  0.16116268122E+03  0.79618191235E+02 0.  0.
          5    1    3    3  501    0 -0.30607002961E+02 -0.41596020513E+02  0.30862463792E+02  0.60345664501E+02  0.47000000000E+01 0. -1.
        -13    1    4    4    0    0  0.50669831602E+02 -0.11652172764E+01 -0.92581631008E+02  0.10554689937E+03  0.00000000000E+00 0.  1.
         14    1    4    4    0    0 -0.19315509097E+01  0.11364220732E+02  0.13395004940E+02  0.17672084176E+02  0.00000000000E+00 0. -1.
         -5    1    5    5    0  502  0.32797423887E+01 -0.44353051665E+02  0.79529718074E+01  0.45423448380E+02  0.47000000000E+01 0.  1.
         11    1    6    6    0    0 -0.46549118217E+02  0.58705988688E+02 -0.10478400519E+03  0.12881343586E+03  0.00000000000E+00 0. -1.
        -12    1    6    6    0    0  0.25138098097E+02  0.17044080034E+02 -0.11137730256E+02  0.32349245361E+02  0.00000000000E+00 0.  1.
</event>
<event>
12    1  0.9873238E-001  0.2188208E+03  0.7818608E-02  0.1135079E+00
         21   -1    0    0  503  502  0.00000000000E+00  0.00000000000E+00  0.10155210510E+03  0.10155210510E+03  0.00000000000E+00 0. -1.
         21   -1    0    0  501  503 -0.00000000000E+00 -0.00000000000E+00 -0.69269827942E+03  0.69269827942E+03  0.00000000000E+00 0. -1.
          6    2    1    2  501    0  0.13285061168E+03  0.93596600671E+01 -0.68591496985E+02  0.22772947357E+03  0.17151976975E+03 0.  0.
         24    2    3    3    0    0  0.40269538249E+02  0.25822184665E+02 -0.91953680375E+02  0.13072353826E+03  0.79653896252E+02 0.  0.
         -6    2    1    2    0  502 -0.13285061168E+03 -0.93596600671E+01 -0.52255467733E+03  0.56652091095E+03  0.17362506581E+03 0.  0.
        -24    2    5    5    0    0 -0.92303320011E+02 -0.51501998698E+02 -0.18486671328E+03  0.22377419596E+03  0.68751947936E+02 0.  0.
          5    1    3    3  501    0  0.92581073429E+02 -0.16462524598E+02  0.23362183390E+02  0.97005935314E+02  0.47000000000E+01 0. -1.
        -13    1    4    4    0    0  0.60551732438E+02  0.32288754606E+02 -0.54456017556E+02  0.87604416689E+02  0.00000000000E+00 0.  1.
         14    1    4    4    0    0 -0.20282194189E+02 -0.64665699409E+01 -0.37497662819E+02  0.43119121568E+02  0.00000000000E+00 0. -1.
         -5    1    5    5    0  502 -0.40547291667E+02  0.42142338631E+02 -0.33768796405E+03  0.34274671499E+03  0.47000000000E+01 0.  1.
         13    1    6    6    0    0 -0.76797991875E+02 -0.17738322523E+02 -0.16197442746E+03  0.18013410225E+03  0.00000000000E+00 0. -1.
        -14    1    6    6    0    0 -0.15505328136E+02 -0.33763676175E+02 -0.22892285823E+02  0.43640093717E+02  0.00000000000E+00 0.  1.
</event>
<event>
12    1  0.9873238E-001  0.2551990E+03  0.7818608E-02  0.1110136E+00
         21   -1    0    0  501  502  0.00000000000E+00  0.00000000000E+00  0.26622257522E+02  0.26622257522E+02  0.00000000000E+00 0.  1.
         21   -1    0    0  502  503 -0.00000000000E+00 -0.00000000000E+00 -0.27868041122E+04  0.27868041122E+04  0.00000000000E+00 0.  1.
         -6    2    1    2    0  503 -0.50770872036E+02  0.18195611882E+03 -0.18739479922E+04  0.18911807568E+04  0.17087383296E+03 0.  0.
        -24    2    3    3    0    0 -0.16193771129E+02  0.19927522556E+03 -0.16257028506E+04  0.16398975148E+04  0.79882707477E+02 0.  0.
          6    2    1    2  501    0  0.50770872036E+02 -0.18195611882E+03 -0.88623386240E+03  0.92224561285E+03  0.17158321866E+03 0.  0.
         24    2    5    5    0    0  0.78131532343E+02 -0.13304523904E+03 -0.43858281561E+03  0.47107554559E+03  0.75840039092E+02 0.  0.
          5    1    5    5  501    0 -0.27360660307E+02 -0.48910879777E+02 -0.44765104680E+03  0.45117006726E+03  0.47000000000E+01 0. -1.
        -13    1    6    6    0    0 -0.11111188001E+02 -0.20240602917E+01 -0.52743069875E+02  0.53938731341E+02  0.00000000000E+00 0.  1.
         14    1    6    6    0    0  0.89242720344E+02 -0.13102117875E+03 -0.38583974573E+03  0.41713681425E+03  0.00000000000E+00 0. -1.
         -5    1    3    3    0  503 -0.34577100907E+02 -0.17319106744E+02 -0.24824514166E+03  0.25128324202E+03  0.47000000000E+01 0.  1.
         11    1    4    4    0    0 -0.27559463946E+02  0.16487205228E+02 -0.25463496287E+03  0.25665213092E+03  0.00000000000E+00 0. -1.
        -12    1    4    4    0    0  0.11365692817E+02  0.18278802034E+03 -0.13710678877E+04  0.13832453839E+04  0.00000000000E+00 0.  1.
</event>
<event>
12    1  0.9873238E-001  0.2064985E+03  0.7818608E-02  0.1144568E+00
         21   -1    0    0  501  502  0.00000000000E+00  0.00000000000E+00  0.82038108357E+03  0.82038108357E+03  0.00000000000E+00 0. -1.
         21   -1    0    0  502  503 -0.00000000000E+00 -0.00000000000E+00 -0.71527210286E+02  0.71527210286E+02  0.00000000000E+00 0.  1.
         -6    2    1    2    0  503 -0.63270659389E+02 -0.95256773856E+02  0.13918073604E+03  0.24821351529E+03  0.17076780311E+03 0.  0.
        -24    2    3    3    0    0 -0.10597003731E+03 -0.66957814716E+02  0.12636309391E+03  0.19519983862E+03  0.80139551636E+02 0.  0.
          6    2    1    2  501    0  0.63270659389E+02  0.95256773856E+02  0.60967313724E+03  0.64369477857E+03  0.17194360813E+03 0.  0.
         24    2    5    5    0    0  0.67897493155E+01  0.27181570256E+02  0.12501892730E+03  0.15101220352E+03  0.79937569201E+02 0.  0.
          5    1    5    5  501    0  0.56480910074E+02  0.68075203600E+02  0.48465420994E+03  0.49268257505E+03  0.47000000000E+01 0. -1.
        -11    1    6    6    0    0  0.40763475046E+02  0.28756163226E+02  0.84340828163E+02  0.97989556161E+02  0.00000000000E+00 0.  1.
         12    1    6    6    0    0 -0.33973725731E+02 -0.15745929701E+01  0.40678099141E+02  0.53022647357E+02  0.00000000000E+00 0. -1.
         -5    1    3    3    0  503  0.42699377925E+02 -0.28298959141E+02  0.12817642133E+02  0.53013676664E+02  0.47000000000E+01 0.  1.
         11    1    4    4    0    0 -0.70674624734E+02 -0.37775826054E+02  0.12609158042E+03  0.14940214948E+03  0.00000000000E+00 0. -1.
        -12    1    4    4    0    0 -0.35295412580E+02 -0.29181988662E+02  0.27151348651E+00  0.45797689145E+02  0.00000000000E+00 0.  1.
</event>
<event>
12    1  0.9873238E-001  0.2325760E+03  0.7818608E-02  0.1125862E+00
         21   -1    0    0  503  502  0.00000000000E+00  0.00000000000E+00  0.14565493963E+03  0.14565493963E+03  0.00000000000E+00 0. -1.
         21   -1    0    0  501  503 -0.00000000000E+00 -0.00000000000E+00 -0.36871189690E+03  0.36871189690E+03  0.00000000000E+00 0. -1.
          6    2    1    2  501    0  0.13406386369E+03  0.66781168572E+02 -0.75823549603E+02  0.23910466638E+03  0.17026152469E+03 0.  0.
         24    2    3    3    0    0  0.12094859857E+03  0.79518654404E+01 -0.97419312892E+02  0.17490681534E+03  0.80062949410E+02 0.  0.
         -6    2    1    2    0  502 -0.13406386369E+03 -0.66781168572E+02 -0.14723340767E+03  0.27526217015E+03  0.17792903629E+03 0.  0.
        -24    2    5    5    0    0 -0.10502518821E+03 -0.16638180201E+02 -0.16648046090E+03  0.21402408547E+03  0.82361678596E+02 0.  0.
          5    1    3    3  501    0  0.13115265113E+02  0.58829303132E+02  0.21595763289E+02  0.64197851039E+02  0.47000000000E+01 0. -1.
        -11    1    4    4    0    0  0.67063684545E+02 -0.14875056545E+01 -0.99686183022E+02  0.12015442374E+03  0.00000000000E+00 0.  1.
         12    1    4    4    0    0  0.53884914028E+02  0.94393710949E+01  0.22668701300E+01  0.54752391607E+02  0.00000000000E+00 0. -1.
         -5    1    5    5    0  502 -0.29038675474E+02 -0.50142988371E+02  0.19247053233E+02  0.61238084671E+02  0.47000000000E+01 0.  1.
         13    1    6    6    0    0 -0.59661050054E+02 -0.49773971662E+02 -0.86313016933E+02  0.11613279485E+03  0.00000000000E+00 0. -1.
        -14    1    6    6    0    0 -0.45364138158E+02  0.33135791461E+02 -0.80167443970E+02  0.97891290620E+02  0.00000000000E+00 0.  1.
</event>
<event>
12    1  0.9873238E-001  0.2060544E+03  0.7818608E-02  0.1147170E+00
         21   -1    0    0  501  502  0.00000000000E+00  0.00000000000E+00  0.12779080062E+04  0.12779080062E+04  0.00000000000E+00 0. -1.
         21   -1    0    0  502  503 -0.00000000000E+00 -0.00000000000E+00 -0.35718940945E+02  0.35718940945E+02  0.00000000000E+00 0. -1.
         -6    2    1    2    0  503  0.97106036802E+02 -0.20455923325E+02  0.86605203216E+03  0.89022723641E+03  0.18058345123E+03 0.  0.
        -24    2    3    3    0    0  0.10690284619E+03 -0.72669955335E+02  0.67996669164E+03  0.69665005136E+03  0.79104054256E+02 0.  0.
          6    2    1    2  501    0 -0.97106036802E+02  0.20455923325E+02  0.37613703310E+03  0.42339971074E+03  0.16715328355E+03 0.  0.
         24    2    5    5    0    0 -0.15474432300E+02  0.11973601322E+02  0.29576540317E+03  0.30843294364E+03  0.85269465959E+02 0.  0.
          5    1    5    5  501    0 -0.81631604502E+02  0.84823220033E+01  0.80371629930E+02  0.11496676710E+03  0.47000000000E+01 0. -1.
        -11    1    6    6    0    0  0.35297824078E+02  0.26110960661E+01  0.10501784229E+03  0.11082193559E+03  0.00000000000E+00 0.  1.
         12    1    6    6    0    0 -0.50772256377E+02  0.93625052555E+01  0.19074756088E+03  0.19761100805E+03  0.00000000000E+00 0. -1.
         -5    1    3    3    0  503 -0.97968093860E+01  0.52214032010E+02  0.18608534052E+03  0.19357718504E+03  0.47000000000E+01 0.  1.
         11    1    4    4    0    0  0.28162546379E+02  0.40889474331E+00  0.31348464116E+03  0.31474738515E+03  0.00000000000E+00 0. -1.
        -12    1    4    4    0    0  0.78740299809E+02 -0.73078850078E+02  0.36648205047E+03  0.38190266622E+03  0.00000000000E+00 0.  1.
</event>
<event>
12    1  0.9873238E-001  0.2419616E+03  0.7818608E-02  0.1118708E+00
         21   -1    0    0  501  502  0.00000000000E+00  0.00000000000E+00  0.13802298756E+03  0.13802298756E+03  0.00000000000E+00 0. -1.
         21   -1    0    0  502  503 -0.00000000000E+00 -0.00000000000E+00 -0.45509932167E+03  0.45509932167E+03  0.00000000000E+00 0. -1.
         -6    2    1    2    0  503 -0.16877278618E+02  0.16762493403E+03 -0.78826462418E+02  0.25447798410E+03  0.17367346422E+03 0.  0.
        -24    2    3    3    0    0 -0.19354372856E+02  0.46617071800E+02  0.20659388351E+02  0.97734361524E+02  0.81101491747E+02 0.  0.
          6    2    1    2  501    0  0.16877278618E+02 -0.16762493403E+03 -0.23824987169E+03  0.33864432513E+03  0.17185463783E+03 0.  0.
         24    2    5    5    0    0  0.33662470053E+02 -0.15863250598E+03 -0.25519677437E+03  0.31272340840E+03  0.79831714708E+02 0.  0.
          5    1    5    5  501    0 -0.16785191435E+02 -0.89924280464E+01  0.16946902678E+02  0.25920916729E+02  0.47000000000E+01 0. -1.
        -11    1    6    6    0    0  0.16250272223E+02 -0.13534031891E+02 -0.88708029069E+02  0.91194055660E+02  0.00000000000E+00 0.  1.
         12    1    6    6    0    0  0.17412197830E+02 -0.14509847409E+03 -0.16648874530E+03  0.22152935274E+03  0.00000000000E+00 0. -1.
         -5    1    3    3    0  503  0.24770942382E+01  0.12100786223E+03 -0.99485850769E+02  0.15674362258E+03  0.47000000000E+01 0.  1.
         11    1    4    4    0    0  0.15294188380E+01 -0.22302111111E+02  0.11504035453E+02  0.25140925076E+02  0.00000000000E+00 0. -1.
        -12    1    4    4    0    0 -0.20883791694E+02  0.68919182911E+02  0.91553528985E+01  0.72593436448E+02  0.00000000000E+00 0.  1.
</event>
<event>
12    1  0.9873238E-001  0.2724014E+03  0.7818608E-02  0.1099916E+00
         21   -1    0    0  503  502  0.00000000000E+00  0.00000000000E+00  0.50278556589E+03  0.50278556589E+03  0.00000000000E+00 0.  1.
         21   -1    0    0  501  503 -0.00000000000E+00 -0.00000000000E+00 -0.17972655530E+03  0.17972655530E+03  0.00000000000E+00 0.  1.
          6    2    1    2  501    0 -0.19006830020E+03  0.92551818839E+02  0.30587765992E+03  0.40958965744E+03  0.17178692249E+03 0.  0.
         24    2    3    3    0    0 -0.36729228607E+02  0.35333154624E+02  0.52849761816E+02  0.10820609182E+03  0.79485803342E+02 0.  0.
         -6    2    1    2    0  502  0.19006830020E+03 -0.92551818839E+02  0.17181350672E+02  0.27292246375E+03  0.17175469279E+03 0.  0.
        -24    2    5    5    0    0  0.89874806149E+02 -0.11711466878E+03  0.12419387335E+02  0.16954530891E+03  0.82450252681E+02 0.  0.
          5    1    3    3  501    0 -0.15333907159E+03  0.57218664215E+02  0.25302789810E+03  0.30138356562E+03  0.47000000000E+01 0. -1.
        -11    1    4    4    0    0  0.31098941115E+01  0.45208446211E+02  0.49370097015E+02  0.67014039793E+02  0.00000000000E+00 0.  1.
         12    1    4    4    0    0 -0.39839122718E+02 -0.98752915868E+01  0.34796648009E+01  0.41192052025E+02  0.00000000000E+00 0. -1.
         -5    1    5    5    0  502  0.10019349405E+03  0.24562849946E+02  0.47619633362E+01  0.10337715484E+03  0.47000000000E+01 0.  1.
         13    1    6    6    0    0  0.49154414929E+02 -0.39323764558E+02 -0.32581812364E+02  0.70880811670E+02  0.00000000000E+00 0. -1.
        -14    1    6    6    0    0  0.40720391220E+02 -0.77790904227E+02  0.45001199700E+02  0.98664497241E+02  0.00000000000E+00 0.  1.
</event>
<event>
12    1  0.9873238E-001  0.1940391E+03  0.7818608E-02  0.1154947E+00
         21   -1    0    0  503  502  0.00000000000E+00  0.00000000000E+00  0.26116664168E+03  0.26116664168E+03  0.00000000000E+00 0. -1.
         21   -1    0    0  501  503 -0.00000000000E+00 -0.00000000000E+00 -0.17032114228E+03  0.17032114228E+03  0.00000000000E+00 0. -1.
          6    2    1    2  501    0  0.75458951454E+02  0.49655582672E+02  0.13043434602E+03  0.23380394256E+03  0.17173070398E+03 0.  0.
         24    2    3    3    0    0  0.33837256177E+02 -0.39914885564E+02  0.60557325242E+02  0.11272495045E+03  0.79382408747E+02 0.  0.
         -6    2    1    2    0  502 -0.75458951454E+02 -0.49655582672E+02 -0.39588846620E+02  0.19768384140E+03  0.17132394499E+03 0.  0.
        -24    2    5    5    0    0  0.26696547260E+02 -0.20698049065E+02 -0.68744079518E+01  0.86478584473E+02  0.79310612260E+02 0.  0.
          5    1    3    3  501    0  0.41621695277E+02  0.89570468236E+02  0.69877020782E+02  0.12107899211E+03  0.47000000000E+01 0. -1.
        -13    1    4    4    0    0  0.12011954834E+02 -0.29126206544E+02 -0.13864808936E+02  0.34421735770E+02  0.00000000000E+00 0.  1.
         14    1    4    4    0    0  0.21825301343E+02 -0.10788679020E+02  0.74422134179E+02  0.78303214681E+02  0.00000000000E+00 0. -1.
         -5    1    5    5    0  502 -0.10215549871E+03 -0.28957533607E+02 -0.32714438668E+02  0.11120525692E+03  0.47000000000E+01 0.  1.
         13    1    6    6    0    0  0.19106229337E+02 -0.42172821325E+02 -0.29075749230E+02  0.54671693327E+02  0.00000000000E+00 0. -1.
        -14    1    6    6    0    0  0.75903179227E+01  0.21474772260E+02  0.22201341278E+02  0.31806891145E+02  0.00000000000E+00 0.  1.
</event>
<event>
12    1  0.9873238E-001  0.3449747E+03  0.7818608E-02  0.1064718E+00
         21   -1    0    0  501  502  0.00000000000E+00  0.00000000000E+00  0.50666493890E+03  0.50666493890E+03  0.00000000000E+00 0.  1.
         21   -1    0    0  502  503 -0.00000000000E+00 -0.00000000000E+00 -0.34110348544E+03  0.34110348544E+03  0.00000000000E+00 0.  1.
         -6    2    1    2    0  503  0.21699590894E+03 -0.20572671924E+03  0.31949639929E+03  0.47019729762E+03  0.17203732742E+03 0.  0.
        -24    2    3    3    0    0  0.21467075160E+03 -0.15159443072E+03  0.20359537308E+03  0.34217054693E+03  0.81025947874E+02 0.  0.
          6    2    1    2  501    0 -0.21699590894E+03  0.20572671924E+03 -0.15393494582E+03  0.37757112672E+03  0.17161958129E+03 0.  0.
         24    2    5    5    0    0 -0.49362564639E+02  0.61005112914E+02 -0.93713540274E+02  0.14801941328E+03  0.83481929101E+02 0.  0.
          5    1    5    5  501    0 -0.16763334430E+03  0.14472160632E+03 -0.60221405546E+02  0.22955171344E+03  0.47000000000E+01 0. -1.
        -13    1    6    6    0    0  0.19458710906E+02 -0.18220455014E+01 -0.70896095972E+01  0.20789993847E+02  0.00000000000E+00 0.  1.
         14    1    6    6    0    0 -0.68821275545E+02  0.62827158415E+02 -0.86623930677E+02  0.12722941943E+03  0.00000000000E+00 0. -1.
         -5    1    3    3    0  503  0.23251573429E+01 -0.54132288513E+02  0.11590102621E+03  0.12802675069E+03  0.47000000000E+01 0.  1.
         11    1    4    4    0    0  0.84829665429E+02 -0.19030768174E+02  0.87162723423E+02  0.12310801204E+03  0.00000000000E+00 0. -1.
        -12    1    4    4    0    0  0.12984108617E+03 -0.13256366255E+03  0.11643264966E+03  0.21906253489E+03  0.00000000000E+00 0.  1.
</event>
<event>
12    1  0.9873238E-001  0.2252665E+03  0.7818608E-02  0.1130114E+00
         21   -1    0    0  501  502  0.00000000000E+00  0.00000000000E+00  0.46996383378E+03  0.46996383378E+03  0.00000000000E+00 0. -1.
         21   -1    0    0  502  503 -0.00000000000E+00 -0.00000000000E+00 -0.11222003141E+03  0.11222003141E+03  0.00000000000E+00 0. -1.
         -6    2    1    2    0  503  0.12751763337E+03 -0.70714026342E+02  0.23696910084E+03  0.32658350526E+03  0.17100061641E+03 0.  0.
        -24    2    3    3    0    0  0.11034105567E+03 -0.93998907859E+02  0.11599441844E+03  0.20210786785E+03  0.79887057094E+02 0.  0.
          6    2    1    2  501    0 -0.12751763337E+03  0.70714026342E+02  0.12077470153E+03  0.25560035993E+03  0.17170845968E+03 0.  0.
         24    2    5    5    0    0 -0.56435574168E+02  0.18073499926E+02  0.13284593285E+03  0.16620523262E+03  0.80402189294E+02 0.  0.
          5    1    5    5  501    0 -0.71082059206E+02  0.52640526416E+02 -0.12071231318E+02  0.89395127316E+02  0.47000000000E+01 0. -1.
        -11    1    6    6    0    0 -0.66514455954E+02 -0.80034572929E+01  0.67368729314E+02  0.95009335693E+02  0.00000000000E+00 0.  1.
         12    1    6    6    0    0  0.10078881786E+02  0.26076957219E+02  0.65477203534E+02  0.71195896922E+02  0.00000000000E+00 0. -1.
         -5    1    3    3    0  503  0.17176577707E+02  0.23284881517E+02  0.12097468239E+03  0.12447563741E+03  0.47000000000E+01 0.  1.
         13    1    4    4    0    0  0.58864515145E+01  0.97293611849E+01  0.28918965056E+02  0.31074383669E+02  0.00000000000E+00 0. -1.
        -14    1    4    4    0    0  0.10445460415E+03 -0.10372826904E+03  0.87075453389E+02  0.17103348418E+03  0.00000000000E+00 0.  1.
</event>
<event>
12    1  0.9873238E-001  0.3662344E+03  0.7818608E-02  0.1056238E+00
         21   -1    0    0  503  502  0.00000000000E+00  0.00000000000E+00  0.57286184850E+03  0.57286184850E+03  0.00000000000E+00 0.  1.
         21   -1    0    0  501  503 -0.00000000000E+00 -0.00000000000E+00 -0.25792807835E+03  0.25792807835E+03  0.00000000000E+00 0.  1.
          6    2    1    2  501    0  0.45440031449E+02  0.31991016567E+03  0.28549016743E+03  0.46436225870E+03  0.17239594267E+03 0.  0.
         24    2    3    3    0    0 -0.34707128742E+02  0.11615399087E+03  0.89282620352E+02  0.17032206147E+03  0.79635946320E+02 0.  0.
         -6    2    1    2    0  502 -0.45440031449E+02 -0.31991016567E+03  0.29443602726E+02  0.36642766816E+03  0.17027918163E+03 0.  0.
        -24    2    5    5    0    0 -0.19666184097E+02 -0.62805949921E+02  0.26654701692E+02  0.10797702117E+03  0.81346283478E+02 0.  0.
          5    1    3    3  501    0  0.80147160191E+02  0.20375617480E+03  0.19620754708E+03  0.29404019722E+03  0.47000000000E+01 0. -1.
        -13    1    4    4    0    0 -0.35915896747E+02  0.33878499850E+02  0.70250677827E+02  0.85865372103E+02  0.00000000000E+00 0.  1.
         14    1    4    4    0    0  0.12087680051E+01  0.82275491020E+02  0.19031942525E+02  0.84456689368E+02  0.00000000000E+00 0. -1.
         -5    1    5    5    0  502 -0.25773847352E+02 -0.25710421575E+03  0.27889010343E+01  0.25845064699E+03  0.47000000000E+01 0.  1.
         13    1    6    6    0    0 -0.49136213550E+02 -0.38974496400E+02  0.19711531062E+01  0.62747623829E+02  0.00000000000E+00 0. -1.
        -14    1    6    6    0    0  0.29470029453E+02 -0.23831453522E+02  0.24683548585E+02  0.45229397339E+02  0.00000000000E+00 0.  1.
</event>
<event>
12    1  0.9873238E-001  0.1962999E+03  0.7818608E-02  0.1152984E+00
         21   -1    0    0  501  502  0.00000000000E+00  0.00000000000E+00  0.14812167738E+03  0.14812167738E+03  0.00000000000E+00 0. -1.
         21   -1    0    0  502  503 -0.00000000000E+00 -0.00000000000E+00 -0.60006314921E+03  0.60006314921E+03  0.00000000000E+00 0. -1.
         -6    2    1    2    0  503  0.83434186322E+02  0.43807288781E+02  0.55702872280E+02  0.20405018551E+03  0.17220141181E+03 0.  0.
        -24    2    3    3    0    0 -0.79480746928E+01 -0.23029657461E+02  0.26649412701E+02  0.87071176602E+02  0.79231695573E+02 0.  0.
          6    2    1    2  501    0 -0.83434186322E+02 -0.43807288781E+02 -0.50764434411E+03  0.54413464108E+03  0.17175385153E+03 0.  0.
         24    2    5    5    0    0 -0.61215188326E+02  0.31862374850E+02 -0.19424315452E+03  0.22092885910E+03  0.79477339491E+02 0.  0.
          5    1    5    5  501    0 -0.22218997997E+02 -0.75669663631E+02 -0.31340118960E+03  0.32320578198E+03  0.47000000000E+01 0. -1.
        -11    1    6    6    0    0 -0.57454526454E+02  0.47325355991E+02 -0.19057755603E+03  0.20459842812E+03  0.00000000000E+00 0.  1.
         12    1    6    6    0    0 -0.37606618712E+01 -0.15462981141E+02 -0.36655984906E+01  0.16330430974E+02  0.00000000000E+00 0. -1.
         -5    1    3    3    0  503  0.91382261015E+02  0.66836946242E+02  0.29053459580E+02  0.11697900891E+03  0.47000000000E+01 0.  1.
         11    1    4    4    0    0 -0.59403542811E+01 -0.86677552040E+01  0.54589645116E+02  0.55591790250E+02  0.00000000000E+00 0. -1.
        -12    1    4    4    0    0 -0.20077204118E+01 -0.14361902257E+02 -0.27940232415E+02  0.31479386352E+02  0.00000000000E+00 0.  1.
</event>
<event>
12    1  0.9873238E-001  0.2143216E+03  0.7818608E-02  0.1139278E+00
         21   -1    0    0  501  502  0.00000000000E+00  0.00000000000E+00  0.81310530261E+03  0.81310530261E+03  0.00000000000E+00 0.  1.
         21   -1    0    0  502  503 -0.00000000000E+00 -0.00000000000E+00 -0.68053548559E+02  0.68053548559E+02  0.00000000000E+00 0.  1.
         -6    2    1    2    0  503 -0.83182349748E+02 -0.97344155781E+02  0.56125676714E+03  0.59882154206E+03  0.16487235243E+03 0.  0.
        -24    2    3    3    0    0 -0.10058683262E+02 -0.88241818814E+02  0.45056465769E+03  0.46576232128E+03  0.77706070994E+02 0.  0.
          6    2    1    2  501    0  0.83182349748E+02  0.97344155781E+02  0.18379498691E+03  0.28233730911E+03  0.17186788801E+03 0.  0.
         24    2    5    5    0    0  0.11600292299E+03  0.42230732877E+02  0.10372087786E+03  0.17963077401E+03  0.79177531697E+02 0.  0.
          5    1    5    5  501    0 -0.32820573246E+02  0.55113422904E+02  0.80074109045E+02  0.10270653510E+03  0.47000000000E+01 0. -1.
        -11    1    6    6    0    0  0.88913808334E+02  0.53177157946E+02  0.10850702064E+03  0.15002416128E+03  0.00000000000E+00 0.  1.
         12    1    6    6    0    0  0.27089114660E+02 -0.10946425069E+02 -0.47861427771E+01  0.29606612733E+02  0.00000000000E+00 0. -1.
         -5    1    3    3    0  503 -0.73123666486E+02 -0.91023369671E+01  0.11069210945E+03  0.13305922078E+03  0.47000000000E+01 0.  1.
         11    1    4    4    0    0 -0.37124500632E+02 -0.73846623115E+02  0.37900309443E+03  0.38791094065E+03  0.00000000000E+00 0. -1.
        -12    1    4    4    0    0  0.27065817370E+02 -0.14395195699E+02  0.71561563262E+02  0.77851380628E+02  0.00000000000E+00 0.  1.
</event>
<event>
12    1  0.9873238E-001  0.4809478E+03  0.7818608E-02  0.1018929E+00
         21   -1    0    0  503  502  0.00000000000E+00  0.00000000000E+00  0.32874243343E+03  0.32874243343E+03  0.00000000000E+00 0.  1.
         21   -1    0    0  501  503 -0.00000000000E+00 -0.00000000000E+00 -0.76202143319E+03  0.76202143319E+03  0.00000000000E+00 0.  1.
          6    2    1    2  501    0  0.44669031714E+03  0.39970053438E+02 -0.64023932178E+02  0.48441404207E+03  0.17154607444E+03 0.  0.
         24    2    3    3    0    0  0.19985183099E+03 -0.23441099239E+02  0.17132124938E+02  0.21690963437E+03  0.79158324221E+02 0.  0.
         -6    2    1    2    0  502 -0.44669031714E+03 -0.39970053438E+02 -0.36925506758E+03  0.60634982456E+03  0.17372668248E+03 0.  0.
        -24    2    5    5    0    0 -0.24648720551E+03 -0.86608093445E+02 -0.24263903206E+03  0.36487497466E+03  0.77479951741E+02 0.  0.
          5    1    3    3  501    0  0.24683848615E+03  0.63411152677E+02 -0.81156057116E+02  0.26750440770E+03  0.47000000000E+01 0. -1.
        -13    1    4    4    0    0  0.19231970975E+03 -0.35869996293E+02  0.16057654997E+01  0.19564280175E+03  0.00000000000E+00 0.  1.
         14    1    4    4    0    0  0.75321212396E+01  0.12428897055E+02  0.15526359438E+02  0.21266832622E+02  0.00000000000E+00 0. -1.
         -5    1    5    5    0  502 -0.20020311164E+03  0.46638040007E+02 -0.12661603552E+03  0.24147484990E+03  0.47000000000E+01 0.  1.
         13    1    6    6    0    0 -0.10400885573E+03 -0.66203839390E+02 -0.76660455436E+02  0.14518132059E+03  0.00000000000E+00 0. -1.
        -14    1    6    6    0    0 -0.14247834977E+03 -0.20404254055E+02 -0.16597857663E+03  0.21969365407E+03  0.00000000000E+00 0.  1.
</event>
<event>
12    1  0.9873238E-001  0.1952512E+03  0.7818608E-02  0.1156190E+00
         21   -1    0    0  501  502  0.00000000000E+00  0.00000000000E+00  0.48509021905E+03  0.48509021905E+03  0.00000000000E+00 0. -1.
         21   -1    0    0  502  503 -0.00000000000E+00 -0.00000000000E+00 -0.76092351066E+02  0.76092351066E+02  0.00000000000E+00 0. -1.
         -6    2    1    2    0  503 -0.58913199399E+02  0.22823859898E+02  0.25225541246E+03  0.31899187869E+03  0.18474666954E+03 0.  0.
        -24    2    3    3    0    0  0.23058068009E+02  0.56676007778E+02  0.95596415319E+02  0.13891026390E+03  0.80084595510E+02 0.  0.
          6    2    1    2  501    0  0.58913199399E+02 -0.22823859898E+02  0.15674245552E+03  0.24219069143E+03  0.17348325570E+03 0.  0.
         24    2    5    5    0    0  0.32700561751E+02 -0.80765783195E+02  0.12030690328E+03  0.16874677872E+03  0.80058015688E+02 0.  0.
          5    1    5    5  501    0  0.26212637649E+02  0.57941923298E+02  0.36435552242E+02  0.73443912716E+02  0.47000000000E+01 0. -1.
        -13    1    6    6    0    0 -0.14748245667E+02 -0.56159461620E+02  0.90564013829E+02  0.10757897787E+03  0.00000000000E+00 0.  1.
         14    1    6    6    0    0  0.47448807418E+02 -0.24606321575E+02  0.29742889453E+02  0.61167800842E+02  0.00000000000E+00 0. -1.
         -5    1    3    3    0  503 -0.81971267409E+02 -0.33852147880E+02  0.15665899715E+03  0.18008161478E+03  0.47000000000E+01 0.  1.
         13    1    4    4    0    0 -0.11212125034E+02  0.38004568280E+02  0.91448584719E+02  0.99663948372E+02  0.00000000000E+00 0. -1.
        -14    1    4    4    0    0  0.34270193043E+02  0.18671439498E+02  0.41478306000E+01  0.39246315532E+02  0.00000000000E+00 0.  1.
</event>
<event>
12    1  0.9873238E-001  0.1827738E+03  0.7818608E-02  0.1165382E+00
         21   -1    0    0  501  502  0.00000000000E+00  0.00000000000E+00  0.16335914986E+04  0.16335914986E+04  0.00000000000E+00 0.  1.
         21   -1    0    0  502  503 -0.00000000000E+00 -0.00000000000E+00 -0.23771563911E+02  0.23771563911E+02  0.00000000000E+00 0.  1.
         -6    2    1    2    0  503 -0.18564506520E+02 -0.57427218921E+02  0.49187015639E+03  0.52473088240E+03  0.17252165609E+03 0.  0.
        -24    2    3    3    0    0 -0.43345382675E+02  0.14923650908E+02  0.36610633759E+03  0.37746456477E+03  0.79649919515E+02 0.  0.
          6    2    1    2  501    0  0.18564506520E+02  0.57427218921E+02  0.11179497783E+04  0.11326321802E+04  0.17146842932E+03 0.  0.
         24    2    5    5    0    0 -0.22225779631E+02 -0.25937126041E+02  0.38662117303E+03  0.39542320001E+03  0.75609892781E+02 0.  0.
          5    1    5    5  501    0  0.40790286151E+02  0.83364344962E+02  0.73132860532E+03  0.73720898015E+03  0.47000000000E+01 0. -1.
        -13    1    6    6    0    0  0.68315148548E+00 -0.48187261880E+02  0.17960265691E+03  0.18595589066E+03  0.00000000000E+00 0.  1.
         14    1    6    6    0    0 -0.22908931116E+02  0.22250135839E+02  0.20701851612E+03  0.20946730935E+03  0.00000000000E+00 0. -1.
         -5    1    3    3    0  503  0.24780876155E+02 -0.72350869829E+02  0.12576381880E+03  0.14726631763E+03  0.47000000000E+01 0.  1.
         13    1    4    4    0    0  0.20586329731E+02 -0.84798028661E+01  0.63367554052E+02  0.67165102062E+02  0.00000000000E+00 0. -1.
        -14    1    4    4    0    0 -0.63931712406E+02  0.23403453774E+02  0.30273878353E+03  0.31029946271E+03  0.00000000000E+00 0.  1.
</event>
<event>
12    1  0.9873238E-001  0.1861818E+03  0.7818608E-02  0.1162116E+00
         21   -1    0    0  501  502  0.00000000000E+00  0.00000000000E+00  0.39758733542E+02  0.39758733542E+02  0.00000000000E+00 0. -1.
         21   -1    0    0  502  503 -0.00000000000E+00 -0.00000000000E+00 -0.91971810054E+03  0.91971810054E+03  0.00000000000E+00 0. -1.
         -6    2    1    2    0  503 -0.19745502621E+02 -0.67395768311E+02 -0.32599134256E+03  0.37505896163E+03  0.17165894913E+03 0.  0.
        -24    2    3    3    0    0  0.77569314987E+01  0.21971967506E+02 -0.10196644772E+03  0.13225817993E+03  0.80945242944E+02 0.  0.
          6    2    1    2  501    0  0.19745502621E+02  0.67395768311E+02 -0.55396802443E+03  0.58441787245E+03  0.17242854485E+03 0.  0.
         24    2    5    5    0    0  0.58839840559E+02  0.49638409304E+02 -0.20505663795E+03  0.23284293495E+03  0.79003221916E+02 0.  0.
          5    1    5    5  501    0 -0.39094337938E+02  0.17757359008E+02 -0.34891138649E+03  0.35157493750E+03  0.47000000000E+01 0. -1.
        -13    1    6    6    0    0  0.11744926832E+02  0.16593261715E+02 -0.15575596468E+03  0.15707705171E+03  0.00000000000E+00 0.  1.
         14    1    6    6    0    0  0.47094913727E+02  0.33045147588E+02 -0.49300673270E+02  0.75765883239E+02  0.00000000000E+00 0. -1.
         -5    1    3    3    0  503 -0.27502434120E+02 -0.89367735817E+02 -0.22402489484E+03  0.24280078170E+03  0.47000000000E+01 0.  1.
         11    1    4    4    0    0 -0.13335997359E+02  0.25557604567E+02 -0.10654685047E+03  0.11037785703E+03  0.00000000000E+00 0. -1.
        -12    1    4    4    0    0  0.21092928857E+02 -0.35856370612E+01  0.45804027505E+01  0.21880322901E+02  0.00000000000E+00 0.  1.
</event>
<event>
12    1  0.9873238E-001  0.2431538E+03  0.7818608E-02  0.1117717E+00
         21   -1    0    0  503  502  0.00000000000E+00  0.00000000000E+00  0.11946571623E+03  0.11946571623E+03  0.00000000000E+00 0.  1.
         21   -1    0    0  501  503 -0.00000000000E+00 -0.00000000000E+00 -0.12098386299E+04  0.12098386299E+04  0.00000000000E+00 0.  1.
          6    2    1    2  501    0  0.11696782617E+03  0.12618747245E+03 -0.34241114403E+02  0.24555286914E+03  0.17181096317E+03 0.  0.
         24    2    3    3    0    0  0.30270868529E+02  0.20262589831E+02 -0.58483216873E+02  0.10646220535E+03  0.81160436692E+02 0.  0.
         -6    2    1    2    0  502 -0.11696782617E+03 -0.12618747245E+03 -0.10561317993E+04  0.10837514770E+04  0.17175021368E+03 0.  0.
        -24    2    5    5    0    0 -0.12650984421E+03 -0.40125431805E+02 -0.68082827537E+03  0.69855990129E+03  0.82728496778E+02 0.  0.
          5    1    3    3  501    0  0.86696957641E+02  0.10592488262E+03  0.24242102470E+02  0.13909066379E+03  0.47000000000E+01 0. -1.
        -11    1    4    4    0    0 -0.24668357648E+02  0.13784588906E+02 -0.35148005285E+01  0.28476245945E+02  0.00000000000E+00 0.  1.
         12    1    4    4    0    0  0.54939226177E+02  0.64780009258E+01 -0.54968416344E+02  0.77985959405E+02  0.00000000000E+00 0. -1.
         -5    1    5    5    0  502  0.95420180398E+01 -0.86062040642E+02 -0.37530352388E+03  0.38519157569E+03  0.47000000000E+01 0.  1.
         11    1    6    6    0    0 -0.93858515482E+02  0.37561072359E+01 -0.52678183272E+03  0.53509123386E+03  0.00000000000E+00 0. -1.
        -12    1    6    6    0    0 -0.32651328728E+02 -0.43881539040E+02 -0.15404644265E+03  0.16346866742E+03  0.00000000000E+00 0.  1.
</event>
<event>
12    1  0.9873238E-001  0.1852758E+03  0.7818608E-02  0.1163687E+00
         21   -1    0    0  501  502  0.00000000000E+00  0.00000000000E+00  0.28731071100E+03  0.28731071100E+03  0.00000000000E+00 0. -1.
         21   -1    0    0  502  503 -0.00000000000E+00 -0.00000000000E+00 -0.11707935568E+03  0.11707935568E+03  0.00000000000E+00 0. -1.
         -6    2    1    2    0  503  0.27334200619E+01  0.52590524088E+02  0.82350482073E+02  0.20275289314E+03  0.17763417174E+03 0.  0.
        -24    2    3    3    0    0 -0.36919609973E+01 -0.38403791891E+02  0.64442630511E+02  0.10967210989E+03  0.79916439190E+02 0.  0.
          6    2    1    2  501    0 -0.27334200619E+01 -0.52590524088E+02  0.87880873245E+02  0.20163717354E+03  0.17366999470E+03 0.  0.
         24    2    5    5    0    0  0.24074094626E+02 -0.74906695207E+02  0.58695408122E+01  0.11239254913E+03  0.80044103922E+02 0.  0.
          5    1    5    5  501    0 -0.26807514688E+02  0.22316171119E+02  0.82011332433E+02  0.89244624401E+02  0.47000000000E+01 0. -1.
        -11    1    6    6    0    0  0.13818791997E+02 -0.30066297315E+01  0.32176482029E+02  0.35147188086E+02  0.00000000000E+00 0.  1.
         12    1    6    6    0    0  0.10255302629E+02 -0.71900065476E+02 -0.26306941216E+02  0.77245361049E+02  0.00000000000E+00 0. -1.
         -5    1    3    3    0  503  0.64253810592E+01  0.90994315979E+02  0.17907851563E+02  0.93080783247E+02  0.47000000000E+01 0.  1.
         11    1    4    4    0    0 -0.39838548444E+01  0.21849512060E+02  0.37687643875E+02  0.43745065750E+02  0.00000000000E+00 0. -1.
        -12    1    4    4    0    0  0.29189384715E+00 -0.60253303951E+02  0.26754986636E+02  0.65927044139E+02  0.00000000000E+00 0.  1.
</event>
<event>
12    1  0.9873238E-001  0.1937981E+03  0.7818608E-02  0.1155098E+00
         21   -1    0    0  501  502  0.00000000000E+00  0.00000000000E+00  0.16775758378E+04  0.16775758378E+04  0.00000000000E+00 0.  1.
         21   -1    0    0  502  503 -0.00000000000E+00 -0.00000000000E+00 -0.23976210811E+02  0.23976210811E+02  0.00000000000E+00 0.  1.
         -6    2    1    2    0  503 -0.84114197631E+02 -0.29934153173E+02  0.60700883851E+03  0.63716960768E+03  0.17191313839E+03 0.  0.
        -24    2    3    3    0    0  0.15913797071E+01 -0.47000679673E+02  0.33085402239E+03  0.34747962722E+03  0.95216126890E+02 0.  0.
          6    2    1    2  501    0  0.84114197631E+02  0.29934153173E+02  0.10465907885E+04  0.10643824409E+04  0.17200712273E+03 0.  0.
         24    2    5    5    0    0  0.12440512498E+03  0.22584091259E+02  0.83561171357E+03  0.84941350763E+03  0.85262505178E+02 0.  0.
          5    1    5    5  501    0 -0.40290927347E+02  0.73500619142E+01  0.21097907492E+03  0.21496893332E+03  0.47000000000E+01 0. -1.
        -11    1    6    6    0    0  0.76155093409E+02 -0.10369269653E+02  0.26801858379E+03  0.27882087666E+03  0.00000000000E+00 0.  1.
         12    1    6    6    0    0  0.48250031569E+02  0.32953360912E+02  0.56759312978E+03  0.57059263097E+03  0.00000000000E+00 0. -1.
         -5    1    3    3    0  503 -0.85705577338E+02  0.17066526499E+02  0.27615481612E+03  0.28968998046E+03  0.47000000000E+01 0.  1.
         11    1    4    4    0    0  0.10669456588E+02 -0.51458612230E+01 -0.18859203056E+01  0.11994744141E+02  0.00000000000E+00 0. -1.
        -12    1    4    4    0    0 -0.90780768807E+01 -0.41854818450E+02  0.33273994270E+03  0.33548488308E+03  0.00000000000E+00 0.  1.
</event>
<event>
12    1  0.9873238E-001  0.4295330E+03  0.7818608E-02  0.1034055E+00
         21   -1    0    0  503  502  0.00000000000E+00  0.00000000000E+00  0.16221164874E+04  0.16221164874E+04  0.00000000000E+00 0. -1.
         21   -1    0    0  501  503 -0.00000000000E+00 -0.00000000000E+00 -0.17846701801E+03  0.17846701801E+03  0.00000000000E+00 0. -1.
          6    2    1    2  501    0 -0.30449373213E+03  0.24950891022E+03  0.12643558512E+04  0.13351323213E+04  0.17032753107E+03 0.  0.
         24    2    3    3    0    0 -0.13876085775E+03  0.12043577929E+03  0.81271112868E+03  0.83700351856E+03  0.79474265172E+02 0.  0.
         -6    2    1    2    0  502  0.30449373213E+03 -0.24950891022E+03  0.17929361820E+03  0.46545118408E+03  0.17183560182E+03 0.  0.
        -24    2    5    5    0    0  0.26723133536E+03 -0.21438724803E+03  0.20868314731E+03  0.40622406370E+03  0.63991055967E+02 0.  0.
          5    1    3    3  501    0 -0.16573287438E+03  0.12907313093E+03  0.45164472248E+03  0.49812880274E+03  0.47000000000E+01 0. -1.
        -11    1    4    4    0    0 -0.10231341791E+03  0.12706981207E+03  0.66378518651E+03  0.68353898678E+03  0.00000000000E+00 0.  1.
         12    1    4    4    0    0 -0.36447439840E+02 -0.66340327818E+01  0.14892594218E+03  0.15346453178E+03  0.00000000000E+00 0. -1.
         -5    1    5    5    0  502  0.37262396769E+02 -0.35121662191E+02 -0.29389529107E+02  0.59227120385E+02  0.47000000000E+01 0.  1.
         11    1    6    6    0    0  0.26085273200E+03 -0.19194990030E+03  0.20295831312E+03  0.38220542759E+03  0.00000000000E+00 0. -1.
        -12    1    6    6    0    0  0.63786033529E+01 -0.22437347728E+02  0.57248341903E+01  0.24018636104E+02  0.00000000000E+00 0.  1.
</event>
<event>
12    1  0.9873238E-001  0.2409196E+03  0.7818608E-02  0.1119671E+00
         21   -1    0    0  503  502  0.00000000000E+00  0.00000000000E+00  0.57495004832E+02  0.57495004832E+02  0.00000000000E+00 0. -1.
         21   -1    0    0  501  503 -0.00000000000E+00 -0.00000000000E+00 -0.10607466405E+04  0.10607466405E+04  0.00000000000E+00 0. -1.
          6    2    1    2  501    0 -0.16894782113E+03  0.50217496673E+01 -0.36196026006E+03  0.43318918178E+03  0.16753821389E+03 0.  0.
         24    2    3    3    0    0 -0.98559280201E+02  0.42302876899E+02 -0.31197258944E+03  0.33903353216E+03  0.78188069788E+02 0.  0.
         -6    2    1    2    0  502  0.16894782113E+03 -0.50217496673E+01 -0.64129137561E+03  0.68505246355E+03  0.17167895956E+03 0.  0.
        -24    2    5    5    0    0  0.14568615547E+03 -0.42421064370E+02 -0.34203369233E+03  0.38253458832E+03  0.79508879880E+02 0.  0.
          5    1    3    3  501    0 -0.70388540930E+02 -0.37281127232E+02 -0.49987670621E+02  0.94155649623E+02  0.47000000000E+01 0. -1.
        -13    1    4    4    0    0 -0.33203862784E+02 -0.17334449924E+02 -0.14853238153E+03  0.15318240115E+03  0.00000000000E+00 0.  1.
         14    1    4    4    0    0 -0.65355417417E+02  0.59637326823E+02 -0.16344020791E+03  0.18585113101E+03  0.00000000000E+00 0. -1.
         -5    1    5    5    0  502  0.23261665657E+02  0.37399314703E+02 -0.29925768328E+03  0.30251787523E+03  0.47000000000E+01 0.  1.
         13    1    6    6    0    0  0.11266651163E+03 -0.10698327394E+02 -0.29898220872E+03  0.31968509221E+03  0.00000000000E+00 0. -1.
        -14    1    6    6    0    0  0.33019643843E+02 -0.31722736976E+02 -0.43051483603E+02  0.62849496110E+02  0.00000000000E+00 0.  1.
</event>
<event>
12    1  0.9873238E-001  0.1975874E+03  0.7818608E-02  0.1151912E+00
         21   -1    0    0  501  502  0.00000000000E+00  0.00000000000E+00  0.57797263970E+03  0.57797263970E+03  0.00000000000E+00 0. -1.
         21   -1    0    0  502  503 -0.00000000000E+00 -0.00000000000E+00 -0.68042909000E+02  0.68042909000E+02  0.00000000000E+00 0. -1.
         -6    2    1    2    0  503 -0.90091122508E+02  0.36980257602E+02  0.22285488750E+03  0.29783398842E+03  0.17192101085E+03 0.  0.
        -24    2    3    3    0    0 -0.12918944097E+03  0.18142240540E+02  0.17391651426E+03  0.23225499965E+03  0.81709108301E+02 0.  0.
          6    2    1    2  501    0  0.90091122508E+02 -0.36980257602E+02  0.28707484320E+03  0.34818156028E+03  0.17127312548E+03 0.  0.
         24    2    5    5    0    0  0.90789693959E+02 -0.77236880270E+02  0.26686784829E+03  0.30288811358E+03  0.79463555732E+02 0.  0.
          5    1    5    5  501    0 -0.69857145142E+00  0.40256622668E+02  0.20206994905E+02  0.45293446699E+02  0.47000000000E+01 0. -1.
        -13    1    6    6    0    0  0.56135098965E+02 -0.35678715257E+02  0.22455129522E+03  0.23419522677E+03  0.00000000000E+00 0.  1.
         14    1    6    6    0    0  0.34654594994E+02 -0.41558165013E+02  0.42316553077E+02  0.68692886806E+02  0.00000000000E+00 0. -1.
         -5    1    3    3    0  503  0.39098318463E+02  0.18838017062E+02  0.48938373237E+02  0.65578988773E+02  0.47000000000E+01 0.  1.
         11    1    4    4    0    0 -0.82229800058E+02  0.25233598434E+02  0.16179914207E+03  0.18324147151E+03  0.00000000000E+00 0. -1.
        -12    1    4    4    0    0 -0.46959640912E+02 -0.70913578946E+01  0.12117372188E+02  0.49013528134E+02  0.00000000000E+00 0.  1.
</event>
<event>
12    1  0.9873238E-001  0.2854931E+03  0.7818608E-02  0.1092947E+00
         21   -1    0    0  503  502  0.00000000000E+00  0.00000000000E+00  0.76010317224E+03  0.76010317224E+03  0.00000000000E+00 0. -1.
         21   -1    0    0  501  503 -0.00000000000E+00 -0.00000000000E+00 -0.10911888642E+03  0.10911888642E+03  0.00000000000E+00 0. -1.
          6    2    1    2  501    0 -0.66874419877E+02  0.21743190042E+03  0.39045091924E+03  0.48271986894E+03  0.16975786339E+03 0.  0.
         24    2    3    3    0    0 -0.39698002886E+02  0.20345111436E+03  0.39328173160E+03  0.45166953049E+03  0.79790707441E+02 0.  0.
         -6    2    1    2    0  502  0.66874419877E+02 -0.21743190042E+03  0.26053336658E+03  0.38650218972E+03  0.17250358897E+03 0.  0.
        -24    2    5    5    0    0  0.42609130199E+01 -0.12831063882E+03  0.67831757669E+02  0.16509972681E+03  0.78581149321E+02 0.  0.
          5    1    3    3  501    0 -0.27176416990E+02  0.13980786058E+02 -0.28308123633E+01  0.31050338450E+02  0.47000000000E+01 0. -1.
        -11    1    4    4    0    0 -0.13521966558E+02  0.19581468552E+02  0.11272619447E+03  0.11521055685E+03  0.00000000000E+00 0.  1.
         12    1    4    4    0    0 -0.26176036328E+02  0.18386964581E+03  0.28055553713E+03  0.33645897364E+03  0.00000000000E+00 0. -1.
         -5    1    5    5    0  502  0.62613506857E+02 -0.89121261593E+02  0.19270160891E+03  0.22140246291E+03  0.47000000000E+01 0.  1.
         13    1    6    6    0    0 -0.19185170697E+02 -0.36458776064E+02 -0.10057307991E+02  0.42408284224E+02  0.00000000000E+00 0. -1.
        -14    1    6    6    0    0  0.23446083717E+02 -0.91851862759E+02  0.77889065660E+02  0.12269144258E+03  0.00000000000E+00 0.  1.
</event>
<event>
12    1  0.9873238E-001  0.2508829E+03  0.7818608E-02  0.1113143E+00
         21   -1    0    0  503  502  0.00000000000E+00  0.00000000000E+00  0.13893569884E+03  0.13893569884E+03  0.00000000000E+00 0. -1.
         21   -1    0    0  501  503 -0.00000000000E+00 -0.00000000000E+00 -0.86712219719E+03  0.86712219719E+03  0.00000000000E+00 0. -1.
          6    2    1    2  501    0  0.12188151838E+03 -0.13659776360E+03 -0.15538951659E+02  0.25136362239E+03  0.17154637304E+03 0.  0.
         24    2    3    3    0    0  0.15769400534E+03 -0.11067647914E+03 -0.27581739422E+02  0.20530316270E+03  0.65360185970E+02 0.  0.
         -6    2    1    2    0  502 -0.12188151838E+03  0.13659776360E+03 -0.71264754668E+03  0.75469427364E+03  0.16787753668E+03 0.  0.
        -24    2    5    5    0    0 -0.35526213161E+02  0.12226810010E+03 -0.54670875577E+03  0.56702341728E+03  0.80084280502E+02 0.  0.
          5    1    3    3  501    0 -0.35812486960E+02 -0.25921284461E+02  0.12042787764E+02  0.46060459697E+02  0.47000000000E+01 0. -1.
        -11    1    4    4    0    0  0.96495758318E+02 -0.76622825964E+02 -0.48180154717E+02  0.13230198842E+03  0.00000000000E+00 0.  1.
         12    1    4    4    0    0  0.61198247020E+02 -0.34053653174E+02  0.20598415294E+02  0.73001174275E+02  0.00000000000E+00 0. -1.
         -5    1    5    5    0  502 -0.86355305217E+02  0.14329663497E+02 -0.16593879091E+03  0.18767085635E+03  0.47000000000E+01 0.  1.
         11    1    6    6    0    0 -0.20112822188E+02  0.11605334972E+03 -0.34342539119E+03  0.36306184723E+03  0.00000000000E+00 0. -1.
        -12    1    6    6    0    0 -0.15413390973E+02  0.62147503835E+01 -0.20328336458E+03  0.20396157006E+03  0.00000000000E+00 0.  1.
</event>
<event>
12    1  0.9873238E-001  0.2713946E+03  0.7818608E-02  0.1100616E+00
         21   -1    0    0  501  502  0.00000000000E+00  0.00000000000E+00  0.54249770470E+03  0.54249770470E+03  0.00000000000E+00 0.  1.
         21   -1    0    0  502  503 -0.00000000000E+00 -0.00000000000E+00 -0.19474790321E+03  0.19474790321E+03  0.00000000000E+00 0.  1.
         -6    2    1    2    0  503 -0.20500953687E+03 -0.41819491418E+02 -0.29985902572E+02  0.27212274918E+03  0.17138802816E+03 0.  0.
        -24    2    3    3    0    0 -0.21348877345E+03 -0.49375230119E+02  0.10536572584E+02  0.22977717523E+03  0.68345893498E+02 0.  0.
          6    2    1    2  501    0  0.20500953687E+03  0.41819491418E+02  0.37773570407E+03  0.46512285873E+03  0.17285031535E+03 0.  0.
         24    2    5    5    0    0  0.17599485792E+03  0.60296061585E+02  0.37984692625E+03  0.43034093097E+03  0.79371433318E+02 0.  0.
          5    1    5    5  501    0  0.29014678947E+02 -0.18476570167E+02 -0.21112221860E+01  0.34781927759E+02  0.47000000000E+01 0. -1.
        -11    1    6    6    0    0  0.11502439515E+02 -0.16964465171E+02  0.40849315293E+02  0.45703016894E+02  0.00000000000E+00 0.  1.
         12    1    6    6    0    0  0.16449241841E+03  0.77260526757E+02  0.33899761096E+03  0.38463791408E+03  0.00000000000E+00 0. -1.
         -5    1    3    3    0  503  0.84792365756E+01  0.75557387008E+01 -0.40522475156E+02  0.42345573948E+02  0.47000000000E+01 0.  1.
         13    1    4    4    0    0 -0.13563153660E+03 -0.56410106351E+02 -0.14704794897E+02  0.14762873979E+03  0.00000000000E+00 0. -1.
        -14    1    4    4    0    0 -0.77857236849E+02  0.70348762319E+01  0.25241367481E+02  0.82148435443E+02  0.00000000000E+00 0.  1.
</event>
<event>
12    1  0.9873238E-001  0.1900209E+03  0.7818608E-02  0.1158563E+00
         21   -1    0    0  503  502  0.00000000000E+00  0.00000000000E+00  0.19748648083E+04  0.19748648083E+04  0.00000000000E+00 0. -1.
         21   -1    0    0  501  503 -0.00000000000E+00 -0.00000000000E+00 -0.24573917588E+02  0.24573917588E+02  0.00000000000E+00 0. -1.
          6    2    1    2  501    0 -0.75072779743E+02  0.29526999636E+02  0.46831112068E+03  0.50539414486E+03  0.17204699925E+03 0.  0.
         24    2    3    3    0    0 -0.35729772754E+01 -0.12696294615E+02  0.96595910619E+02  0.12448823034E+03  0.77411804539E+02 0.  0.
         -6    2    1    2    0  502  0.75072779743E+02 -0.29526999636E+02  0.14819797700E+04  0.14940445810E+04  0.17145671559E+03 0.  0.
        -24    2    5    5    0    0  0.48980002318E+02 -0.19654908884E+02  0.14412823502E+04  0.14444798638E+04  0.80261497242E+02 0.  0.
          5    1    3    3  501    0 -0.71499802468E+02  0.42223294251E+02  0.37171521006E+03  0.38090591452E+03  0.47000000000E+01 0. -1.
        -13    1    4    4    0    0 -0.31254062663E+02 -0.22110159504E+02  0.84648402817E+02  0.92903324406E+02  0.00000000000E+00 0.  1.
         14    1    4    4    0    0  0.27681085387E+02  0.94138648894E+01  0.11947507802E+02  0.31584905937E+02  0.00000000000E+00 0. -1.
         -5    1    5    5    0  502  0.26092777425E+02 -0.98720907521E+01  0.40697419861E+02  0.49564717218E+02  0.47000000000E+01 0.  1.
         13    1    6    6    0    0  0.62795658292E+02 -0.27412569555E+02  0.13565179998E+04  0.13582473366E+04  0.00000000000E+00 0. -1.
        -14    1    6    6    0    0 -0.13815655973E+02  0.77576606710E+01  0.84764350373E+02  0.86232527176E+02  0.00000000000E+00 0.  1.
</event>
<event>
12    1  0.9873238E-001  0.1751736E+03  0.7818608E-02  0.1177751E+00
         21   -1    0    0  503  502  0.00000000000E+00  0.00000000000E+00  0.79481513912E+03  0.79481513912E+03  0.00000000000E+00 0. -1.
         21   -1    0    0  501  503 -0.00000000000E+00 -0.00000000000E+00 -0.41526842681E+02  0.41526842681E+02  0.00000000000E+00 0. -1.
          6    2    1    2  501    0  0.32034207298E+02 -0.40297100363E+01  0.56752791586E+03  0.59394756917E+03  0.17217244449E+03 0.  0.
         24    2    3    3    0    0 -0.26921582070E+02 -0.39273599476E+02  0.21038333448E+03  0.23022754105E+03  0.80475996645E+02 0.  0.
         -6    2    1    2    0  502 -0.32034207298E+02  0.40297100363E+01  0.18576038058E+03  0.24239441263E+03  0.15233418291E+03 0.  0.
        -24    2    5    5    0    0 -0.55589116819E+02  0.32195006770E+02  0.17643221053E+03  0.20422082937E+03  0.80319075345E+02 0.  0.
          5    1    3    3  501    0  0.58955789368E+02  0.35243889440E+02  0.35714458138E+03  0.36372002812E+03  0.47000000000E+01 0. -1.
        -11    1    4    4    0    0  0.11252803577E+02  0.20032657858E+02  0.51609117704E+02  0.56492778294E+02  0.00000000000E+00 0.  1.
         12    1    4    4    0    0 -0.38174385647E+02 -0.59306257334E+02  0.15877421678E+03  0.17373476276E+03  0.00000000000E+00 0. -1.
         -5    1    5    5    0  502  0.23554909521E+02 -0.28165296734E+02  0.93281700425E+01  0.38173583261E+02  0.47000000000E+01 0.  1.
         13    1    6    6    0    0  0.14666110171E+02  0.28162519800E+02  0.44107075039E+02  0.54347551715E+02  0.00000000000E+00 0. -1.
        -14    1    6    6    0    0 -0.70255226989E+02  0.40324869706E+01  0.13232513550E+03  0.14987327765E+03  0.00000000000E+00 0.  1.
</event>
<event>
12    1  0.9873238E-001  0.3042400E+03  0.7818608E-02  0.1083573E+00
         21   -1    0    0  503  502  0.00000000000E+00  0.00000000000E+00  0.25400774978E+03  0.25400774978E+03  0.00000000000E+00 0.  1.
         21   -1    0    0  501  503 -0.00000000000E+00 -0.00000000000E+00 -0.49998732039E+03  0.49998732039E+03  0.00000000000E+00 0.  1.
          6    2    1    2  501    0 -0.15601960064E+03  0.19778491547E+03  0.75819032211E+02  0.31354508965E+03  0.17059017857E+03 0.  0.
         24    2    3    3    0    0 -0.17603901972E+03  0.13679023850E+03  0.77243163284E+02  0.24916150549E+03  0.80085227926E+02 0.  0.
         -6    2    1    2    0  502  0.15601960064E+03 -0.19778491547E+03 -0.32179860282E+03  0.44044998052E+03  0.16425850356E+03 0.  0.
        -24    2    5    5    0    0  0.89697140749E+02 -0.19579905100E+03 -0.22074374920E+03  0.31946739589E+03  0.83359275409E+02 0.  0.
          5    1    3    3  501    0  0.20019419084E+02  0.60994676974E+02 -0.14241310726E+01  0.64383584158E+02  0.47000000000E+01 0. -1.
        -13    1    4    4    0    0 -0.98145421590E+02  0.59212952892E+02 -0.31028299854E+00  0.11462457784E+03  0.00000000000E+00 0.  1.
         14    1    4    4    0    0 -0.77893598131E+02  0.77577285606E+02  0.77553446282E+02  0.13453692765E+03  0.00000000000E+00 0. -1.
         -5    1    5    5    0  502  0.66322459888E+02 -0.19858644740E+01 -0.10105485362E+03  0.12098258463E+03  0.47000000000E+01 0.  1.
         11    1    6    6    0    0  0.17203663421E+02 -0.91618804458E+02 -0.14276930995E+03  0.17050820282E+03  0.00000000000E+00 0. -1.
        -12    1    6    6    0    0  0.72493477328E+02 -0.10418024654E+03 -0.77974439251E+02  0.14895919307E+03  0.00000000000E+00 0.  1.
</event>
<event>
12    1  0.9873238E-001  0.1765560E+03  0.7818608E-02  0.1176179E+00
         21   -1    0    0  503  502  0.00000000000E+00  0.00000000000E+00  0.33214641120E+03  0.33214641120E+03  0.00000000000E+00 0. -1.
         21   -1    0    0  501  503 -0.00000000000E+00 -0.00000000000E+00 -0.27691351917E+03  0.27691351917E+03  0.00000000000E+00 0. -1.
          6    2    1    2  501    0  0.14138455610E+02  0.37098230755E+02  0.28212155231E+03  0.33281314491E+03  0.17203442822E+03 0.  0.
         24    2    3    3    0    0 -0.40221197662E+02  0.70320411025E+02  0.17406363950E+03  0.20728510944E+03  0.78142568771E+02 0.  0.
         -6    2    1    2    0  502 -0.14138455610E+02 -0.37098230755E+02 -0.22688866028E+03  0.27624678547E+03  0.15250458245E+03 0.  0.
        -24    2    5    5    0    0 -0.11214862115E+02 -0.76585587049E+02 -0.12843954640E+03  0.17002947648E+03  0.80138508322E+02 0.  0.
          5    1    3    3  501    0  0.54359653272E+02 -0.33222180270E+02  0.10805791281E+03  0.12552803546E+03  0.47000000000E+01 0. -1.
        -11    1    4    4    0    0 -0.53712034683E+02  0.40431790317E+02  0.15594739820E+03  0.16982138659E+03  0.00000000000E+00 0.  1.
         12    1    4    4    0    0  0.13490837021E+02  0.29888620708E+02  0.18116241297E+02  0.37463722854E+02  0.00000000000E+00 0. -1.
         -5    1    5    5    0  502 -0.29235934948E+01  0.39487356295E+02 -0.98449113882E+02  0.10621730900E+03  0.47000000000E+01 0.  1.
         11    1    6    6    0    0 -0.19712921345E+02  0.11178514200E+02 -0.19655170049E+02  0.29998069226E+02  0.00000000000E+00 0. -1.
        -12    1    6    6    0    0  0.84980592294E+01 -0.87764101250E+02 -0.10878437635E+03  0.14003140725E+03  0.00000000000E+00 0.  1.
</event>
<event>
12    1  0.9873238E-001  0.5179272E+03  0.7818608E-02  0.1009245E+00
         21   -1    0    0  503  502  0.00000000000E+00  0.00000000000E+00  0.80203848394E+03  0.80203848394E+03  0.00000000000E+00 0.  1.
         21   -1    0    0  501  503 -0.00000000000E+00 -0.00000000000E+00 -0.59597791163E+03  0.59597791163E+03  0.00000000000E+00 0.  1.
          6    2    1    2  501    0 -0.67854121877E+00  0.48831364503E+03 -0.36043726373E+03  0.63044337231E+03  0.17056713709E+03 0.  0.
         24    2    3    3    0    0 -0.53580206920E+02  0.34897026967E+03 -0.30101260380E+03  0.46991754043E+03  0.74584311153E+02 0.  0.
         -6    2    1    2    0  502  0.67854121877E+00 -0.48831364503E+03  0.56649783604E+03  0.76757302326E+03  0.17262059975E+03 0.  0.
        -24    2    5    5    0    0 -0.37171946946E+02 -0.45387065185E+03  0.47557650936E+03  0.66313281607E+03  0.78687948499E+02 0.  0.
          5    1    3    3  501    0  0.52901665701E+02  0.13934337536E+03 -0.59424659931E+02  0.16052583187E+03  0.47000000000E+01 0. -1.
        -11    1    4    4    0    0  0.11985586405E+02  0.34197582553E+02 -0.51307508781E+02  0.62813926730E+02  0.00000000000E+00 0.  1.
         12    1    4    4    0    0 -0.65565793325E+02  0.31477268712E+03 -0.24970509502E+03  0.40710361370E+03  0.00000000000E+00 0. -1.
         -5    1    5    5    0  502  0.37850488165E+02 -0.34442993182E+02  0.90921326683E+02  0.10444020720E+03  0.47000000000E+01 0.  1.
         13    1    6    6    0    0 -0.59776276870E+02 -0.30713915082E+03  0.34018591249E+03  0.46220570778E+03  0.00000000000E+00 0. -1.
        -14    1    6    6    0    0  0.22604329924E+02 -0.14673150103E+03  0.13539059687E+03  0.20092710829E+03  0.00000000000E+00 0.  1.
</event>
<event>
12    1  0.9873238E-001  0.3296309E+03  0.7818608E-02  0.1071306E+00
         21   -1    0    0  501  502  0.00000000000E+00  0.00000000000E+00  0.11720727240E+04  0.11720727240E+04  0.00000000000E+00 0.  1.
         21   -1    0    0  502  503 -0.00000000000E+00 -0.00000000000E+00 -0.93229937395E+02  0.93229937395E+02  0.00000000000E+00 0. -1.
         -6    2    1    2    0  503 -0.21782846521E+03 -0.17787139219E+03  0.58747825451E+03  0.67361388521E+03  0.17186475617E+03 0.  0.
        -24    2    3    3    0    0 -0.46021921822E+02 -0.13977338031E+02  0.16839555287E+03  0.19191776715E+03  0.78498304797E+02 0.  0.
          6    2    1    2  501    0  0.21782846521E+03  0.17787139219E+03  0.49136453207E+03  0.59168877616E+03  0.17195648298E+03 0.  0.
         24    2    5    5    0    0  0.97665623283E+02  0.10068605297E+03  0.37258960956E+03  0.40587635088E+03  0.78970499653E+02 0.  0.
          5    1    5    5  501    0  0.12016284193E+03  0.77185339222E+02  0.11877492251E+03  0.18581242528E+03  0.47000000000E+01 0. -1.
        -11    1    6    6    0    0 -0.21320642582E+01  0.43535959962E+02  0.13604615015E+03  0.14285825310E+03  0.00000000000E+00 0.  1.
         12    1    6    6    0    0  0.99797687541E+02  0.57150093004E+02  0.23654345941E+03  0.26301809778E+03  0.00000000000E+00 0. -1.
         -5    1    3    3    0  503 -0.17180654339E+03 -0.16389405416E+03  0.41908270164E+03  0.48169611806E+03  0.47000000000E+01 0.  1.
         13    1    4    4    0    0 -0.64805846923E+02  0.12154245664E+01  0.98034170147E+02  0.11752435309E+03  0.00000000000E+00 0. -1.
        -14    1    4    4    0    0  0.18783925102E+02 -0.15192762597E+02  0.70361382721E+02  0.74393414063E+02  0.00000000000E+00 0.  1.
</event>
<event>
12    1  0.9873238E-001  0.2696655E+03  0.7818608E-02  0.1101579E+00
         21   -1    0    0  501  502  0.00000000000E+00  0.00000000000E+00  0.36653845298E+02  0.36653845298E+02  0.00000000000E+00 0.  1.
         21   -1    0    0  502  503 -0.00000000000E+00 -0.00000000000E+00 -0.26958826192E+04  0.26958826192E+04  0.00000000000E+00 0.  1.
         -6    2    1    2    0  503  0.18434013277E+03 -0.94655643332E+02 -0.62615355864E+03  0.68175345437E+03  0.17256453338E+03 0.  0.
        -24    2    3    3    0    0  0.10803511429E+03  0.20145154831E+01 -0.42626676473E+03  0.44692501522E+03  0.79768228814E+02 0.  0.
          6    2    1    2  501    0 -0.18434013277E+03  0.94655643332E+02 -0.20330752152E+04  0.20507830101E+04  0.17139179782E+03 0.  0.
         24    2    5    5    0    0 -0.22363416524E+02  0.59726715517E+02 -0.87652896796E+03  0.88241757125E+03  0.79311634984E+02 0.  0.
          5    1    5    5  501    0 -0.16197671625E+03  0.34928927815E+02 -0.11565462473E+04  0.11683654388E+04  0.47000000000E+01 0. -1.
        -11    1    6    6    0    0  0.23678197791E+02  0.94360900718E+01 -0.11246042836E+03  0.11531281279E+03  0.00000000000E+00 0.  1.
         12    1    6    6    0    0 -0.46041614315E+02  0.50290625446E+02 -0.76406853960E+03  0.76710475846E+03  0.00000000000E+00 0. -1.
         -5    1    3    3    0  503  0.76305018489E+02 -0.96670158815E+02 -0.19988679391E+03  0.23482843915E+03  0.47000000000E+01 0.  1.
         11    1    4    4    0    0  0.86764065758E+02 -0.31796445240E+02 -0.26019532428E+03  0.27611704731E+03  0.00000000000E+00 0. -1.
        -12    1    4    4    0    0  0.21271048527E+02  0.33810960723E+02 -0.16607144045E+03  0.17080796792E+03  0.00000000000E+00 0.  1.
</event>
<event>
12    1  0.9873238E-001  0.2327758E+03  0.7818608E-02  0.1124756E+00
         21   -1    0    0  503  502  0.00000000000E+00  0.00000000000E+00  0.21105077874E+03  0.21105077874E+03  0.00000000000E+00 0.  1.
         21   -1    0    0  501  503 -0.00000000000E+00 -0.00000000000E+00 -0.32470379602E+03  0.32470379602E+03  0.00000000000E+00 0. -1.
          6    2    1    2  501    0  0.45216887109E+02  0.15017331389E+03 -0.17966638793E+03  0.29379933306E+03  0.17158509863E+03 0.  0.
         24    2    3    3    0    0 -0.27688839856E+02  0.75038937194E+02 -0.14455044089E+03  0.18327494968E+03  0.79355927754E+02 0.  0.
         -6    2    1    2    0  502 -0.45216887109E+02 -0.15017331389E+03  0.66013370651E+02  0.24195524170E+03  0.17201157751E+03 0.  0.
        -24    2    5    5    0    0 -0.32879566123E+02 -0.16028475567E+03  0.85922472165E+01  0.18217459131E+03  0.79633449247E+02 0.  0.
          5    1    3    3  501    0  0.72905726966E+02  0.75134376692E+02 -0.35115947040E+02  0.11052438338E+03  0.47000000000E+01 0. -1.
        -11    1    4    4    0    0 -0.34070192749E+02  0.89737675450E+02 -0.13024483886E+03  0.16179414847E+03  0.00000000000E+00 0.  1.
         12    1    4    4    0    0  0.63813528930E+01 -0.14698738256E+02 -0.14305602030E+02  0.21480801208E+02  0.00000000000E+00 0. -1.
         -5    1    5    5    0  502 -0.12337320987E+02  0.10111441782E+02  0.57421123435E+02  0.59780650386E+02  0.47000000000E+01 0.  1.
         11    1    6    6    0    0 -0.28057576570E+02 -0.83376881307E+02 -0.33780623817E+02  0.94234083456E+02  0.00000000000E+00 0. -1.
        -12    1    6    6    0    0 -0.48219895529E+01 -0.76907874361E+02  0.42372871033E+02  0.87940507854E+02  0.00000000000E+00 0.  1.
</event>
<event>
12    1  0.9873238E-001  0.1740178E+03  0.7818608E-02  0.1173992E+00
         21   -1    0    0  503  502  0.00000000000E+00  0.00000000000E+00  0.16939095983E+02  0.16939095983E+02  0.00000000000E+00 0. -1.
         21   -1    0    0  501  503 -0.00000000000E+00 -0.00000000000E+00 -0.17818911614E+04  0.17818911614E+04  0.00000000000E+00 0. -1.
          6    2    1    2  501    0 -0.26178632146E+02  0.14714767401E+02 -0.83157791771E+03  0.84937278568E+03  0.17032454512E+03 0.  0.
         24    2    3    3    0    0 -0.47985983342E+02  0.65885568098E+02 -0.62608502576E+03  0.63643281749E+03  0.80129326828E+02 0.  0.
         -6    2    1    2    0  502  0.26178632146E+02 -0.14714767401E+02 -0.93337414770E+03  0.94945747170E+03  0.17140695962E+03 0.  0.
        -24    2    5    5    0    0 -0.35349705663E+02 -0.32540210684E+02 -0.73411069354E+03  0.74009774074E+03  0.80732202250E+02 0.  0.
          5    1    3    3  501    0  0.21807351196E+02 -0.51170800696E+02 -0.20549289195E+03  0.21293996819E+03  0.47000000000E+01 0. -1.
        -13    1    4    4    0    0 -0.61873725471E+01  0.74473464785E+01 -0.44438327769E+01  0.10653365588E+02  0.00000000000E+00 0.  1.
         14    1    4    4    0    0 -0.41798610795E+02  0.58438221619E+02 -0.62164119298E+03  0.62577945190E+03  0.00000000000E+00 0. -1.
         -5    1    5    5    0  502  0.61528337809E+02  0.17825443282E+02 -0.19926345416E+03  0.20935973096E+03  0.47000000000E+01 0.  1.
         13    1    6    6    0    0 -0.23100306016E+02 -0.48637791200E+02 -0.25806458945E+03  0.26362206129E+03  0.00000000000E+00 0. -1.
        -14    1    6    6    0    0 -0.12249399647E+02  0.16097580516E+02 -0.47604610408E+03  0.47647567945E+03  0.00000000000E+00 0.  1.
</event>
<event>
12    1  0.9873238E-001  0.2338609E+03  0.7818608E-02  0.1124011E+00
         21   -1    0    0  503  502  0.00000000000E+00  0.00000000000E+00  0.11610767219E+03  0.11610767219E+03  0.00000000000E+00 0. -1.
         21   -1    0    0  501  503 -0.00000000000E+00 -0.00000000000E+00 -0.52349661921E+03  0.52349661921E+03  0.00000000000E+00 0. -1.
          6    2    1    2  501    0  0.14068146766E+03  0.72540576319E+02 -0.10165112851E+03  0.25468024260E+03  0.17168477944E+03 0.  0.
         24    2    3    3    0    0  0.11763242387E+03 -0.12899392919E+02 -0.83239823948E+02  0.16416884609E+03  0.77580669324E+02 0.  0.
         -6    2    1    2    0  502 -0.14068146766E+03 -0.72540576319E+02 -0.30573781851E+03  0.38492404879E+03  0.17215545044E+03 0.  0.
        -24    2    5    5    0    0 -0.12937969426E+03 -0.50434401073E+01 -0.26441884389E+03  0.30484320750E+03  0.79041220765E+02 0.  0.
          5    1    3    3  501    0  0.23049043784E+02  0.85439969237E+02 -0.18411304566E+02  0.90511396512E+02  0.47000000000E+01 0. -1.
        -11    1    4    4    0    0  0.15309433217E+02 -0.26549325775E+02 -0.44239165783E+02  0.53817740883E+02  0.00000000000E+00 0.  1.
         12    1    4    4    0    0  0.10232299066E+03  0.13649932856E+02 -0.39000658164E+02  0.11035110521E+03  0.00000000000E+00 0. -1.
         -5    1    5    5    0  502 -0.11301773400E+02 -0.67497136211E+02 -0.41318974620E+02  0.80080841294E+02  0.47000000000E+01 0.  1.
         13    1    6    6    0    0 -0.11514211318E+03 -0.30529420055E+02 -0.23461670135E+03  0.26312496702E+03  0.00000000000E+00 0. -1.
        -14    1    6    6    0    0 -0.14237581078E+02  0.25485979947E+02 -0.29802142541E+02  0.41718240482E+02  0.00000000000E+00 0.  1.
</event>
<event>
12    1  0.9873238E-001  0.1913357E+03  0.7818608E-02  0.1158347E+00
         21   -1    0    0  501  502  0.00000000000E+00  0.00000000000E+00  0.18872403420E+02  0.18872403420E+02  0.00000000000E+00 0. -1.
         21   -1    0    0  502  503 -0.00000000000E+00 -0.00000000000E+00 -0.23684032155E+04  0.23684032155E+04  0.00000000000E+00 0. -1.
         -6    2    1    2    0  503 -0.48097144316E+02 -0.52500277990E+02 -0.16984216096E+04  0.17086354149E+04  0.17242216348E+03 0.  0.
        -24    2    3    3    0    0 -0.26864715554E+02  0.34031808167E+02 -0.60943836927E+03  0.61600317769E+03  0.78516954095E+02 0.  0.
          6    2    1    2  501    0  0.48097144316E+02  0.52500277990E+02 -0.65110920248E+03  0.67864020407E+03  0.17759425255E+03 0.  0.
         24    2    5    5    0    0  0.93966559560E+02  0.22545390819E+02 -0.53958817709E+03  0.55430063826E+03  0.82193599257E+02 0.  0.
          5    1    5    5  501    0 -0.45869415245E+02  0.29954887171E+02 -0.11152102539E+03  0.12433956581E+03  0.47000000000E+01 0. -1.
        -11    1    6    6    0    0  0.38413784689E+02 -0.27730610393E+02 -0.14144031721E+03  0.14916423479E+03  0.00000000000E+00 0.  1.
         12    1    6    6    0    0  0.55552774871E+02  0.50276001212E+02 -0.39814785988E+03  0.40513640347E+03  0.00000000000E+00 0. -1.
         -5    1    3    3    0  503 -0.21232428762E+02 -0.86532086156E+02 -0.10889832403E+04  0.10926322372E+04  0.47000000000E+01 0.  1.
         13    1    4    4    0    0  0.78101661577E+01  0.64751394179E+01 -0.46066704133E+03  0.46077874201E+03  0.00000000000E+00 0. -1.
        -14    1    4    4    0    0 -0.34674881711E+02  0.27556668749E+02 -0.14877132794E+03  0.15522443567E+03  0.00000000000E+00 0.  1.
</event>
<event>
12    1  0.9873238E-001  0.2768672E+03  0.7818608E-02  0.1097427E+00
         21   -1    0    0  501  502  0.00000000000E+00  0.00000000000E+00  0.96524071562E+03  0.96524071562E+03  0.00000000000E+00 0. -1.
         21   -1    0    0  502  503 -0.00000000000E+00 -0.00000000000E+00 -0.10257286261E+03  0.10257286261E+03  0.00000000000E+00 0. -1.
         -6    2    1    2    0  503 -0.15205451047E+03  0.15524994217E+03  0.17755065421E+03  0.32890676804E+03  0.17155846979E+03 0.  0.
        -24    2    3    3    0    0 -0.14373998338E+03  0.65255206008E+02  0.73655219359E+02  0.19112238838E+03  0.78633652262E+02 0.  0.
          6    2    1    2  501    0  0.15205451047E+03 -0.15524994217E+03  0.68511719881E+03  0.73890681019E+03  0.17139013780E+03 0.  0.
         24    2    5    5    0    0  0.13485122066E+03 -0.18456301692E+03  0.58773110651E+03  0.63565299425E+03  0.79865615933E+02 0.  0.
          5    1    5    5  501    0  0.17203289805E+02  0.29313074753E+02  0.97386092302E+02  0.10325381594E+03  0.47000000000E+01 0. -1.
        -11    1    6    6    0    0  0.12190172213E+03 -0.10856646333E+03  0.43378990886E+03  0.46348720786E+03  0.00000000000E+00 0.  1.
         12    1    6    6    0    0  0.12949498532E+02 -0.75996553590E+02  0.15394119765E+03  0.17216578639E+03  0.00000000000E+00 0. -1.
         -5    1    3    3    0  503 -0.83145270933E+01  0.89994736164E+02  0.10389543485E+03  0.13778437967E+03  0.47000000000E+01 0.  1.
         11    1    4    4    0    0  0.83147215911E+01  0.12059606969E+02  0.18934833262E+01  0.14770037051E+02  0.00000000000E+00 0. -1.
        -12    1    4    4    0    0 -0.15205470497E+03  0.53195599039E+02  0.71761736033E+02  0.17635235133E+03  0.00000000000E+00 0.  1.
</event>
<event>
12    1  0.9873238E-001  0.1763171E+03  0.7818608E-02  0.1171472E+00
         21   -1    0    0  503  502  0.00000000000E+00  0.00000000000E+00  0.28665872901E+03  0.28665872901E+03  0.00000000000E+00 0. -1.
         21   -1    0    0  501  503 -0.00000000000E+00 -0.00000000000E+00 -0.27066299572E+03  0.27066299572E+03  0.00000000000E+00 0. -1.
          6    2    1    2  501    0  0.37913811385E+02 -0.19746268510E+01 -0.20782065584E+03  0.27253836088E+03  0.17218123274E+03 0.  0.
         24    2    3    3    0    0 -0.18708597392E+02  0.23576937866E+02 -0.38463954384E+02  0.92086810689E+02  0.78068055570E+02 0.  0.
         -6    2    1    2    0  502 -0.37913811385E+02  0.19746268510E+01  0.22381638914E+03  0.28478336385E+03  0.17194892275E+03 0.  0.
        -24    2    5    5    0    0  0.11065228552E+02 -0.50179794993E+02  0.79451523603E+02  0.12359299667E+03  0.79512471439E+02 0.  0.
          5    1    3    3  501    0  0.56622408777E+02 -0.25551564717E+02 -0.16935670146E+03  0.18045155019E+03  0.47000000000E+01 0. -1.
        -11    1    4    4    0    0  0.87271308408E+01 -0.23857958898E+02 -0.47430493102E+00  0.25408462777E+02  0.00000000000E+00 0.  1.
         12    1    4    4    0    0 -0.27435728232E+02  0.47434896765E+02 -0.37989649453E+02  0.66678347912E+02  0.00000000000E+00 0. -1.
         -5    1    5    5    0  502 -0.48979039937E+02  0.52154421844E+02  0.14436486554E+03  0.16119036718E+03  0.47000000000E+01 0.  1.
         11    1    6    6    0    0  0.41784214892E+02 -0.85987793430E+01  0.30939308657E+02  0.52698201492E+02  0.00000000000E+00 0. -1.
        -12    1    6    6    0    0 -0.30718986340E+02 -0.41581015650E+02  0.48512214946E+02  0.70894795177E+02  0.00000000000E+00 0.  1.
</event>
<event>
12    1  0.9873238E-001  0.4079631E+03  0.7818608E-02  0.1041116E+00
         21   -1    0    0  501  502  0.00000000000E+00  0.00000000000E+00  0.39307247387E+03  0.39307247387E+03  0.00000000000E+00 0. -1.
         21   -1    0    0  502  503 -0.00000000000E+00 -0.00000000000E+00 -0.61442978171E+03  0.61442978171E+03  0.00000000000E+00 0. -1.
         -6    2    1    2    0  503 -0.36298811742E+03 -0.70880505561E+02 -0.39215591977E+03  0.56587997099E+03  0.17219017597E+03 0.  0.
        -24    2    3    3    0    0 -0.12825153137E+03 -0.72474665539E-01 -0.86952120160E+02  0.17436178321E+03  0.79955610756E+02 0.  0.
          6    2    1    2  501    0  0.36298811742E+03  0.70880505561E+02  0.17079861193E+03  0.44162228459E+03  0.17050999078E+03 0.  0.
         24    2    5    5    0    0  0.27406968977E+03  0.64742004382E+01  0.16842391735E+03  0.33170236788E+03  0.80645736417E+02 0.  0.
          5    1    5    5  501    0  0.88918427646E+02  0.64406305123E+02  0.23746945787E+01  0.10991991671E+03  0.47000000000E+01 0. -1.
        -13    1    6    6    0    0  0.16836763516E+03  0.32720304979E+02  0.71201449286E+02  0.18570924939E+03  0.00000000000E+00 0.  1.
         14    1    6    6    0    0  0.10570205461E+03 -0.26246104541E+02  0.97222468061E+02  0.14599311850E+03  0.00000000000E+00 0. -1.
         -5    1    3    3    0  503 -0.23473658605E+03 -0.70808030895E+02 -0.30520379961E+03  0.39151818778E+03  0.47000000000E+01 0.  1.
         11    1    4    4    0    0 -0.67087923231E+02 -0.18411402584E+02 -0.40050884515E+01  0.69683641710E+02  0.00000000000E+00 0. -1.
        -12    1    4    4    0    0 -0.61163608138E+02  0.18338927919E+02 -0.82947031708E+02  0.10467814150E+03  0.00000000000E+00 0.  1.
</event>
<event>
12    1  0.9873238E-001  0.2020161E+03  0.7818608E-02  0.1151470E+00
         21   -1    0    0  501  502  0.00000000000E+00  0.00000000000E+00  0.80378237137E+03  0.80378237137E+03  0.00000000000E+00 0. -1.
         21   -1    0    0  502  503 -0.00000000000E+00 -0.00000000000E+00 -0.54358220196E+02  0.54358220196E+02  0.00000000000E+00 0. -1.
         -6    2    1    2    0  503 -0.60241143700E+02 -0.41289639991E+02  0.54668664258E+03  0.58281798839E+03  0.18835257537E+03 0.  0.
        -24    2    3    3    0    0  0.25653439579E+02  0.17681035726E+02  0.34913268921E+03  0.35942355130E+03  0.79504317906E+02 0.  0.
          6    2    1    2  501    0  0.60241143700E+02  0.41289639991E+02  0.20273750859E+03  0.27532260318E+03  0.17136571613E+03 0.  0.
         24    2    5    5    0    0  0.61849281456E+02  0.81871866586E+02  0.19396054476E+03  0.23350599982E+03  0.79850002333E+02 0.  0.
          5    1    5    5  501    0 -0.16081377561E+01 -0.40582226596E+02  0.87769638369E+01  0.41816603362E+02  0.47000000000E+01 0. -1.
        -13    1    6    6    0    0  0.45814849902E+02  0.44379843166E+02  0.42487790246E+02  0.76640611107E+02  0.00000000000E+00 0.  1.
         14    1    6    6    0    0  0.16034431555E+02  0.37492023420E+02  0.15147275451E+03  0.15686538871E+03  0.00000000000E+00 0. -1.
         -5    1    3    3    0  503 -0.85894583279E+02 -0.58970675717E+02  0.19755395337E+03  0.22339443709E+03  0.47000000000E+01 0.  1.
         13    1    4    4    0    0  0.19958911786E+02  0.10964716051E+02  0.20401862177E+02  0.30574812150E+02  0.00000000000E+00 0. -1.
        -14    1    4    4    0    0  0.56945277929E+01  0.67163196756E+01  0.32873082703E+03  0.32884873915E+03  0.00000000000E+00 0.  1.
</event>
<event>
12    1  0.9873238E-001  0.2395940E+03  0.7818608E-02  0.1120187E+00
         21   -1    0    0  503  502  0.00000000000E+00  0.00000000000E+00  0.41686821093E+02  0.41686821093E+02  0.00000000000E+00 0.  1.
         21   -1    0    0  501  503 -0.00000000000E+00 -0.00000000000E+00 -0.13802866661E+04  0.13802866661E+04  0.00000000000E+00 0.  1.
          6    2    1    2  501    0  0.16255547188E+03 -0.99167936821E+01 -0.61804751878E+03  0.66286350888E+03  0.17573466280E+03 0.  0.
         24    2    3    3    0    0  0.19490381651E+02 -0.30062656331E+02 -0.32099097592E+03  0.33250286432E+03  0.78989302291E+02 0.  0.
         -6    2    1    2    0  502 -0.16255547188E+03  0.99167936821E+01 -0.72055232620E+03  0.75910997828E+03  0.17472744517E+03 0.  0.
        -24    2    5    5    0    0 -0.33695615172E+02  0.49184232303E+02 -0.36616954996E+03  0.37995824546E+03  0.82058794679E+02 0.  0.
          5    1    3    3  501    0  0.14306509022E+03  0.20145862649E+02 -0.29705654286E+03  0.33036064457E+03  0.47000000000E+01 0. -1.
        -11    1    4    4    0    0 -0.25155838428E+02  0.96675817898E+01 -0.10317836133E+03  0.10663982647E+03  0.00000000000E+00 0.  1.
         12    1    4    4    0    0  0.44646220079E+02 -0.39730238121E+02 -0.21781261459E+03  0.22586303784E+03  0.00000000000E+00 0. -1.
         -5    1    5    5    0  502 -0.12885985670E+03 -0.39267438621E+02 -0.35438277624E+03  0.37915173282E+03  0.47000000000E+01 0.  1.
         13    1    6    6    0    0 -0.59779967732E+02  0.42157819501E+02 -0.29197206414E+03  0.30099603407E+03  0.00000000000E+00 0. -1.
        -14    1    6    6    0    0  0.26084352561E+02  0.70264128014E+01 -0.74197485826E+02  0.78962211394E+02  0.00000000000E+00 0.  1.
</event>
<event>
12    1  0.9873238E-001  0.3949588E+03  0.7818608E-02  0.1045768E+00
         21   -1    0    0  503  502  0.00000000000E+00  0.00000000000E+00  0.32445584232E+03  0.32445584232E+03  0.00000000000E+00 0.  1.
         21   -1    0    0  501  503 -0.00000000000E+00 -0.00000000000E+00 -0.47949244122E+03  0.47949244122E+03  0.00000000000E+00 0. -1.
          6    2    1    2  501    0  0.94843027778E+02  0.34147984254E+03 -0.10281411032E+03  0.40812159225E+03  0.17432386527E+03 0.  0.
         24    2    3    3    0    0  0.11234837521E+03  0.30140702511E+03 -0.43546432844E+02  0.33431769345E+03  0.80022972574E+02 0.  0.
         -6    2    1    2    0  502 -0.94843027778E+02 -0.34147984254E+03 -0.52222488577E+02  0.39582669129E+03  0.16836834156E+03 0.  0.
        -24    2    5    5    0    0 -0.10208221910E+02 -0.27310660250E+03 -0.36476925588E+02  0.28579050146E+03  0.75194550995E+02 0.  0.
          5    1    3    3  501    0 -0.17505347430E+02  0.40072817432E+02 -0.59267677479E+02  0.73803898808E+02  0.47000000000E+01 0. -1.
        -11    1    4    4    0    0  0.24764523582E+02  0.97950404540E+02  0.21830054533E+02  0.10336399111E+03  0.00000000000E+00 0.  1.
         12    1    4    4    0    0  0.87583851626E+02  0.20345662057E+03 -0.65376487377E+02  0.23095370233E+03  0.00000000000E+00 0. -1.
         -5    1    5    5    0  502 -0.84634805869E+02 -0.68373240043E+02 -0.15745562989E+02  0.11003618983E+03  0.47000000000E+01 0.  1.
         13    1    6    6    0    0  0.66900274564E+01 -0.68541363441E+02 -0.41615059902E+02  0.80464204342E+02  0.00000000000E+00 0. -1.
        -14    1    6    6    0    0 -0.16898249366E+02 -0.20456523906E+03  0.51381343147E+01  0.20532629712E+03  0.00000000000E+00 0.  1.
</event>
<event>
12    1  0.9873238E-001  0.1859266E+03  0.7818608E-02  0.1163655E+00
         21   -1    0    0  501  502  0.00000000000E+00  0.00000000000E+00  0.31943963561E+03  0.31943963561E+03  0.00000000000E+00 0. -1.
         21   -1    0    0  502  503 -0.00000000000E+00 -0.00000000000E+00 -0.11277451515E+03  0.11277451515E+03  0.00000000000E+00 0. -1.
         -6    2    1    2    0  503  0.29994504924E+02 -0.61595994643E+02  0.15977115480E+03  0.24046502562E+03  0.16614111400E+03 0.  0.
        -24    2    3    3    0    0  0.34884108512E+02  0.13710337462E+02  0.13833940350E+03  0.16187519268E+03  0.75239039502E+02 0.  0.
          6    2    1    2  501    0 -0.29994504924E+02  0.61595994643E+02  0.46893965665E+02  0.19174912513E+03  0.17284370423E+03 0.  0.
         24    2    5    5    0    0 -0.29728929097E+02  0.10628207855E+03  0.16143566634E+02  0.13730104283E+03  0.80070420079E+02 0.  0.
          5    1    5    5  501    0 -0.26557582727E+00 -0.44686083912E+02  0.30750399031E+02  0.54448082303E+02  0.47000000000E+01 0. -1.
        -13    1    6    6    0    0 -0.94656216613E+01 -0.12336445623E+02  0.55036837579E+01  0.16494739130E+02  0.00000000000E+00 0.  1.
         14    1    6    6    0    0 -0.20263307436E+02  0.11861852418E+03  0.10639882877E+02  0.12080630370E+03  0.00000000000E+00 0. -1.
         -5    1    3    3    0  503 -0.48896035879E+01 -0.75306332105E+02  0.21431751301E+02  0.78589832944E+02  0.47000000000E+01 0.  1.
         11    1    4    4    0    0 -0.16453491136E+02  0.12404833356E+02  0.85754020792E+01  0.22318933263E+02  0.00000000000E+00 0. -1.
        -12    1    4    4    0    0  0.51337599648E+02  0.13055041051E+01  0.12976400142E+03  0.13955625942E+03  0.00000000000E+00 0.  1.
</event>
<event>
12    1  0.9873238E-001  0.1976336E+03  0.7818608E-02  0.1152590E+00
         21   -1    0    0  501  502  0.00000000000E+00  0.00000000000E+00  0.25244161101E+03  0.25244161101E+03  0.00000000000E+00 0. -1.
         21   -1    0    0  502  503 -0.00000000000E+00 -0.00000000000E+00 -0.33562868935E+03  0.33562868935E+03  0.00000000000E+00 0. -1.
         -6    2    1    2    0  503 -0.89223285602E+02 -0.27868823836E+02  0.17587993258E+03  0.26456146966E+03  0.17413085456E+03 0.  0.
        -24    2    3    3    0    0  0.13507807220E+02  0.87304796880E+01  0.42588531798E+02  0.92277187229E+02  0.80265896311E+02 0.  0.
          6    2    1    2  501    0  0.89223285602E+02  0.27868823836E+02 -0.25906701092E+03  0.32350883070E+03  0.16971971411E+03 0.  0.
         24    2    5    5    0    0  0.51492845637E+02  0.13891261696E+02 -0.45776926667E+02  0.10640584043E+03  0.79888644742E+02 0.  0.
          5    1    5    5  501    0  0.37730439965E+02  0.13977562140E+02 -0.21329008425E+03  0.21710299027E+03  0.47000000000E+01 0. -1.
        -13    1    6    6    0    0  0.16643685105E+02  0.34287304222E+01 -0.63641405737E+02  0.65871063225E+02  0.00000000000E+00 0.  1.
         14    1    6    6    0    0  0.34849160532E+02  0.10462531274E+02  0.17864479070E+02  0.40534777203E+02  0.00000000000E+00 0. -1.
         -5    1    3    3    0  503 -0.10273109282E+03 -0.36599303524E+02  0.13329140078E+03  0.17228428243E+03  0.47000000000E+01 0.  1.
         13    1    4    4    0    0 -0.61416086941E+00  0.11373383825E+02  0.64816843250E+02  0.65809985733E+02  0.00000000000E+00 0. -1.
        -14    1    4    4    0    0  0.14121968090E+02 -0.26429041370E+01 -0.22228311452E+02  0.26467201496E+02  0.00000000000E+00 0.  1.
</event>
<event>
12    1  0.9873238E-001  0.2415739E+03  0.7818608E-02  0.1119215E+00
         21   -1    0    0  501  502  0.00000000000E+00  0.00000000000E+00  0.64317051410E+03  0.64317051410E+03  0.00000000000E+00 0.  1.
         21   -1    0    0  502  503 -0.00000000000E+00 -0.00000000000E+00 -0.10515223705E+03  0.10515223705E+03  0.00000000000E+00 0. -1.
         -6    2    1    2    0  503  0.11924819658E+03  0.11854849647E+03  0.41385098027E+03  0.47919787672E+03  0.17344766583E+03 0.  0.
        -24    2    3    3    0    0  0.96101610746E+02  0.59787015893E+01  0.18749381907E+03  0.22529360818E+03  0.79573948244E+02 0.  0.
          6    2    1    2  501    0 -0.11924819658E+03 -0.11854849647E+03  0.12416729678E+03  0.26912487443E+03  0.16951932647E+03 0.  0.
         24    2    5    5    0    0 -0.92016389382E+02 -0.35557595534E+02  0.13016659865E+03  0.18144852309E+03  0.79049760366E+02 0.  0.
          5    1    5    5  501    0 -0.27231807196E+02 -0.82990900931E+02 -0.59993018714E+01  0.87676351335E+02  0.47000000000E+01 0. -1.
        -13    1    6    6    0    0 -0.11436526497E+02  0.12083195369E+02 -0.46910757687E+01  0.17285946329E+02  0.00000000000E+00 0.  1.
         14    1    6    6    0    0 -0.80579862886E+02 -0.47640790903E+02  0.13485767442E+03  0.16416257676E+03  0.00000000000E+00 0. -1.
         -5    1    3    3    0  503  0.23146585833E+02  0.11256979488E+03  0.22635716120E+03  0.25390426854E+03  0.47000000000E+01 0.  1.
         11    1    4    4    0    0  0.29314741415E+02 -0.11642385456E+02  0.13473301769E+03  0.13837588395E+03  0.00000000000E+00 0. -1.
        -12    1    4    4    0    0  0.66786869331E+02  0.17621087045E+02  0.52760801376E+02  0.86917724231E+02  0.00000000000E+00 0.  1.
</event>
<event>
12    1  0.9873238E-001  0.2552931E+03  0.7818608E-02  0.1110513E+00
         21   -1    0    0  501  502  0.00000000000E+00  0.00000000000E+00  0.51900099192E+03  0.51900099192E+03  0.00000000000E+00 0. -1.
         21   -1    0    0  502  503 -0.00000000000E+00 -0.00000000000E+00 -0.12464762536E+03  0.12464762536E+03  0.00000000000E+00 0.  1.
         -6    2    1    2    0  503  0.14492519385E+03 -0.11977107800E+03  0.22222877829E+03  0.33846741747E+03  0.17270246047E+03 0.  0.
        -24    2    3    3    0    0  0.17051794045E+03 -0.74695903452E+02  0.16470386048E+03  0.26089186585E+03  0.79255018808E+02 0.  0.
          6    2    1    2  501    0 -0.14492519385E+03  0.11977107800E+03  0.17212458827E+03  0.30518119980E+03  0.16781021390E+03 0.  0.
         24    2    5    5    0    0 -0.11333127752E+03  0.29519173058E+02  0.51512703962E+02  0.15119126984E+03  0.80559799914E+02 0.  0.
          5    1    5    5  501    0 -0.31593916324E+02  0.90251904945E+02  0.12061188431E+03  0.15398992997E+03  0.47000000000E+01 0. -1.
        -11    1    6    6    0    0 -0.86843506248E+02  0.47260508278E+02  0.10765835491E+02  0.99454780850E+02  0.00000000000E+00 0.  1.
         12    1    6    6    0    0 -0.26487771276E+02 -0.17741335220E+02  0.40746868471E+02  0.51736488987E+02  0.00000000000E+00 0. -1.
         -5    1    3    3    0  503 -0.25592746598E+02 -0.45075174551E+02  0.57524917820E+02  0.77575551622E+02  0.47000000000E+01 0.  1.
         13    1    4    4    0    0  0.75751334553E+02  0.82532671577E+01  0.56671324292E+02  0.94963256591E+02  0.00000000000E+00 0. -1.
        -14    1    4    4    0    0  0.94766605892E+02 -0.82949170610E+02  0.10803253618E+03  0.16592860926E+03  0.00000000000E+00 0.  1.
</event>
<event>
12    1  0.9873238E-001  0.3805791E+03  0.7818608E-02  0.1050764E+00
         21   -1    0    0  501  502  0.00000000000E+00  0.00000000000E+00  0.19764554448E+03  0.19764554448E+03  0.00000000000E+00 0.  1.
         21   -1    0    0  502  503 -0.00000000000E+00 -0.00000000000E+00 -0.80283016148E+03  0.80283016148E+03  0.00000000000E+00 0.  1.
         -6    2    1    2    0  503 -0.43790744737E+02 -0.33621498958E+03 -0.45143884102E+03  0.59045533420E+03  0.17286505129E+03 0.  0.
        -24    2    3    3    0    0 -0.78904886023E+02 -0.17988280064E+03 -0.21188768444E+03  0.30222000875E+03  0.88638252846E+02 0.  0.
          6    2    1    2  501    0  0.43790744737E+02  0.33621498958E+03 -0.15374577598E+03  0.41002037176E+03  0.17181616072E+03 0.  0.
         24    2    5    5    0    0  0.44570841815E+02  0.16489188244E+03 -0.14876215482E+02  0.18943238382E+03  0.80544605137E+02 0.  0.
          5    1    5    5  501    0 -0.78009707820E+00  0.17132310714E+03 -0.13886956050E+03  0.22058798794E+03  0.47000000000E+01 0. -1.
        -13    1    6    6    0    0  0.16953965373E+02  0.58828988250E+01  0.17232616969E+02  0.24879881994E+02  0.00000000000E+00 0.  1.
         14    1    6    6    0    0  0.27616876442E+02  0.15900898362E+03 -0.32108832450E+02  0.16455250182E+03  0.00000000000E+00 0. -1.
         -5    1    3    3    0  503  0.35114141287E+02 -0.15633218894E+03 -0.23955115658E+03  0.28823532545E+03  0.47000000000E+01 0.  1.
         11    1    4    4    0    0 -0.29711794884E+02 -0.14394853455E+03 -0.18322412957E+03  0.23489370577E+03  0.00000000000E+00 0. -1.
        -12    1    4    4    0    0 -0.49193091139E+02 -0.35934266088E+02 -0.28663554874E+02  0.67326302982E+02  0.00000000000E+00 0.  1.
</event>
<event>
12    1  0.9873238E-001  0.2454083E+03  0.7818608E-02  0.1116283E+00
         21   -1    0    0  501  502  0.00000000000E+00  0.00000000000E+00  0.43987144607E+03  0.43987144607E+03  0.00000000000E+00 0. -1.
         21   -1    0    0  502  503 -0.00000000000E+00 -0.00000000000E+00 -0.30168907902E+03  0.30168907902E+03  0.00000000000E+00 0. -1.
         -6    2    1    2    0  503  0.16155434823E+03  0.66584158810E+02  0.34324452593E+03  0.42195028431E+03  0.17231361006E+03 0.  0.
        -24    2    3    3    0    0  0.18881619009E+03  0.60232791810E+02  0.31563661036E+03  0.38235438949E+03  0.85374858796E+02 0.  0.
          6    2    1    2  501    0 -0.16155434823E+03 -0.66584158810E+02 -0.20506215888E+03  0.31961024078E+03  0.17195045615E+03 0.  0.
         24    2    5    5    0    0 -0.91488366614E+02  0.26887492114E+02 -0.78834490369E+02  0.14755877870E+03  0.80409314396E+02 0.  0.
          5    1    5    5  501    0 -0.70065981619E+02 -0.93471650925E+02 -0.12622766851E+03  0.17205146208E+03  0.47000000000E+01 0. -1.
        -13    1    6    6    0    0 -0.98531506470E+02  0.83564239826E+01 -0.45672984828E+02  0.10892340948E+03  0.00000000000E+00 0.  1.
         14    1    6    6    0    0  0.70431398567E+01  0.18531068132E+02 -0.33161505541E+02  0.38635369222E+02  0.00000000000E+00 0. -1.
         -5    1    3    3    0  503 -0.27261841862E+02  0.63513670002E+01  0.27607915576E+02  0.39595894824E+02  0.47000000000E+01 0.  1.
         11    1    4    4    0    0 -0.15249398667E+01  0.52064559224E+01  0.53435032496E+02  0.53709732105E+02  0.00000000000E+00 0. -1.
        -12    1    4    4    0    0  0.19034112996E+03  0.55026335888E+02  0.26220157786E+03  0.32864465739E+03  0.00000000000E+00 0.  1.
</event>
<event>
12    1  0.9873238E-001  0.2658197E+03  0.7818608E-02  0.1103763E+00
         21   -1    0    0  501  502  0.00000000000E+00  0.00000000000E+00  0.50327929150E+03  0.50327929150E+03  0.00000000000E+00 0. -1.
         21   -1    0    0  502  503 -0.00000000000E+00 -0.00000000000E+00 -0.14886803027E+03  0.14886803027E+03  0.00000000000E+00 0. -1.
         -6    2    1    2    0  503  0.14174127697E+03  0.14510198902E+03  0.98478650133E+02  0.28347514174E+03  0.17179911129E+03 0.  0.
        -24    2    3    3    0    0  0.78371536300E+02  0.16226608840E+03  0.55160444538E+02  0.20467864895E+03  0.79864219439E+02 0.  0.
          6    2    1    2  501    0 -0.14174127697E+03 -0.14510198902E+03  0.25593261109E+03  0.36867218003E+03  0.17109207490E+03 0.  0.
         24    2    5    5    0    0 -0.38982934450E+02 -0.68297497975E+02  0.19804109844E+03  0.22784702589E+03  0.80683165082E+02 0.  0.
          5    1    5    5  501    0 -0.10275834252E+03 -0.76804491043E+02  0.57891512656E+02  0.14082515414E+03  0.47000000000E+01 0. -1.
        -13    1    6    6    0    0 -0.34383695020E+02 -0.15009778973E+02  0.21195981923E+02  0.43090620762E+02  0.00000000000E+00 0.  1.
         14    1    6    6    0    0 -0.45992394298E+01 -0.53287719002E+02  0.17684511651E+03  0.18475640512E+03  0.00000000000E+00 0. -1.
         -5    1    3    3    0  503  0.63369740670E+02 -0.17164099387E+02  0.43318205595E+02  0.78796492792E+02  0.47000000000E+01 0.  1.
         11    1    4    4    0    0  0.35798141194E+01  0.82601934514E+02  0.46996619027E+02  0.95102980261E+02  0.00000000000E+00 0. -1.
        -12    1    4    4    0    0  0.74791722180E+02  0.79664153891E+02  0.81638255104E+01  0.10957566869E+03  0.00000000000E+00 0.  1.
</event>
<event>
12    1  0.9873238E-001  0.3053296E+03  0.7818608E-02  0.1082689E+00
         21   -1    0    0  501  502  0.00000000000E+00  0.00000000000E+00  0.85603110030E+03  0.85603110030E+03  0.00000000000E+00 0.  1.
         21   -1    0    0  502  503 -0.00000000000E+00 -0.00000000000E+00 -0.11344448360E+03  0.11344448360E+03  0.00000000000E+00 0. -1.
         -6    2    1    2    0  503  0.23066633712E+03 -0.10020173400E+03  0.47120356517E+03  0.56147927590E+03  0.17314395993E+03 0.  0.
        -24    2    3    3    0    0  0.20185403625E+03 -0.17184594247E+02  0.33713146431E+03  0.40110654629E+03  0.78666860993E+02 0.  0.
          6    2    1    2  501    0 -0.23066633712E+03  0.10020173400E+03  0.27138305153E+03  0.40799630799E+03  0.17194440991E+03 0.  0.
         24    2    5    5    0    0 -0.21295327901E+03  0.13594281473E+03  0.23248426332E+03  0.35208223997E+03  0.77996301763E+02 0.  0.
          5    1    5    5  501    0 -0.17713058111E+02 -0.35741080728E+02  0.38898788208E+02  0.55914068027E+02  0.47000000000E+01 0. -1.
        -13    1    6    6    0    0 -0.11348705080E+03  0.27030856293E+02  0.95069529508E+02  0.15049316706E+03  0.00000000000E+00 0.  1.
         14    1    6    6    0    0 -0.99466228208E+02  0.10891195843E+03  0.13741473381E+03  0.20158907290E+03  0.00000000000E+00 0. -1.
         -5    1    3    3    0  503  0.28812300872E+02 -0.83017139752E+02  0.13407210086E+03  0.16037272961E+03  0.47000000000E+01 0.  1.
         11    1    4    4    0    0  0.12637164998E+03 -0.32042890225E+02  0.14975735414E+03  0.19855428944E+03  0.00000000000E+00 0. -1.
        -12    1    4    4    0    0  0.75482386271E+02  0.14858295978E+02  0.18737411017E+03  0.20255225686E+03  0.00000000000E+00 0.  1.
</event>
<event>
12    1  0.9873238E-001  0.1819384E+03  0.7818608E-02  0.1166151E+00
         21   -1    0    0  503  502  0.00000000000E+00  0.00000000000E+00  0.10559226133E+03  0.10559226133E+03  0.00000000000E+00 0. -1.
         21   -1    0    0  501  503 -0.00000000000E+00 -0.00000000000E+00 -0.57385536478E+03  0.57385536478E+03  0.00000000000E+00 0. -1.
          6    2    1    2  501    0  0.29103286677E+02 -0.47739930527E+02 -0.49420581356E+01  0.18200548862E+03  0.17313425914E+03 0.  0.
         24    2    3    3    0    0 -0.47549307299E+02 -0.18764794651E+02 -0.24125460578E+02  0.97712715556E+02  0.79703718799E+02 0.  0.
         -6    2    1    2    0  502 -0.29103286677E+02  0.47739930527E+02 -0.46332104532E+03  0.49744213748E+03  0.17220971763E+03 0.  0.
        -24    2    5    5    0    0 -0.46356177476E+02  0.90031444166E+02 -0.38457777165E+03  0.40628936728E+03  0.83165085170E+02 0.  0.
          5    1    3    3  501    0  0.76652593976E+02 -0.28975135876E+02  0.19183402443E+02  0.84292773069E+02  0.47000000000E+01 0. -1.
        -11    1    4    4    0    0  0.16232521335E+01 -0.39776316569E+02 -0.20517095259E+01  0.39862260589E+02  0.00000000000E+00 0.  1.
         12    1    4    4    0    0 -0.49172559433E+02  0.21011521917E+02 -0.22073751052E+02  0.57850454968E+02  0.00000000000E+00 0. -1.
         -5    1    5    5    0  502  0.17252890799E+02 -0.42291513639E+02 -0.78743273663E+02  0.91152770194E+02  0.47000000000E+01 0.  1.
         11    1    6    6    0    0 -0.39213392173E+01 -0.75863870124E+01 -0.13098978526E+03  0.13126787120E+03  0.00000000000E+00 0. -1.
        -12    1    6    6    0    0 -0.42434838259E+02  0.97617831178E+02 -0.25358798640E+03  0.27502149608E+03  0.00000000000E+00 0.  1.
</event>
<event>
12    1  0.9873238E-001  0.2516871E+03  0.7818608E-02  0.1112704E+00
         21   -1    0    0  503  502  0.00000000000E+00  0.00000000000E+00  0.97900309937E+03  0.97900309937E+03  0.00000000000E+00 0.  1.
         21   -1    0    0  501  503 -0.00000000000E+00 -0.00000000000E+00 -0.77045964651E+02  0.77045964651E+02  0.00000000000E+00 0.  1.
          6    2    1    2  501    0 -0.17256205520E+03 -0.48492737916E+02  0.23114663751E+03  0.33957638340E+03  0.17249389440E+03 0.  0.
         24    2    3    3    0    0 -0.68816562469E+02 -0.39745576142E+01  0.19363602839E+03  0.22052122209E+03  0.79894815353E+02 0.  0.
         -6    2    1    2    0  502  0.17256205520E+03  0.48492737916E+02  0.67081049721E+03  0.71647268062E+03  0.17668381472E+03 0.  0.
        -24    2    5    5    0    0  0.36065330317E+02 -0.44443024254E+02  0.28476837320E+03  0.29656909252E+03  0.59869105599E+02 0.  0.
          5    1    3    3  501    0 -0.10374549273E+03 -0.44518180302E+02  0.37510609115E+02  0.11905516131E+03  0.47000000000E+01 0. -1.
        -13    1    4    4    0    0 -0.86590936689E+02 -0.10859735431E+01  0.14818993755E+03  0.17163748788E+03  0.00000000000E+00 0.  1.
         14    1    4    4    0    0  0.17774374220E+02 -0.28885840711E+01  0.45446090845E+02  0.48883734206E+02  0.00000000000E+00 0. -1.
         -5    1    5    5    0  502  0.13649672488E+03  0.92935762170E+02  0.38604212401E+03  0.41990358811E+03  0.47000000000E+01 0.  1.
         11    1    6    6    0    0 -0.62381724182E+01 -0.98281385199E+00  0.13273120100E+03  0.13288134722E+03  0.00000000000E+00 0. -1.
        -12    1    6    6    0    0  0.42303502735E+02 -0.43460210402E+02  0.15203717219E+03  0.16368774530E+03  0.00000000000E+00 0.  1.
</event>
<event>
12    1  0.9873238E-001  0.6716607E+03  0.7818608E-02  0.9767531E-01
         21   -1    0    0  503  502  0.00000000000E+00  0.00000000000E+00  0.18703251143E+04  0.18703251143E+04  0.00000000000E+00 0.  1.
         21   -1    0    0  501  503 -0.00000000000E+00 -0.00000000000E+00 -0.26085754840E+03  0.26085754840E+03  0.00000000000E+00 0.  1.
          6    2    1    2  501    0 -0.29187861886E+03  0.57993611346E+03  0.50958736625E+03  0.84309392708E+03  0.17207283979E+03 0.  0.
         24    2    3    3    0    0 -0.28116635699E+03  0.45894390699E+03  0.37082914772E+03  0.65862224961E+03  0.81147894658E+02 0.  0.
         -6    2    1    2    0  502  0.29187861886E+03 -0.57993611346E+03  0.10998801996E+04  0.12880887356E+04  0.16708415056E+03 0.  0.
        -24    2    5    5    0    0  0.28437352284E+03 -0.44559988387E+03  0.90327619790E+03  0.10498078666E+04  0.82225969178E+02 0.  0.
          5    1    3    3  501    0 -0.10712261866E+02  0.12099220647E+03  0.13875821853E+03  0.18447167748E+03  0.47000000000E+01 0. -1.
        -11    1    4    4    0    0 -0.36981448680E+02  0.69077870662E+02  0.22260005947E+02  0.81454819541E+02  0.00000000000E+00 0.  1.
         12    1    4    4    0    0 -0.24418490831E+03  0.38986603633E+03  0.34856914177E+03  0.57716743006E+03  0.00000000000E+00 0. -1.
         -5    1    5    5    0  502  0.75050960159E+01 -0.13433622959E+03  0.19660400170E+03  0.23828086900E+03  0.47000000000E+01 0.  1.
         13    1    6    6    0    0  0.15624801378E+03 -0.28279566320E+03  0.61642774225E+03  0.69596694630E+03  0.00000000000E+00 0. -1.
        -14    1    6    6    0    0  0.12812550906E+03 -0.16280422067E+03  0.28684845565E+03  0.35384092026E+03  0.00000000000E+00 0.  1.
</event>
<event>
12    1  0.9873238E-001  0.2064484E+03  0.7818608E-02  0.1144591E+00
         21   -1    0    0  501  502  0.00000000000E+00  0.00000000000E+00  0.61899430498E+03  0.61899430498E+03  0.00000000000E+00 0.  1.
         21   -1    0    0  502  503 -0.00000000000E+00 -0.00000000000E+00 -0.73302587471E+02  0.73302587471E+02  0.00000000000E+00 0.  1.
         -6    2    1    2    0  503 -0.11284094484E+03  0.16674386584E+02  0.36146236806E+03  0.41626433693E+03  0.17207510184E+03 0.  0.
        -24    2    3    3    0    0 -0.14656664558E+03  0.28471675052E+02  0.28764391461E+03  0.33411902072E+03  0.81265493998E+02 0.  0.
          6    2    1    2  501    0  0.11284094484E+03 -0.16674386584E+02  0.18422934945E+03  0.27603255552E+03  0.17100410670E+03 0.  0.
         24    2    5    5    0    0  0.20184938540E+01 -0.39920156765E+02  0.10738807160E+03  0.13910683312E+03  0.78872174212E+02 0.  0.
          5    1    5    5  501    0  0.11082245099E+03  0.23245770181E+02  0.76841277850E+02  0.13692572241E+03  0.47000000000E+01 0. -1.
        -11    1    6    6    0    0  0.16468744287E+01 -0.60407020953E+02  0.50874269852E+02  0.78993111780E+02  0.00000000000E+00 0.  1.
         12    1    6    6    0    0  0.37161942524E+00  0.20486864188E+02  0.56513801744E+02  0.60113721336E+02  0.00000000000E+00 0. -1.
         -5    1    3    3    0  503  0.33725700738E+02 -0.11797288468E+02  0.73818453455E+02  0.82145316214E+02  0.47000000000E+01 0.  1.
         13    1    4    4    0    0 -0.14781198339E+03  0.36972846511E+02  0.28766736048E+03  0.32552708658E+03  0.00000000000E+00 0. -1.
        -14    1    4    4    0    0  0.12453378051E+01 -0.85011714592E+01 -0.23445873889E-01  0.85919341324E+01  0.00000000000E+00 0.  1.
</event>
<event>
12    1  0.9873238E-001  0.2411416E+03  0.7818608E-02  0.1119252E+00
         21   -1    0    0  501  502  0.00000000000E+00  0.00000000000E+00  0.12334118809E+03  0.12334118809E+03  0.00000000000E+00 0. -1.
         21   -1    0    0  502  503 -0.00000000000E+00 -0.00000000000E+00 -0.47021857096E+03  0.47021857096E+03  0.00000000000E+00 0. -1.
         -6    2    1    2    0  503 -0.54505592914E+02  0.15858696998E+03 -0.15721410418E+03  0.28676757958E+03  0.17146044278E+03 0.  0.
        -24    2    3    3    0    0 -0.65445261787E+02  0.16161584410E+03 -0.76982902099E+02  0.20560116891E+03  0.77088975136E+02 0.  0.
          6    2    1    2  501    0  0.54505592914E+02 -0.15858696998E+03 -0.18966327869E+03  0.30679217947E+03  0.17328760890E+03 0.  0.
         24    2    5    5    0    0 -0.26210158562E+02 -0.73186735877E+02 -0.46965457750E+02  0.12187871155E+03  0.81273583569E+02 0.  0.
          5    1    5    5  501    0  0.80715751477E+02 -0.85400234101E+02 -0.14269782094E+03  0.18491346793E+03  0.47000000000E+01 0. -1.
        -11    1    6    6    0    0  0.70291802792E+00 -0.83064338573E+02 -0.40836587141E+02  0.92562439929E+02  0.00000000000E+00 0.  1.
         12    1    6    6    0    0 -0.26913076590E+02  0.98776026957E+01 -0.61288706090E+01  0.29316271617E+02  0.00000000000E+00 0. -1.
         -5    1    3    3    0  503  0.10939668872E+02 -0.30288741185E+01 -0.80231202085E+02  0.81166410672E+02  0.47000000000E+01 0.  1.
         13    1    4    4    0    0 -0.70771971086E+02  0.11439001879E+03 -0.82436285023E+02  0.15776403069E+03  0.00000000000E+00 0. -1.
        -14    1    4    4    0    0  0.53267092993E+01  0.47225825308E+02  0.54533829240E+01  0.47837138223E+02  0.00000000000E+00 0.  1.
</event>
<event>
12    1  0.9873238E-001  0.2234573E+03  0.7818608E-02  0.1133462E+00
         21   -1    0    0  501  502  0.00000000000E+00  0.00000000000E+00  0.18259342530E+04  0.18259342530E+04  0.00000000000E+00 0.  1.
         21   -1    0    0  502  503 -0.00000000000E+00 -0.00000000000E+00 -0.26091248641E+02  0.26091248641E+02  0.00000000000E+00 0.  1.
         -6    2    1    2    0  503  0.35930019458E+02  0.11854989471E+03  0.93805849577E+03  0.96174144624E+03  0.17218543516E+03 0.  0.
        -24    2    3    3    0    0 -0.69127267137E+01  0.24520849617E+02  0.68875160911E+03  0.69182854184E+03  0.59990785947E+02 0.  0.
          6    2    1    2  501    0 -0.35930019458E+02 -0.11854989471E+03  0.86178450859E+03  0.89028405541E+03  0.18597880588E+03 0.  0.
         24    2    5    5    0    0  0.54608256384E+02 -0.74187107827E+02  0.40931257354E+03  0.42669136968E+03  0.77736435923E+02 0.  0.
          5    1    5    5  501    0 -0.90538275842E+02 -0.44362786881E+02  0.45247193505E+03  0.46359268573E+03  0.47000000000E+01 0. -1.
        -13    1    6    6    0    0  0.93250484917E+01  0.11976355726E+02  0.13042383312E+03  0.13130409694E+03  0.00000000000E+00 0.  1.
         14    1    6    6    0    0  0.45283207893E+02 -0.86163463553E+02  0.27888874041E+03  0.29538727274E+03  0.00000000000E+00 0. -1.
         -5    1    3    3    0  503  0.42842746172E+02  0.94029045092E+02  0.24930688666E+03  0.26991290439E+03  0.47000000000E+01 0.  1.
         13    1    4    4    0    0 -0.34136524046E+01  0.43621172962E+02  0.54796439261E+03  0.54970850031E+03  0.00000000000E+00 0. -1.
        -14    1    4    4    0    0 -0.34990743091E+01 -0.19100323345E+02  0.14078721651E+03  0.14212004153E+03  0.00000000000E+00 0.  1.
</event>
<event>
12    1  0.9873238E-001  0.3620191E+03  0.7818608E-02  0.1057800E+00
         21   -1    0    0  501  502  0.00000000000E+00  0.00000000000E+00  0.20741355046E+03  0.20741355046E+03  0.00000000000E+00 0. -1.
         21   -1    0    0  502  503 -0.00000000000E+00 -0.00000000000E+00 -0.92810653916E+03  0.92810653916E+03  0.00000000000E+00 0.  1.
         -6    2    1    2    0  503  0.25045674396E+03 -0.19680291822E+03 -0.68118734726E+03  0.77135185576E+03  0.17177751335E+03 0.  0.
        -24    2    3    3    0    0  0.21332762966E+03 -0.21663933989E+03 -0.63391903463E+03  0.70788187756E+03  0.82475020111E+02 0.  0.
          6    2    1    2  501    0 -0.25045674396E+03  0.19680291822E+03 -0.39505641433E+02  0.36416823387E+03  0.17204022098E+03 0.  0.
         24    2    5    5    0    0 -0.23735971703E+03  0.20474735548E+03 -0.69151994375E+02  0.33046893951E+03  0.78527745484E+02 0.  0.
          5    1    5    5  501    0 -0.13097026935E+02 -0.79444372513E+01  0.29646352942E+02  0.33699294362E+02  0.47000000000E+01 0. -1.
        -13    1    6    6    0    0 -0.19571739881E+03  0.20123345524E+03 -0.67134569227E+02  0.28862996049E+03  0.00000000000E+00 0.  1.
         14    1    6    6    0    0 -0.41642318214E+02  0.35139002367E+01 -0.20174251476E+01  0.41838979019E+02  0.00000000000E+00 0. -1.
         -5    1    3    3    0  503  0.37129114304E+02  0.19836421668E+02 -0.47268312630E+02  0.63469978199E+02  0.47000000000E+01 0.  1.
         13    1    4    4    0    0  0.62012520350E+02 -0.11170569407E+03 -0.21187093094E+03  0.24741262325E+03  0.00000000000E+00 0. -1.
        -14    1    4    4    0    0  0.15131510931E+03 -0.10493364582E+03 -0.42204810369E+03  0.46046925430E+03  0.00000000000E+00 0.  1.
</event>
<event>
12    1  0.9873238E-001  0.2895986E+03  0.7818608E-02  0.1090927E+00
         21   -1    0    0  501  502  0.00000000000E+00  0.00000000000E+00  0.29942613575E+03  0.29942613575E+03  0.00000000000E+00 0. -1.
         21   -1    0    0  502  503 -0.00000000000E+00 -0.00000000000E+00 -0.34413759033E+03  0.34413759033E+03  0.00000000000E+00 0.  1.
         -6    2    1    2    0  503 -0.13101064550E+03  0.19265117778E+03 -0.16397990481E+03  0.33036682507E+03  0.16725598462E+03 0.  0.
        -24    2    3    3    0    0 -0.15809199762E+03  0.13624061284E+03 -0.13698677655E+03  0.26205672009E+03  0.79710496762E+02 0.  0.
          6    2    1    2  501    0  0.13101064550E+03 -0.19265117778E+03  0.11926845023E+03  0.31319690101E+03  0.17201473787E+03 0.  0.
         24    2    5    5    0    0  0.57993292645E+02 -0.88186709869E+02  0.12998378138E+03  0.18520757646E+03  0.79157723367E+02 0.  0.
          5    1    5    5  501    0  0.73017352859E+02 -0.10446446791E+03 -0.10715331152E+02  0.12798932454E+03  0.47000000000E+01 0. -1.
        -11    1    6    6    0    0  0.76625685110E+02 -0.76020972700E+02  0.11804751189E+03  0.15995592822E+03  0.00000000000E+00 0.  1.
         12    1    6    6    0    0 -0.18632392465E+02 -0.12165737168E+02  0.11936269494E+02  0.25251648249E+02  0.00000000000E+00 0. -1.
         -5    1    3    3    0  503  0.27081352119E+02  0.56410564942E+02 -0.26993128255E+02  0.68310104982E+02  0.47000000000E+01 0.  1.
         11    1    4    4    0    0 -0.44705958993E+02  0.51059523331E+00 -0.41819344157E+02  0.61218796318E+02  0.00000000000E+00 0. -1.
        -12    1    4    4    0    0 -0.11338603863E+03  0.13573001761E+03 -0.95167432397E+02  0.20083792377E+03  0.00000000000E+00 0.  1.
</event>
<event>
12    1  0.9873238E-001  0.2555837E+03  0.7818608E-02  0.1110350E+00
         21   -1    0    0  503  502  0.00000000000E+00  0.00000000000E+00  0.70860626364E+02  0.70860626364E+02  0.00000000000E+00 0. -1.
         21   -1    0    0  501  503 -0.00000000000E+00 -0.00000000000E+00 -0.92720391446E+03  0.92720391446E+03  0.00000000000E+00 0. -1.
          6    2    1    2  501    0 -0.18388152452E+03  0.46621730503E+02 -0.49961690231E+03  0.56119524242E+03  0.17128061834E+03 0.  0.
         24    2    3    3    0    0 -0.20465680839E+03  0.34628672918E+02 -0.48263904822E+03  0.53143312926E+03  0.79982284308E+02 0.  0.
         -6    2    1    2    0  502  0.18388152452E+03 -0.46621730503E+02 -0.35672638578E+03  0.43686929840E+03  0.16617782271E+03 0.  0.
        -24    2    5    5    0    0  0.12285874610E+03 -0.88191595960E+02 -0.29497901376E+03  0.34050197431E+03  0.77826389237E+02 0.  0.
          5    1    3    3  501    0  0.20775283863E+02  0.11993057585E+02 -0.16977854091E+02  0.29762113154E+02  0.47000000000E+01 0. -1.
        -11    1    4    4    0    0 -0.11471673011E+03  0.58323425478E+02 -0.25849661956E+03  0.28875950625E+03  0.00000000000E+00 0.  1.
         12    1    4    4    0    0 -0.89940078282E+02 -0.23694752560E+02 -0.22414242866E+03  0.24267362302E+03  0.00000000000E+00 0. -1.
         -5    1    5    5    0  502  0.61022778428E+02  0.41569865457E+02 -0.61747372024E+02  0.96367324094E+02  0.47000000000E+01 0.  1.
         11    1    6    6    0    0  0.44112724306E+01  0.11419925433E+01  0.44281453317E+01  0.63538919180E+01  0.00000000000E+00 0. -1.
        -12    1    6    6    0    0  0.11844747367E+03 -0.89333588503E+02 -0.29940715909E+03  0.33414808239E+03  0.00000000000E+00 0.  1.
</event>
<event>
12    1  0.9873238E-001  0.3330141E+03  0.7818608E-02  0.1070998E+00
         21   -1    0    0  503  502  0.00000000000E+00  0.00000000000E+00  0.79789995326E+03  0.79789995326E+03  0.00000000000E+00 0.  1.
         21   -1    0    0  501  503 -0.00000000000E+00 -0.00000000000E+00 -0.48653356279E+03  0.48653356279E+03  0.00000000000E+00 0. -1.
          6    2    1    2  501    0  0.21522962396E+03  0.18697313251E+03  0.70259375022E+03  0.77751938857E+03  0.17209206385E+03 0.  0.
         24    2    3    3    0    0  0.20647745874E+03  0.19874961159E+03  0.55957755792E+03  0.63367569870E+03  0.79268522895E+02 0.  0.
         -6    2    1    2    0  502 -0.21522962396E+03 -0.18697313251E+03 -0.39122735975E+03  0.50691412748E+03  0.15040060607E+03 0.  0.
        -24    2    5    5    0    0 -0.13462986995E+03 -0.15442419758E+03 -0.20316222256E+03  0.29967914168E+03  0.80997929611E+02 0.  0.
          5    1    3    3  501    0  0.87521652277E+01 -0.11776479077E+02  0.14301619230E+03  0.14384368987E+03  0.47000000000E+01 0. -1.
        -11    1    4    4    0    0  0.38538647145E+02  0.72327542918E+02  0.10803356027E+03  0.13560144149E+03  0.00000000000E+00 0.  1.
         12    1    4    4    0    0  0.16793881159E+03  0.12642206867E+03  0.45154399766E+03  0.49807425722E+03  0.00000000000E+00 0. -1.
         -5    1    5    5    0  502 -0.80599754012E+02 -0.32548934935E+02 -0.18806513719E+03  0.20723498580E+03  0.47000000000E+01 0.  1.
         11    1    6    6    0    0 -0.26236918344E+02 -0.51326085613E+02 -0.10789030917E+03  0.12232359446E+03  0.00000000000E+00 0. -1.
        -12    1    6    6    0    0 -0.10839295161E+03 -0.10309811196E+03 -0.95271913390E+02  0.17735554722E+03  0.00000000000E+00 0.  1.
</event>
<event>
12    1  0.9873238E-001  0.1739715E+03  0.7818608E-02  0.1174260E+00
         21   -1    0    0  503  502  0.00000000000E+00  0.00000000000E+00  0.13343983760E+03  0.13343983760E+03  0.00000000000E+00 0.  1.
         21   -1    0    0  501  503 -0.00000000000E+00 -0.00000000000E+00 -0.38710153196E+03  0.38710153196E+03  0.00000000000E+00 0.  1.
          6    2    1    2  501    0  0.11208275152E+02  0.14481694351E+02 -0.29602569390E+03  0.34336175917E+03  0.17300503261E+03 0.  0.
         24    2    3    3    0    0 -0.60394565177E+02  0.52325086905E+01 -0.14720644067E+03  0.17788736747E+03  0.79368108697E+02 0.  0.
         -6    2    1    2    0  502 -0.11208275152E+02 -0.14481694351E+02  0.42363999535E+02  0.17717961039E+03  0.17106303218E+03 0.  0.
        -24    2    5    5    0    0 -0.16044699046E+00  0.12983404172E+02  0.86151005875E+02  0.12411570488E+03  0.88397499153E+02 0.  0.
          5    1    3    3  501    0  0.71602840330E+02  0.92491856609E+01 -0.14881925323E+03  0.16547439170E+03  0.47000000000E+01 0. -1.
        -13    1    4    4    0    0 -0.17176079562E+02 -0.34674754698E+02 -0.77903408543E+02  0.86984466343E+02  0.00000000000E+00 0.  1.
         14    1    4    4    0    0 -0.43218485615E+02  0.39907263388E+02 -0.69303032132E+02  0.90902901124E+02  0.00000000000E+00 0. -1.
         -5    1    5    5    0  502 -0.11047828162E+02 -0.27465098524E+02 -0.43787006341E+02  0.53063905513E+02  0.47000000000E+01 0.  1.
         11    1    6    6    0    0  0.71100653041E+01 -0.84206689368E+01  0.97983224369E+02  0.98601079871E+02  0.00000000000E+00 0. -1.
        -12    1    6    6    0    0 -0.72705122946E+01  0.21404073109E+02 -0.11832218494E+02  0.25514625005E+02  0.00000000000E+00 0.  1.
</event>
<event>
12    1  0.9873238E-001  0.5717227E+03  0.7818608E-02  0.9966317E-01
         21   -1    0    0  503  502  0.00000000000E+00  0.00000000000E+00  0.47165073767E+03  0.47165073767E+03  0.00000000000E+00 0. -1.
         21   -1    0    0  501  503 -0.00000000000E+00 -0.00000000000E+00 -0.71212177965E+03  0.71212177965E+03  0.00000000000E+00 0.  1.
          6    2    1    2  501    0 -0.44557292976E+02 -0.54326042044E+03 -0.21951218339E+03  0.61166576045E+03  0.16980037419E+03 0.  0.
         24    2    3    3    0    0  0.31742897614E+02 -0.23142446809E+03 -0.64326888356E+02  0.25505961067E+03  0.79702951340E+02 0.  0.
         -6    2    1    2    0  502  0.44557292976E+02  0.54326042044E+03 -0.20958858591E+02  0.57210675687E+03  0.17248081265E+03 0.  0.
        -24    2    5    5    0    0 -0.37537038803E+02  0.19424163517E+03 -0.19323832713E+02  0.21352851563E+03  0.77988296315E+02 0.  0.
          5    1    3    3  501    0 -0.76300190590E+02 -0.31183595235E+03 -0.15518529503E+03  0.35660614978E+03  0.47000000000E+01 0. -1.
        -11    1    4    4    0    0  0.54103066388E+02 -0.10553677606E+03 -0.37838396626E+02  0.12448653402E+03  0.00000000000E+00 0.  1.
         12    1    4    4    0    0 -0.22360168774E+02 -0.12588769203E+03 -0.26488491730E+02  0.13057307665E+03  0.00000000000E+00 0. -1.
         -5    1    5    5    0  502  0.82094331779E+02  0.34901878527E+03 -0.16350258773E+01  0.35857824125E+03  0.47000000000E+01 0.  1.
         13    1    6    6    0    0 -0.33361316778E+02  0.24984638943E+02 -0.14570699927E+02  0.44153311729E+02  0.00000000000E+00 0. -1.
        -14    1    6    6    0    0 -0.41757220249E+01  0.16925699622E+03 -0.47531327861E+01  0.16937520390E+03  0.00000000000E+00 0.  1.
</event>
<event>
12    1  0.9873238E-001  0.7426101E+03  0.7818608E-02  0.9647138E-01
         21   -1    0    0  503  502  0.00000000000E+00  0.00000000000E+00  0.15168583934E+04  0.15168583934E+04  0.00000000000E+00 0.  1.
         21   -1    0    0  501  503 -0.00000000000E+00 -0.00000000000E+00 -0.40885772790E+03  0.40885772790E+03  0.00000000000E+00 0.  1.
          6    2    1    2  501    0 -0.51337217767E+03 -0.50769710032E+03  0.23287876236E+03  0.77797570436E+03  0.17235527301E+03 0.  0.
         24    2    3    3    0    0 -0.28128251047E+03 -0.21747457708E+03  0.61161949336E+02  0.36858166374E+03  0.75475932772E+02 0.  0.
         -6    2    1    2    0  502  0.51337217767E+03  0.50769710032E+03  0.87512190317E+03  0.11477404170E+04  0.17367320136E+03 0.  0.
        -24    2    5    5    0    0  0.40804642836E+03  0.46890167135E+03  0.69818465925E+03  0.93815158839E+03  0.79346829272E+02 0.  0.
          5    1    3    3  501    0 -0.23208966720E+03 -0.29022252324E+03  0.17171681303E+03  0.40939404061E+03  0.47000000000E+01 0. -1.
        -13    1    4    4    0    0 -0.21270670429E+02 -0.71536400167E+00 -0.86015849735E+01  0.22955183079E+02  0.00000000000E+00 0.  1.
         14    1    4    4    0    0 -0.26001184004E+03 -0.21675921308E+03  0.69763534310E+02  0.34562648066E+03  0.00000000000E+00 0. -1.
         -5    1    5    5    0  502  0.10532574931E+03  0.38795428970E+02  0.17693724392E+03  0.20958882858E+03  0.47000000000E+01 0.  1.
         13    1    6    6    0    0  0.33561432449E+03  0.35454164520E+03  0.58298538687E+03  0.76040036447E+03  0.00000000000E+00 0. -1.
        -14    1    6    6    0    0  0.72432103869E+02  0.11436002614E+03  0.11519927238E+03  0.17775122392E+03  0.00000000000E+00 0.  1.
</event>
<event>
12    1  0.9873238E-001  0.1881061E+03  0.7818608E-02  0.1160345E+00
         21   -1    0    0  503  502  0.00000000000E+00  0.00000000000E+00  0.70904152349E+03  0.70904152349E+03  0.00000000000E+00 0.  1.
         21   -1    0    0  501  503 -0.00000000000E+00 -0.00000000000E+00 -0.51249301752E+02  0.51249301752E+02  0.00000000000E+00 0.  1.
          6    2    1    2  501    0  0.29450722055E+02  0.68861070941E+02  0.39408836170E+03  0.43637165099E+03  0.17177132717E+03 0.  0.
         24    2    3    3    0    0 -0.37684108449E+02  0.74790066023E+02  0.23651596464E+03  0.26492664883E+03  0.85045174622E+02 0.  0.
         -6    2    1    2    0  502 -0.29450722055E+02 -0.68861070941E+02  0.26370386004E+03  0.32391917425E+03  0.17255350918E+03 0.  0.
        -24    2    5    5    0    0 -0.67224635883E+02 -0.44107835090E+01  0.10217413672E+03  0.14588926207E+03  0.79407278587E+02 0.  0.
          5    1    3    3  501    0  0.67134830505E+02 -0.59289950817E+01  0.15757239706E+03  0.17144500215E+03  0.47000000000E+01 0. -1.
        -11    1    4    4    0    0  0.10599859887E+02  0.13761639369E+00  0.10878566475E+03  0.10930094613E+03  0.00000000000E+00 0.  1.
         12    1    4    4    0    0 -0.48283968337E+02  0.74652449629E+02  0.12773029989E+03  0.15562570271E+03  0.00000000000E+00 0. -1.
         -5    1    5    5    0  502  0.37773913827E+02 -0.64450287432E+02  0.16152972332E+03  0.17802991218E+03  0.47000000000E+01 0.  1.
         13    1    6    6    0    0 -0.23132874698E+02 -0.17258514559E+02  0.95148544766E+02  0.99429531769E+02  0.00000000000E+00 0. -1.
        -14    1    6    6    0    0 -0.44091761184E+02  0.12847731050E+02  0.70255919530E+01  0.46459730302E+02  0.00000000000E+00 0.  1.
</event>
<event>
12    1  0.9873238E-001  0.1834411E+03  0.7818608E-02  0.1164619E+00
         21   -1    0    0  501  502  0.00000000000E+00  0.00000000000E+00  0.30938082121E+03  0.30938082121E+03  0.00000000000E+00 0. -1.
         21   -1    0    0  502  503 -0.00000000000E+00 -0.00000000000E+00 -0.11112745917E+03  0.11112745917E+03  0.00000000000E+00 0. -1.
         -6    2    1    2    0  503 -0.78340295170E+01  0.63555486960E+02  0.13131847056E+03  0.22523687023E+03  0.17142472126E+03 0.  0.
        -24    2    3    3    0    0 -0.63310367927E+02  0.30726222516E+02  0.33512966396E+02  0.10800465890E+03  0.74763520453E+02 0.  0.
          6    2    1    2  501    0  0.78340295170E+01 -0.63555486960E+02  0.66934891480E+02  0.19527141015E+03  0.17190105289E+03 0.  0.
         24    2    5    5    0    0 -0.27896753750E+02  0.24694293783E+02  0.29078657302E+02  0.92704860341E+02  0.79753280842E+02 0.  0.
          5    1    5    5  501    0  0.35730783267E+02 -0.88249780742E+02  0.37856234179E+02  0.10256654981E+03  0.47000000000E+01 0. -1.
        -11    1    6    6    0    0  0.83208030757E+01  0.37022685997E+02 -0.87072775881E+01  0.38932399429E+02  0.00000000000E+00 0.  1.
         12    1    6    6    0    0 -0.36217556826E+02 -0.12328392215E+02  0.37785934890E+02  0.53772460912E+02  0.00000000000E+00 0. -1.
         -5    1    3    3    0  503  0.55476338410E+02  0.32829264444E+02  0.97805504167E+02  0.11723221133E+03  0.47000000000E+01 0.  1.
         13    1    4    4    0    0 -0.47268744939E+02  0.63070947055E+01  0.54209790071E+02  0.72199827086E+02  0.00000000000E+00 0. -1.
        -14    1    4    4    0    0 -0.16041622988E+02  0.24419127810E+02 -0.20696823674E+02  0.35804831815E+02  0.00000000000E+00 0.  1.
</event>
<event>
12    1  0.9873238E-001  0.2202676E+03  0.7818608E-02  0.1134149E+00
         21   -1    0    0  501  502  0.00000000000E+00  0.00000000000E+00  0.39135035720E+02  0.39135035720E+02  0.00000000000E+00 0. -1.
         21   -1    0    0  502  503 -0.00000000000E+00 -0.00000000000E+00 -0.14309874818E+04  0.14309874818E+04  0.00000000000E+00 0. -1.
         -6    2    1    2    0  503 -0.12718434795E+03 -0.47549931245E+02 -0.41420005557E+03  0.46796385012E+03  0.17026927105E+03 0.  0.
        -24    2    3    3    0    0 -0.26053741488E+02 -0.16588216633E+02 -0.31951930611E+03  0.32593370665E+03  0.56446680875E+02 0.  0.
          6    2    1    2  501    0  0.12718434795E+03  0.47549931245E+02 -0.97765239052E+03  0.10021586674E+04  0.17343858753E+03 0.  0.
         24    2    5    5    0    0  0.12527530937E+03 -0.16338470973E+02 -0.79005513139E+03  0.80391590209E+03  0.78312312124E+02 0.  0.
          5    1    5    5  501    0  0.19090385777E+01  0.63888402219E+02 -0.18759725913E+03  0.19824276532E+03  0.47000000000E+01 0. -1.
        -11    1    6    6    0    0  0.37956111052E+02  0.30835384942E+02 -0.29233367958E+03  0.29639579543E+03  0.00000000000E+00 0.  1.
         12    1    6    6    0    0  0.87319198319E+02 -0.47173855915E+02 -0.49772145181E+03  0.50752010666E+03  0.00000000000E+00 0. -1.
         -5    1    3    3    0  503 -0.10113060646E+03 -0.30961714613E+02 -0.94680749463E+02  0.14203014347E+03  0.47000000000E+01 0.  1.
         13    1    4    4    0    0  0.13066578524E+02  0.10228897520E+02 -0.97843422871E+02  0.99240622821E+02  0.00000000000E+00 0. -1.
        -14    1    4    4    0    0 -0.39120320013E+02 -0.26817114153E+02 -0.22167588323E+03  0.22669308383E+03  0.00000000000E+00 0.  1.
</event>
<event>
12    1  0.9873238E-001  0.2152633E+03  0.7818608E-02  0.1137623E+00
         21   -1    0    0  503  502  0.00000000000E+00  0.00000000000E+00  0.22673007205E+03  0.22673007205E+03  0.00000000000E+00 0. -1.
         21   -1    0    0  501  503 -0.00000000000E+00 -0.00000000000E+00 -0.20824072750E+03  0.20824072750E+03  0.00000000000E+00 0. -1.
          6    2    1    2  501    0 -0.10922888166E+03 -0.66325657005E+02  0.41720194238E+02  0.21845756241E+03  0.17220072764E+03 0.  0.
         24    2    3    3    0    0 -0.12458044394E+03 -0.71415253695E+02 -0.10141192774E+02  0.16392988209E+03  0.78420258714E+02 0.  0.
         -6    2    1    2    0  502  0.10922888166E+03  0.66325657005E+02 -0.23230849687E+02  0.21651323714E+03  0.17322894710E+03 0.  0.
        -24    2    5    5    0    0  0.68510196175E+02  0.96216410193E+02  0.26093488170E+02  0.14575697396E+03  0.81320235880E+02 0.  0.
          5    1    3    3  501    0  0.15351562279E+02  0.50895966901E+01  0.51861387012E+02  0.54527680326E+02  0.47000000000E+01 0. -1.
        -13    1    4    4    0    0 -0.56048951440E+02 -0.55493307670E+02  0.28250598998E+02  0.83780000582E+02  0.00000000000E+00 0.  1.
         14    1    4    4    0    0 -0.68531492502E+02 -0.15921946024E+02 -0.38391791772E+02  0.80149881504E+02  0.00000000000E+00 0. -1.
         -5    1    5    5    0  502  0.40718685488E+02 -0.29890753188E+02 -0.49324337857E+02  0.70756263179E+02  0.47000000000E+01 0.  1.
         11    1    6    6    0    0  0.53200947829E+02  0.11054248144E+02  0.23471661651E+02  0.59190000445E+02  0.00000000000E+00 0. -1.
        -12    1    6    6    0    0  0.15309248345E+02  0.85162162049E+02  0.26218265190E+01  0.86566973518E+02  0.00000000000E+00 0.  1.
</event>
<event>
12    1  0.9873238E-001  0.1917883E+03  0.7818608E-02  0.1157125E+00
         21   -1    0    0  501  502  0.00000000000E+00  0.00000000000E+00  0.35076564579E+02  0.35076564579E+02  0.00000000000E+00 0.  1.
         21   -1    0    0  502  503 -0.00000000000E+00 -0.00000000000E+00 -0.10429790661E+04  0.10429790661E+04  0.00000000000E+00 0. -1.
         -6    2    1    2    0  503  0.83501178512E+02  0.66938753244E+01 -0.49009149120E+03  0.52628167701E+03  0.17252674875E+03 0.  0.
        -24    2    3    3    0    0 -0.61379918500E+00 -0.55841694805E+02 -0.28299698159E+03  0.29412601175E+03  0.57481715095E+02 0.  0.
          6    2    1    2  501    0 -0.83501178512E+02 -0.66938753244E+01 -0.51781101032E+03  0.55177395367E+03  0.17119871130E+03 0.  0.
         24    2    5    5    0    0 -0.61002417769E+02 -0.54653983357E+02 -0.45638239502E+03  0.47052168615E+03  0.79983834544E+02 0.  0.
          5    1    5    5  501    0 -0.22498760744E+02  0.47960108033E+02 -0.61428615307E+02  0.81252267513E+02  0.47000000000E+01 0. -1.
        -13    1    6    6    0    0 -0.19462421289E+02  0.11970765426E+02 -0.34398205216E+02  0.41295539582E+02  0.00000000000E+00 0.  1.
         14    1    6    6    0    0 -0.41539996480E+02 -0.66624748783E+02 -0.42198418980E+03  0.42922614657E+03  0.00000000000E+00 0. -1.
         -5    1    3    3    0  503  0.84114977697E+02  0.62535570130E+02 -0.20709450960E+03  0.23215566526E+03  0.47000000000E+01 0.  1.
         13    1    4    4    0    0  0.13819737895E+02 -0.55888972472E+02 -0.26434403253E+03  0.27054081011E+03  0.00000000000E+00 0. -1.
        -14    1    4    4    0    0 -0.14433537080E+02  0.47277666806E-01 -0.18652949058E+02  0.23585201639E+02  0.00000000000E+00 0.  1.
</event>
<event>
12    1  0.9873238E-001  0.1918658E+03  0.7818608E-02  0.1157049E+00
         21   -1    0    0  503  502  0.00000000000E+00  0.00000000000E+00  0.53258038664E+02  0.53258038664E+02  0.00000000000E+00 0.  1.
         21   -1    0    0  501  503 -0.00000000000E+00 -0.00000000000E+00 -0.82914129024E+03  0.82914129024E+03  0.00000000000E+00 0.  1.
          6    2    1    2  501    0  0.58078413686E+02  0.61155598763E+02 -0.20626340153E+03  0.28170385294E+03  0.17233502417E+03 0.  0.
         24    2    3    3    0    0  0.65210759403E+02  0.98053235464E+02 -0.19976326558E+03  0.24327667874E+03  0.73561538995E+02 0.  0.
         -6    2    1    2    0  502 -0.58078413686E+02 -0.61155598763E+02 -0.56961985005E+03  0.60069547596E+03  0.17104143321E+03 0.  0.
        -24    2    5    5    0    0 -0.96725169274E+01  0.22686269468E+02 -0.36617704152E+03  0.37534318276E+03  0.78668003029E+02 0.  0.
          5    1    3    3  501    0 -0.71323457170E+01 -0.36897636701E+02 -0.65001359488E+01  0.38427174199E+02  0.47000000000E+01 0. -1.
        -13    1    4    4    0    0 -0.59828165317E+00 -0.11240517488E+02 -0.15330431413E+02  0.19019182465E+02  0.00000000000E+00 0.  1.
         14    1    4    4    0    0  0.65809041056E+02  0.10929375295E+03 -0.18443283416E+03  0.22425749628E+03  0.00000000000E+00 0. -1.
         -5    1    5    5    0  502 -0.48405896758E+02 -0.83841868231E+02 -0.20344280852E+03  0.22535229320E+03  0.47000000000E+01 0.  1.
         13    1    6    6    0    0  0.22304432768E+02  0.39629571829E+02 -0.17793305237E+03  0.18365228506E+03  0.00000000000E+00 0. -1.
        -14    1    6    6    0    0 -0.31976949695E+02 -0.16943302361E+02 -0.18824398916E+03  0.19169089770E+03  0.00000000000E+00 0.  1.
</event>
<event>
12    1  0.9873238E-001  0.2592109E+03  0.7818608E-02  0.1107692E+00
         21   -1    0    0  501  502  0.00000000000E+00  0.00000000000E+00  0.27234198481E+03  0.27234198481E+03  0.00000000000E+00 0.  1.
         21   -1    0    0  502  503 -0.00000000000E+00 -0.00000000000E+00 -0.24661528239E+03  0.24661528239E+03  0.00000000000E+00 0.  1.
         -6    2    1    2    0  503 -0.77841206891E+02  0.17743002389E+03  0.22868620638E+02  0.25973060279E+03  0.17145362448E+03 0.  0.
        -24    2    3    3    0    0 -0.65816389169E+02  0.26034502367E+02  0.15926864080E+02  0.10762709144E+03  0.79500524630E+02 0.  0.
          6    2    1    2  501    0  0.77841206891E+02 -0.17743002389E+03  0.28580817885E+01  0.25922666441E+03  0.17219067351E+03 0.  0.
         24    2    5    5    0    0  0.64042383234E+02 -0.64354358347E+02  0.55754788307E+02  0.13354187920E+03  0.80510414192E+02 0.  0.
          5    1    5    5  501    0  0.13798823658E+02 -0.11307566555E+03 -0.52896706518E+02  0.12568478521E+03  0.47000000000E+01 0. -1.
        -11    1    6    6    0    0  0.20408438843E+02 -0.56578405811E+02 -0.26726327317E+01  0.60206007556E+02  0.00000000000E+00 0.  1.
         12    1    6    6    0    0  0.43633944391E+02 -0.77759525357E+01  0.58427421038E+02  0.73335871647E+02  0.00000000000E+00 0. -1.
         -5    1    3    3    0  503 -0.12024817722E+02  0.15139552153E+03  0.69417565571E+01  0.15210351134E+03  0.47000000000E+01 0.  1.
         11    1    4    4    0    0 -0.51188950066E+02  0.22538154925E+02 -0.27025332547E+02  0.62117997678E+02  0.00000000000E+00 0. -1.
        -12    1    4    4    0    0 -0.14627439103E+02  0.34963474424E+01  0.42952196628E+02  0.45509093765E+02  0.00000000000E+00 0.  1.
</event>
<event>
12    1  0.9873238E-001  0.2530124E+03  0.7818608E-02  0.1112038E+00
         21   -1    0    0  501  502  0.00000000000E+00  0.00000000000E+00  0.86982252619E+03  0.86982252619E+03  0.00000000000E+00 0.  1.
         21   -1    0    0  502  503 -0.00000000000E+00 -0.00000000000E+00 -0.85893640105E+02  0.85893640105E+02  0.00000000000E+00 0.  1.
         -6    2    1    2    0  503  0.12412659529E+02  0.18174361795E+03  0.58363934117E+03  0.63612119011E+03  0.17558607909E+03 0.  0.
        -24    2    3    3    0    0 -0.11943497990E+02  0.17889469405E+03  0.57795980381E+03  0.61051482526E+03  0.80900298739E+02 0.  0.
          6    2    1    2  501    0 -0.12412659529E+02 -0.18174361795E+03  0.20028954491E+03  0.31959497618E+03  0.16982411553E+03 0.  0.
         24    2    5    5    0    0 -0.33164500770E+02 -0.81265279231E+02  0.34794207615E+02  0.12481989529E+03  0.81642143881E+02 0.  0.
          5    1    5    5  501    0  0.20751841242E+02 -0.10047833872E+03  0.16549533730E+03  0.19477508089E+03  0.47000000000E+01 0. -1.
        -11    1    6    6    0    0  0.61113240299E+01 -0.18174845680E+02 -0.23526943445E+02  0.30351118015E+02  0.00000000000E+00 0.  1.
         12    1    6    6    0    0 -0.39275824800E+02 -0.63090433550E+02  0.58321151060E+02  0.94468777277E+02  0.00000000000E+00 0. -1.
         -5    1    3    3    0  503  0.24356157519E+02  0.28489238946E+01  0.56795373589E+01  0.25606364854E+02  0.47000000000E+01 0.  1.
         11    1    4    4    0    0 -0.30220654960E+02  0.22624971610E+02  0.83757423924E+02  0.91872103431E+02  0.00000000000E+00 0. -1.
        -12    1    4    4    0    0  0.18277156969E+02  0.15626972244E+03  0.49420237989E+03  0.51864272183E+03  0.00000000000E+00 0.  1.
</event>
<event>
12    1  0.9873238E-001  0.1829120E+03  0.7818608E-02  0.1165176E+00
         21   -1    0    0  503  502  0.00000000000E+00  0.00000000000E+00  0.16716368379E+03  0.16716368379E+03  0.00000000000E+00 0. -1.
         21   -1    0    0  501  503 -0.00000000000E+00 -0.00000000000E+00 -0.20046182552E+03  0.20046182552E+03  0.00000000000E+00 0. -1.
          6    2    1    2  501    0 -0.35548290431E+02 -0.48835633689E+02 -0.33054818915E+01  0.18294190438E+03  0.17265055487E+03 0.  0.
         24    2    3    3    0    0  0.42213263440E+02 -0.26278855680E+02 -0.29776596021E+02  0.97627911517E+02  0.78562240106E+02 0.  0.
         -6    2    1    2    0  502  0.35548290431E+02  0.48835633689E+02 -0.29992659832E+02  0.18468360493E+03  0.17192985260E+03 0.  0.
        -24    2    5    5    0    0  0.67810751356E+02  0.50846364371E+01  0.22811793073E+02  0.10875326586E+03  0.81748048318E+02 0.  0.
          5    1    3    3  501    0 -0.77761553871E+02 -0.22556778009E+02  0.26471114129E+02  0.85313992861E+02  0.47000000000E+01 0. -1.
        -13    1    4    4    0    0  0.71766667111E+00 -0.10038471534E+02  0.25038638817E+02  0.26985540388E+02  0.00000000000E+00 0.  1.
         14    1    4    4    0    0  0.41495596769E+02 -0.16240384146E+02 -0.54815234838E+02  0.70642371129E+02  0.00000000000E+00 0. -1.
         -5    1    5    5    0  502 -0.32262460925E+02  0.43750997252E+02 -0.52804452905E+02  0.75930339075E+02  0.47000000000E+01 0.  1.
         13    1    6    6    0    0 -0.15657783009E+02 -0.37678164414E+01 -0.96311397144E+01  0.18764899725E+02  0.00000000000E+00 0. -1.
        -14    1    6    6    0    0  0.83468534365E+02  0.88524528785E+01  0.32442932787E+02  0.89988366131E+02  0.00000000000E+00 0.  1.
</event>
<event>
12    1  0.9873238E-001  0.4267192E+03  0.7818608E-02  0.1035049E+00
         21   -1    0    0  503  502  0.00000000000E+00  0.00000000000E+00  0.30747577426E+03  0.30747577426E+03  0.00000000000E+00 0. -1.
         21   -1    0    0  501  503 -0.00000000000E+00 -0.00000000000E+00 -0.59364474908E+03  0.59364474908E+03  0.00000000000E+00 0. -1.
          6    2    1    2  501    0 -0.10355577957E+03 -0.37673856516E+03 -0.10578979533E+03  0.43784314829E+03  0.16691134097E+03 0.  0.
         24    2    3    3    0    0  0.36194820711E+01 -0.23181562132E+03 -0.54234269978E+02  0.25030846202E+03  0.77210019948E+02 0.  0.
         -6    2    1    2    0  502  0.10355577957E+03  0.37673856516E+03 -0.18037917949E+03  0.46327737505E+03  0.17156203508E+03 0.  0.
        -24    2    5    5    0    0  0.13784865461E+03  0.27823584361E+03 -0.15089191952E+03  0.35478601165E+03  0.81775952704E+02 0.  0.
          5    1    3    3  501    0 -0.10717526164E+03 -0.14492294384E+03 -0.51555525355E+02  0.18753468627E+03  0.47000000000E+01 0. -1.
        -13    1    4    4    0    0 -0.11737797777E+02 -0.22826221087E+03 -0.49679032399E+02  0.23390044692E+03  0.00000000000E+00 0.  1.
         14    1    4    4    0    0  0.15357279848E+02 -0.35534104482E+01 -0.45552375782E+01  0.16408015101E+02  0.00000000000E+00 0. -1.
         -5    1    5    5    0  502 -0.34292875044E+02  0.98502721556E+02 -0.29487259968E+02  0.10849136340E+03  0.47000000000E+01 0.  1.
         11    1    6    6    0    0  0.47030169885E+02  0.65624088418E+02 -0.78280499275E+02  0.11245529968E+03  0.00000000000E+00 0. -1.
        -12    1    6    6    0    0  0.90818484727E+02  0.21261175519E+03 -0.72611420244E+02  0.24233071197E+03  0.00000000000E+00 0.  1.
</event>
<event>
12    1  0.9873238E-001  0.4076012E+03  0.7818608E-02  0.1041199E+00
         21   -1    0    0  501  502  0.00000000000E+00  0.00000000000E+00  0.53416643084E+03  0.53416643084E+03  0.00000000000E+00 0. -1.
         21   -1    0    0  502  503 -0.00000000000E+00 -0.00000000000E+00 -0.35850197682E+03  0.35850197682E+03  0.00000000000E+00 0. -1.
         -6    2    1    2    0  503 -0.21321458058E+03  0.30171693455E+03  0.25054104111E+03  0.47824681090E+03  0.17162643411E+03 0.  0.
        -24    2    3    3    0    0 -0.13909347921E+03  0.12192655109E+03  0.72623574990E+02  0.21462732299E+03  0.81102554278E+02 0.  0.
          6    2    1    2  501    0  0.21321458058E+03 -0.30171693455E+03 -0.74876587088E+02  0.41442159677E+03  0.17217778780E+03 0.  0.
         24    2    5    5    0    0  0.23047161905E+03 -0.24019922011E+03 -0.76718770206E+02  0.35033011368E+03  0.77669725897E+02 0.  0.
          5    1    5    5  501    0 -0.17257038464E+02 -0.61517714441E+02  0.18421831177E+01  0.64091483094E+02  0.47000000000E+01 0. -1.
        -13    1    6    6    0    0  0.93154080392E+02 -0.13465245574E+03 -0.77778427762E+01  0.16391906957E+03  0.00000000000E+00 0.  1.
         14    1    6    6    0    0  0.13731753866E+03 -0.10554676437E+03 -0.68940927430E+02  0.18641104411E+03  0.00000000000E+00 0. -1.
         -5    1    3    3    0  503 -0.74121101375E+02  0.17979038346E+03  0.17791746612E+03  0.26361948791E+03  0.47000000000E+01 0.  1.
         11    1    4    4    0    0 -0.95418536523E+02  0.66578357822E+02  0.83604196717E+02  0.14327259525E+03  0.00000000000E+00 0. -1.
        -12    1    4    4    0    0 -0.43674942686E+02  0.55348193266E+02 -0.10980621727E+02  0.71354727734E+02  0.00000000000E+00 0.  1.
</event>
<event>
12    1  0.9873238E-001  0.1816612E+03  0.7818608E-02  0.1167694E+00
         21   -1    0    0  501  502  0.00000000000E+00  0.00000000000E+00  0.10969447282E+03  0.10969447282E+03  0.00000000000E+00 0. -1.
         21   -1    0    0  502  503 -0.00000000000E+00 -0.00000000000E+00 -0.52966440752E+03  0.52966440752E+03  0.00000000000E+00 0. -1.
         -6    2    1    2    0  503  0.33356532077E+02  0.10947608308E+02 -0.42661918067E+03  0.46368600662E+03  0.17823658171E+03 0.  0.
        -24    2    3    3    0    0 -0.13841282313E+02  0.29749492084E+02 -0.39281491678E+03  0.40248173574E+03  0.81310364553E+02 0.  0.
          6    2    1    2  501    0 -0.33356532077E+02 -0.10947608308E+02  0.66492459670E+01  0.17567287372E+03  0.17200069107E+03 0.  0.
         24    2    5    5    0    0 -0.77428699860E+02 -0.42390781137E+02  0.24206757917E+02  0.11856433394E+03  0.75361477330E+02 0.  0.
          5    1    5    5  501    0  0.44072167782E+02  0.31443172828E+02 -0.17557511950E+02  0.57108539785E+02  0.47000000000E+01 0. -1.
        -13    1    6    6    0    0 -0.50579471074E+02 -0.43145152748E+02  0.48544234843E+02  0.82318465949E+02  0.00000000000E+00 0.  1.
         14    1    6    6    0    0 -0.26849228786E+02  0.75437161105E+00 -0.24337476926E+02  0.36245867986E+02  0.00000000000E+00 0. -1.
         -5    1    3    3    0  503  0.47197814390E+02 -0.18801883775E+02 -0.33804263885E+02  0.61204270876E+02  0.47000000000E+01 0.  1.
         11    1    4    4    0    0 -0.17014096528E+02 -0.89991313346E+01 -0.20414412872E+02  0.28057300268E+02  0.00000000000E+00 0. -1.
        -12    1    4    4    0    0  0.31728142154E+01  0.38748623418E+02 -0.37240050391E+03  0.37442443547E+03  0.00000000000E+00 0.  1.
</event>
<event>
12    1  0.9873238E-001  0.2088415E+03  0.7818608E-02  0.1142921E+00
         21   -1    0    0  501  502  0.00000000000E+00  0.00000000000E+00  0.67298142476E+02  0.67298142476E+02  0.00000000000E+00 0.  1.
         21   -1    0    0  502  503 -0.00000000000E+00 -0.00000000000E+00 -0.66279801027E+03  0.66279801027E+03  0.00000000000E+00 0.  1.
         -6    2    1    2    0  503 -0.10917483315E+03  0.35411848559E+02 -0.36488667963E+03  0.42042483889E+03  0.17447525030E+03 0.  0.
        -24    2    3    3    0    0 -0.99930455860E+02  0.87964015310E+02 -0.28016831263E+03  0.32019270607E+03  0.79406055306E+02 0.  0.
          6    2    1    2  501    0  0.10917483315E+03 -0.35411848559E+02 -0.23061318816E+03  0.30967131386E+03  0.17187418905E+03 0.  0.
         24    2    5    5    0    0  0.67533307641E+02 -0.76940253538E+02 -0.21944836547E+03  0.24962659442E+03  0.60624263119E+02 0.  0.
          5    1    5    5  501    0  0.41641525511E+02  0.41528404978E+02 -0.11164822691E+02  0.60044719440E+02  0.47000000000E+01 0. -1.
        -11    1    6    6    0    0 -0.16682504342E+01 -0.32135864659E+02 -0.34727741217E+02  0.47344618141E+02  0.00000000000E+00 0.  1.
         12    1    6    6    0    0  0.69201558075E+02 -0.44804388879E+02 -0.18472062425E+03  0.20228197628E+03  0.00000000000E+00 0. -1.
         -5    1    3    3    0  503 -0.92443772920E+01 -0.52552166751E+02 -0.84718367002E+02  0.10023213282E+03  0.47000000000E+01 0.  1.
         11    1    4    4    0    0 -0.98004380140E+02  0.45403691785E+02 -0.16318409896E+03  0.19569211509E+03  0.00000000000E+00 0. -1.
        -12    1    4    4    0    0 -0.19260757198E+01  0.42560323525E+02 -0.11698421367E+03  0.12450059098E+03  0.00000000000E+00 0.  1.
</event>
<event>
12    1  0.9873238E-001  0.1793542E+03  0.7818608E-02  0.1168547E+00
         21   -1    0    0  501  502  0.00000000000E+00  0.00000000000E+00  0.95220418176E+03  0.95220418176E+03  0.00000000000E+00 0.  1.
         21   -1    0    0  502  503 -0.00000000000E+00 -0.00000000000E+00 -0.58943334540E+02  0.58943334540E+02  0.00000000000E+00 0.  1.
         -6    2    1    2    0  503 -0.51056290653E+02 -0.13295620916E+02  0.11537953915E+03  0.21285731403E+03  0.17091600197E+03 0.  0.
        -24    2    3    3    0    0 -0.82923107025E+02 -0.10738131266E+02  0.28696068095E+02  0.12034705031E+03  0.81660266051E+02 0.  0.
          6    2    1    2  501    0  0.51056290653E+02  0.13295620916E+02  0.77788130806E+03  0.79829020227E+03  0.17141878326E+03 0.  0.
         24    2    5    5    0    0 -0.25684638071E+02 -0.29892880118E+02  0.32134366534E+03  0.33331372331E+03  0.79265389529E+02 0.  0.
          5    1    5    5  501    0  0.76740928724E+02  0.43188501035E+02  0.45653764273E+03  0.46497647896E+03  0.47000000000E+01 0. -1.
        -13    1    6    6    0    0 -0.99842337882E+01  0.27055050848E+02  0.12455727658E+03  0.12785216404E+03  0.00000000000E+00 0.  1.
         14    1    6    6    0    0 -0.15700404283E+02 -0.56947930966E+02  0.19678638876E+03  0.20546155927E+03  0.00000000000E+00 0. -1.
         -5    1    3    3    0  503  0.31866816372E+02 -0.25574896507E+01  0.86683471059E+02  0.92510263722E+02  0.47000000000E+01 0.  1.
         11    1    4    4    0    0 -0.81137173709E+02 -0.34512028215E+01  0.51619247668E+02  0.96227327138E+02  0.00000000000E+00 0. -1.
        -12    1    4    4    0    0 -0.17859333158E+01 -0.72869284441E+01 -0.22923179573E+02  0.24119723167E+02  0.00000000000E+00 0.  1.
</event>
<event>
12    1  0.9873238E-001  0.3394494E+03  0.7818608E-02  0.1067125E+00
         21   -1    0    0  501  502  0.00000000000E+00  0.00000000000E+00  0.14444212147E+03  0.14444212147E+03  0.00000000000E+00 0. -1.
         21   -1    0    0  502  503 -0.00000000000E+00 -0.00000000000E+00 -0.86758396210E+03  0.86758396210E+03  0.00000000000E+00 0.  1.
         -6    2    1    2    0  503  0.29162851907E+03  0.93178678473E+01 -0.21630508792E+03  0.40250935763E+03  0.17347010153E+03 0.  0.
        -24    2    3    3    0    0  0.28124660521E+03 -0.31518302532E+02 -0.16862532032E+03  0.33870632334E+03  0.78704628067E+02 0.  0.
          6    2    1    2  501    0 -0.29162851907E+03 -0.93178678473E+01 -0.50683675271E+03  0.60951672594E+03  0.17173563844E+03 0.  0.
         24    2    5    5    0    0 -0.18373235524E+03 -0.58845944083E+02 -0.24050777528E+03  0.31788712058E+03  0.77380927654E+02 0.  0.
          5    1    5    5  501    0 -0.10789616383E+03  0.49528076235E+02 -0.26632897743E+03  0.29162960536E+03  0.47000000000E+01 0. -1.
        -13    1    6    6    0    0 -0.15690832406E+03 -0.17009695678E+02 -0.19048117146E+03  0.24737143850E+03  0.00000000000E+00 0.  1.
         14    1    6    6    0    0 -0.26824031183E+02 -0.41836248405E+02 -0.50026603816E+02  0.70515682077E+02  0.00000000000E+00 0. -1.
         -5    1    3    3    0  503  0.10381913860E+02  0.40836170380E+02 -0.47679767602E+02  0.63803034295E+02  0.47000000000E+01 0.  1.
         13    1    4    4    0    0  0.12221743079E+03 -0.39595411545E+01 -0.29906513156E+02  0.12588557457E+03  0.00000000000E+00 0. -1.
        -14    1    4    4    0    0  0.15902917441E+03 -0.27558761378E+02 -0.13871880717E+03  0.21282074877E+03  0.00000000000E+00 0.  1.
</event>
<event>
12    1  0.9873238E-001  0.3986733E+03  0.7818608E-02  0.1044262E+00
         21   -1    0    0  503  502  0.00000000000E+00  0.00000000000E+00  0.31544764662E+03  0.31544764662E+03  0.00000000000E+00 0. -1.
         21   -1    0    0  501  503 -0.00000000000E+00 -0.00000000000E+00 -0.50760598188E+03  0.50760598188E+03  0.00000000000E+00 0. -1.
          6    2    1    2  501    0 -0.31963985846E+03  0.16451264755E+03 -0.59213787270E+02  0.40279813029E+03  0.17177313771E+03 0.  0.
         24    2    3    3    0    0 -0.19316018276E+03  0.42198212863E+02  0.91892639140E+01  0.21396223140E+03  0.81264066607E+02 0.  0.
         -6    2    1    2    0  502  0.31963985846E+03 -0.16451264755E+03 -0.13294454799E+03  0.42025549822E+03  0.17235539047E+03 0.  0.
        -24    2    5    5    0    0  0.23362875233E+03 -0.18585468448E+03 -0.90778448565E+02  0.32200346079E+03  0.79505624817E+02 0.  0.
          5    1    3    3  501    0 -0.12647967571E+03  0.12231443468E+03 -0.68403051184E+02  0.18883589889E+03  0.47000000000E+01 0. -1.
        -13    1    4    4    0    0 -0.18866434734E+03  0.51129996659E+02  0.23100284800E+02  0.19683022042E+03  0.00000000000E+00 0.  1.
         14    1    4    4    0    0 -0.44958354199E+01 -0.89317837955E+01 -0.13911020886E+02  0.17132010973E+02  0.00000000000E+00 0. -1.
         -5    1    5    5    0  502  0.86011106129E+02  0.21342036937E+02 -0.42166099425E+02  0.98252037429E+02  0.47000000000E+01 0.  1.
         11    1    6    6    0    0  0.17843022124E+03 -0.15509638749E+03 -0.10259752123E+03  0.25771783917E+03  0.00000000000E+00 0. -1.
        -12    1    6    6    0    0  0.55198531096E+02 -0.30758296994E+02  0.11819072663E+02  0.64285621625E+02  0.00000000000E+00 0.  1.
</event>
<event>
12    1  0.9873238E-001  0.2303563E+03  0.7818608E-02  0.1126459E+00
         21   -1    0    0  503  502  0.00000000000E+00  0.00000000000E+00  0.84945194911E+03  0.84945194911E+03  0.00000000000E+00 0. -1.
         21   -1    0    0  501  503 -0.00000000000E+00 -0.00000000000E+00 -0.80436231359E+02  0.80436231359E+02  0.00000000000E+00 0.  1.
          6    2    1    2  501    0 -0.26715215323E+02 -0.15084192437E+03  0.16385283052E+03  0.28236508874E+03  0.17150890471E+03 0.  0.
         24    2    3    3    0    0  0.35902104878E+02 -0.53321965301E+02  0.34196639702E+02  0.10839989388E+03  0.80305253308E+02 0.  0.
         -6    2    1    2    0  502  0.26715215323E+02  0.15084192437E+03  0.60516288723E+03  0.64752309172E+03  0.17203791837E+03 0.  0.
        -24    2    5    5    0    0  0.76672089703E+02  0.11863462814E+03  0.50833203701E+03  0.53380720548E+03  0.81215075244E+02 0.  0.
          5    1    3    3  501    0 -0.62617320202E+02 -0.97519959067E+02  0.12965619082E+03  0.17396519486E+03  0.47000000000E+01 0. -1.
        -13    1    4    4    0    0  0.87018990824E+01 -0.85302687068E+01 -0.25924706761E+02  0.28645749292E+02  0.00000000000E+00 0.  1.
         14    1    4    4    0    0  0.27200205796E+02 -0.44791696594E+02  0.60121346463E+02  0.79754144592E+02  0.00000000000E+00 0. -1.
         -5    1    5    5    0  502 -0.49956874379E+02  0.32207296229E+02  0.96830850225E+02  0.11371588624E+03  0.47000000000E+01 0.  1.
         11    1    6    6    0    0  0.12497064638E+02  0.14674726929E+02  0.21755045324E+03  0.21840266468E+03  0.00000000000E+00 0. -1.
        -12    1    6    6    0    0  0.64175025064E+02  0.10395990121E+03  0.29078158377E+03  0.31540454081E+03  0.00000000000E+00 0.  1.
</event>
<event>
12    1  0.9873238E-001  0.1742353E+03  0.7818608E-02  0.1173528E+00
         21   -1    0    0  503  502  0.00000000000E+00  0.00000000000E+00  0.22232566825E+03  0.22232566825E+03  0.00000000000E+00 0. -1.
         21   -1    0    0  501  503 -0.00000000000E+00 -0.00000000000E+00 -0.29822411974E+03  0.29822411974E+03  0.00000000000E+00 0. -1.
          6    2    1    2  501    0  0.22887149296E+02 -0.24512162980E+02  0.15373377247E+03  0.23236180868E+03  0.17097739500E+03 0.  0.
         24    2    3    3    0    0 -0.31793255665E+02 -0.52005586167E+02  0.53203852603E+02  0.11457305797E+03  0.81123015128E+02 0.  0.
         -6    2    1    2    0  502 -0.22887149296E+02  0.24512162980E+02 -0.22963222397E+03  0.28818797931E+03  0.17087037600E+03 0.  0.
        -24    2    5    5    0    0  0.54066922885E+02  0.12001287880E+02 -0.11362670737E+03  0.14833869936E+03  0.77627817428E+02 0.  0.
          5    1    3    3  501    0  0.54680404961E+02  0.27493423187E+02  0.10052991987E+03  0.11778875071E+03  0.47000000000E+01 0. -1.
        -13    1    4    4    0    0 -0.48623307559E+02 -0.56627040053E+01  0.40817630517E+02  0.63736733644E+02  0.00000000000E+00 0.  1.
         14    1    4    4    0    0  0.16830051894E+02 -0.46342882162E+02  0.12386222086E+02  0.50836324330E+02  0.00000000000E+00 0. -1.
         -5    1    5    5    0  502 -0.76954072181E+02  0.12510875100E+02 -0.11600551659E+03  0.13984927995E+03  0.47000000000E+01 0.  1.
         11    1    6    6    0    0  0.20050021594E+01  0.25585259790E+02 -0.82010774192E+02  0.85932488825E+02  0.00000000000E+00 0. -1.
        -12    1    6    6    0    0  0.52061920726E+02 -0.13583971910E+02 -0.31615933182E+02  0.62406210536E+02  0.00000000000E+00 0.  1.
</event>
<event>
12    1  0.9873238E-001  0.2130719E+03  0.7818608E-02  0.1140407E+00
         21   -1    0    0  503  502  0.00000000000E+00  0.00000000000E+00  0.15354055364E+03  0.15354055364E+03  0.00000000000E+00 0. -1.
         21   -1    0    0  501  503 -0.00000000000E+00 -0.00000000000E+00 -0.29501501746E+03  0.29501501746E+03  0.00000000000E+00 0. -1.
          6    2    1    2  501    0 -0.75115043998E+02  0.90641875871E+02 -0.10883432247E+03  0.23925834993E+03  0.17759906747E+03 0.  0.
         24    2    3    3    0    0 -0.84650921103E+02  0.24152116452E+01 -0.95735623838E+02  0.14943328027E+03  0.77416948339E+02 0.  0.
         -6    2    1    2    0  502  0.75115043998E+02 -0.90641875871E+02 -0.32640141350E+02  0.20929722117E+03  0.16994625170E+03 0.  0.
        -24    2    5    5    0    0  0.84918179596E+02 -0.26858646406E+00 -0.20058070747E+02  0.11740689847E+03  0.78554975922E+02 0.  0.
          5    1    3    3  501    0  0.95358771047E+01  0.88226664226E+02 -0.13098698628E+02  0.89825069654E+02  0.47000000000E+01 0. -1.
        -13    1    4    4    0    0 -0.92356070751E+02  0.25047039249E+01 -0.54044640668E+02  0.10703616459E+03  0.00000000000E+00 0.  1.
         14    1    4    4    0    0  0.77051496477E+01 -0.89492279713E-01 -0.41690983170E+02  0.42397115676E+02  0.00000000000E+00 0. -1.
         -5    1    5    5    0  502 -0.98031355977E+01 -0.90373289407E+02 -0.12582070602E+02  0.91890322703E+02  0.47000000000E+01 0.  1.
         13    1    6    6    0    0  0.55132438343E+02  0.44010056845E+01 -0.50259228215E+02  0.74732487108E+02  0.00000000000E+00 0. -1.
        -14    1    6    6    0    0  0.29785741253E+02 -0.46695921486E+01  0.30201157467E+02  0.42674411363E+02  0.00000000000E+00 0.  1.
</event>
<event>
12    1  0.1231945E+000  0.1948346E+03  0.7818608E-02  0.1155861E+00
         21   -1    0    0  503  502  0.00000000000E+00  0.00000000000E+00  0.60059735524E+03  0.60059735524E+03  0.00000000000E+00 0.  1.
         21   -1    0    0  501  503 -0.00000000000E+00 -0.00000000000E+00 -0.21150330999E+03  0.21150330999E+03  0.00000000000E+00 0. -1.
          6    2    1    2  501    0 -0.23920456766E+02 -0.69906769857E+02  0.53620692446E+03  0.56796395935E+03  0.17206408271E+03 0.  0.
         24    2    3    3    0    0 -0.51687277691E+02  0.14727919552E+02  0.27956823592E+03  0.29626645577E+03  0.82017851653E+02 0.  0.
         -6    2    1    2    0  502  0.23920456766E+02  0.69906769857E+02 -0.14711287921E+03  0.24413670588E+03  0.18028141115E+03 0.  0.
        -24    2    5    5    0    0  0.79975433827E+02  0.53880344066E+02 -0.13478418226E+03  0.18436134686E+03  0.80766137315E+02 0.  0.
          5    1    3    3  501    0  0.27766820926E+02 -0.84634689408E+02  0.25663868854E+03  0.27169750358E+03  0.47000000000E+01 0. -1.
        -11    1    4    4    0    0  0.16177883233E+02 -0.11783811368E+01  0.13279926922E+03  0.13378624142E+03  0.00000000000E+00 0.  1.
         12    1    4    4    0    0 -0.67865160925E+02  0.15906300689E+02  0.14676896670E+03  0.16248021435E+03  0.00000000000E+00 0. -1.
         -5    1    5    5    0  502 -0.56054977061E+02  0.16026425791E+02 -0.12328696945E+02  0.59775359014E+02  0.47000000000E+01 0.  1.
         13    1    6    6    0    0  0.22426160027E+02 -0.12802861463E+02 -0.32056234139E+01  0.26021566760E+02  0.00000000000E+00 0. -1.
        -14    1    6    6    0    0  0.57549273799E+02  0.66683205528E+02 -0.13157855885E+03  0.15833978010E+03  0.00000000000E+00 0.  1.
</event>
<event>
12    1  0.9873238E-001  0.1796097E+03  0.7818608E-02  0.1168637E+00
         21   -1    0    0  503  502  0.00000000000E+00  0.00000000000E+00  0.44063400750E+03  0.44063400750E+03  0.00000000000E+00 0.  1.
         21   -1    0    0  501  503 -0.00000000000E+00 -0.00000000000E+00 -0.91802644344E+02  0.91802644344E+02  0.00000000000E+00 0.  1.
          6    2    1    2  501    0 -0.37378584722E+01  0.43773204646E+02  0.51472150287E+02  0.18504328250E+03  0.17222534399E+03 0.  0.
         24    2    3    3    0    0  0.18101669553E+02  0.89073402401E+02  0.58346453368E+02  0.13406859325E+03  0.79425044032E+02 0.  0.
         -6    2    1    2    0  502  0.37378584722E+01 -0.43773204646E+02  0.29735921287E+03  0.34739336935E+03  0.17415391629E+03 0.  0.
        -24    2    5    5    0    0  0.51737100818E+02 -0.27846211388E+02  0.27468685442E+03  0.29177213044E+03  0.78904809870E+02 0.  0.
          5    1    3    3  501    0 -0.21839528025E+02 -0.45300197755E+02 -0.68743030807E+01  0.50974689247E+02  0.47000000000E+01 0. -1.
        -11    1    4    4    0    0  0.13346707533E+02  0.21426789989E+02  0.61192997313E+02  0.66195353699E+02  0.00000000000E+00 0.  1.
         12    1    4    4    0    0  0.47549620199E+01  0.67646612412E+02 -0.28465439454E+01  0.67873239550E+02  0.00000000000E+00 0. -1.
         -5    1    5    5    0  502 -0.47999242346E+02 -0.15926993258E+02  0.22672358448E+02  0.55621238908E+02  0.47000000000E+01 0.  1.
         13    1    6    6    0    0  0.50748930416E+01  0.12838661315E+02  0.16691233376E+03  0.16748227645E+03  0.00000000000E+00 0. -1.
        -14    1    6    6    0    0  0.46662207776E+02 -0.40684872703E+02  0.10777452067E+03  0.12428985400E+03  0.00000000000E+00 0.  1.
</event>
<event>
12    1  0.9873238E-001  0.2091372E+03  0.7818608E-02  0.1142332E+00
         21   -1    0    0  503  502  0.00000000000E+00  0.00000000000E+00  0.54836421988E+02  0.54836421988E+02  0.00000000000E+00 0.  1.
         21   -1    0    0  501  503 -0.00000000000E+00 -0.00000000000E+00 -0.87128875645E+03  0.87128875645E+03  0.00000000000E+00 0.  1.
          6    2    1    2  501    0  0.60992610439E+02 -0.10096037840E+03 -0.54392575099E+03  0.58260064849E+03  0.17220684218E+03 0.  0.
         24    2    3    3    0    0 -0.30776968864E+02 -0.34026618677E+02 -0.18742102073E+03  0.20840885733E+03  0.78756461376E+02 0.  0.
         -6    2    1    2    0  502 -0.60992610439E+02  0.10096037840E+03 -0.27252658347E+03  0.34352452995E+03  0.17269993470E+03 0.  0.
        -24    2    5    5    0    0 -0.10444078279E+03  0.96458463606E+02 -0.19471868661E+03  0.25417034856E+03  0.80467924444E+02 0.  0.
          5    1    3    3  501    0  0.91769579303E+02 -0.66933759722E+02 -0.35650473025E+03  0.37419179116E+03  0.47000000000E+01 0. -1.
        -13    1    4    4    0    0  0.54051200271E+01 -0.38008427781E+02 -0.35845546191E+02  0.52523890627E+02  0.00000000000E+00 0.  1.
         14    1    4    4    0    0 -0.36182088891E+02  0.39818091038E+01 -0.15157547454E+03  0.15588496670E+03  0.00000000000E+00 0. -1.
         -5    1    5    5    0  502  0.43448172348E+02  0.45019147925E+01 -0.77807896865E+02  0.89354181389E+02  0.47000000000E+01 0.  1.
         13    1    6    6    0    0  0.86807702256E+01 -0.44218541154E+01 -0.39340613737E+01  0.10506445851E+02  0.00000000000E+00 0. -1.
        -14    1    6    6    0    0 -0.11312155301E+03  0.10088031772E+03 -0.19078462524E+03  0.24366390271E+03  0.00000000000E+00 0.  1.
</event>
<event>
12    1  0.9873238E-001  0.4794180E+03  0.7818608E-02  0.1019338E+00
         21   -1    0    0  503  502  0.00000000000E+00  0.00000000000E+00  0.33849720328E+03  0.33849720328E+03  0.00000000000E+00 0.  1.
         21   -1    0    0  501  503 -0.00000000000E+00 -0.00000000000E+00 -0.68361313931E+03  0.68361313931E+03  0.00000000000E+00 0.  1.
          6    2    1    2  501    0  0.33090303623E+02 -0.44591872033E+03 -0.21821880752E+03  0.52618241661E+03  0.17120167714E+03 0.  0.
         24    2    3    3    0    0  0.82070660796E+02 -0.32012055330E+03 -0.11565179471E+03  0.35657600065E+03  0.67515513849E+02 0.  0.
         -6    2    1    2    0  502 -0.33090303623E+02  0.44591872033E+03 -0.12689712851E+03  0.49592792598E+03  0.17292528217E+03 0.  0.
        -24    2    5    5    0    0 -0.40470313450E+02  0.11757942247E+03 -0.47782413131E+02  0.15807827414E+03  0.85104728954E+02 0.  0.
          5    1    3    3  501    0 -0.48980357173E+02 -0.12579816703E+03 -0.10256701281E+03  0.16960641596E+03  0.47000000000E+01 0. -1.
        -11    1    4    4    0    0  0.48801853894E+02 -0.94399190750E+02 -0.58754699754E+02  0.12142875648E+03  0.00000000000E+00 0.  1.
         12    1    4    4    0    0  0.33268806901E+02 -0.22572136255E+03 -0.56897094953E+02  0.23514724417E+03  0.00000000000E+00 0. -1.
         -5    1    5    5    0  502  0.73800098273E+01  0.32833929785E+03 -0.79114715380E+02  0.33784965184E+03  0.47000000000E+01 0.  1.
         13    1    6    6    0    0  0.12257963870E+02  0.89962371954E+02 -0.23442714373E+02  0.93771247741E+02  0.00000000000E+00 0. -1.
        -14    1    6    6    0    0 -0.52728277320E+02  0.27617050520E+02 -0.24339698758E+02  0.64307026399E+02  0.00000000000E+00 0.  1.
</event>
<event>
12    1  0.9873238E-001  0.2427969E+03  0.7818608E-02  0.1118000E+00
         21   -1    0    0  501  502  0.00000000000E+00  0.00000000000E+00  0.25521178733E+03  0.25521178733E+03  0.00000000000E+00 0.  1.
         21   -1    0    0  502  503 -0.00000000000E+00 -0.00000000000E+00 -0.24858308669E+03  0.24858308669E+03  0.00000000000E+00 0.  1.
         -6    2    1    2    0  503 -0.19290813713E+02  0.17023201937E+03 -0.64326078776E+02  0.25117357253E+03  0.17204430595E+03 0.  0.
        -24    2    3    3    0    0  0.59895955786E+01  0.11371265341E+03 -0.10698961030E+03  0.17583563557E+03  0.80653277820E+02 0.  0.
          6    2    1    2  501    0  0.19290813713E+02 -0.17023201937E+03  0.70954779421E+02  0.25262130149E+03  0.17155717802E+03 0.  0.
         24    2    5    5    0    0  0.66401080908E+02 -0.13506012119E+03  0.24591854274E+02  0.17760096742E+03  0.91032985496E+02 0.  0.
          5    1    5    5  501    0 -0.47110267195E+02 -0.35171898182E+02  0.46362925147E+02  0.75020334078E+02  0.47000000000E+01 0. -1.
        -11    1    6    6    0    0  0.56189353182E+02 -0.14841353419E+03  0.25665802463E+02  0.16075619415E+03  0.00000000000E+00 0.  1.
         12    1    6    6    0    0  0.10211727726E+02  0.13353412994E+02 -0.10739481895E+01  0.16844773268E+02  0.00000000000E+00 0. -1.
         -5    1    3    3    0  503 -0.25280409291E+02  0.56519365959E+02  0.42663531525E+02  0.75337936954E+02  0.47000000000E+01 0.  1.
         11    1    4    4    0    0 -0.22940738495E+02  0.10495717614E+03 -0.70718770946E+02  0.12862126912E+03  0.00000000000E+00 0. -1.
        -12    1    4    4    0    0  0.28930334074E+02  0.87554772735E+01 -0.36270839354E+02  0.47214366451E+02  0.00000000000E+00 0.  1.
</event>
<event>
12    1  0.9873238E-001  0.1958533E+03  0.7818608E-02  0.1153291E+00
         21   -1    0    0  503  502  0.00000000000E+00  0.00000000000E+00  0.24079535325E+03  0.24079535325E+03  0.00000000000E+00 0.  1.
         21   -1    0    0  501  503 -0.00000000000E+00 -0.00000000000E+00 -0.15981348254E+03  0.15981348254E+03  0.00000000000E+00 0.  1.
          6    2    1    2  501    0 -0.86036898990E+02  0.37637094530E+02  0.52075513419E+02  0.20265826566E+03  0.17187092444E+03 0.  0.
         24    2    3    3    0    0 -0.12765302197E+03  0.16531821639E+02  0.31740319062E+02  0.15154129817E+03  0.73407915451E+02 0.  0.
         -6    2    1    2    0  502  0.86036898990E+02 -0.37637094530E+02  0.28906357287E+02  0.19795057013E+03  0.17184281146E+03 0.  0.
        -24    2    5    5    0    0  0.96246114325E+02 -0.37520242279E+02  0.74815792483E+02  0.15068527660E+03  0.80234448186E+02 0.  0.
          5    1    3    3  501    0  0.41616122982E+02  0.21105272891E+02  0.20335194356E+02  0.51116967490E+02  0.47000000000E+01 0. -1.
        -11    1    4    4    0    0 -0.64879152387E+02  0.23262964586E+01  0.52949446466E+02  0.83775652494E+02  0.00000000000E+00 0.  1.
         12    1    4    4    0    0 -0.62773869586E+02  0.14205525180E+02 -0.21209127404E+02  0.67765645674E+02  0.00000000000E+00 0. -1.
         -5    1    5    5    0  502 -0.10209215335E+02 -0.11685225123E+00 -0.45909435195E+02  0.47265293527E+02  0.47000000000E+01 0.  1.
         13    1    6    6    0    0  0.31181821793E+02 -0.44874526227E+02  0.48504665888E+01  0.54859421620E+02  0.00000000000E+00 0. -1.
        -14    1    6    6    0    0  0.65064292532E+02  0.73542839476E+01  0.69965325894E+02  0.95825854979E+02  0.00000000000E+00 0.  1.
</event>
<event>
12    1  0.9873238E-001  0.1771204E+03  0.7818608E-02  0.1170697E+00
         21   -1    0    0  503  502  0.00000000000E+00  0.00000000000E+00  0.12650858895E+03  0.12650858895E+03  0.00000000000E+00 0.  1.
         21   -1    0    0  501  503 -0.00000000000E+00 -0.00000000000E+00 -0.25428284039E+03  0.25428284039E+03  0.00000000000E+00 0.  1.
          6    2    1    2  501    0  0.32550843077E+02  0.23881306652E+02 -0.32944525278E+02  0.18015821302E+03  0.17245801164E+03 0.  0.
         24    2    3    3    0    0  0.15609484651E+02  0.78955455204E+02 -0.43113662866E+02  0.12145835933E+03  0.80098222245E+02 0.  0.
         -6    2    1    2    0  502 -0.32550843077E+02 -0.23881306652E+02 -0.94829726163E+02  0.20063321633E+03  0.17213696970E+03 0.  0.
        -24    2    5    5    0    0 -0.59545551130E+02  0.26159305691E+02 -0.16957040612E+02  0.10409813306E+03  0.79491497324E+02 0.  0.
          5    1    3    3  501    0  0.16941358426E+02 -0.55074148552E+02  0.10169137587E+02  0.58699853691E+02  0.47000000000E+01 0. -1.
        -13    1    4    4    0    0 -0.31806788572E+02  0.20294887486E+02 -0.96750594506E+01  0.38950751375E+02  0.00000000000E+00 0.  1.
         14    1    4    4    0    0  0.47416273222E+02  0.58660567718E+02 -0.33438603415E+02  0.82507607950E+02  0.00000000000E+00 0. -1.
         -5    1    5    5    0  502  0.26994708053E+02 -0.50040612343E+02 -0.77872685551E+02  0.96535083268E+02  0.47000000000E+01 0.  1.
         13    1    6    6    0    0 -0.44340761315E+02  0.50300044316E+02 -0.29094432205E+02  0.73093662909E+02  0.00000000000E+00 0. -1.
        -14    1    6    6    0    0 -0.15204789815E+02 -0.24140738625E+02  0.12137391593E+02  0.31004470151E+02  0.00000000000E+00 0.  1.
</event>
<event>
12    1  0.9873238E-001  0.2357835E+03  0.7818608E-02  0.1122716E+00
         21   -1    0    0  503  502  0.00000000000E+00  0.00000000000E+00  0.27335299778E+03  0.27335299778E+03  0.00000000000E+00 0. -1.
         21   -1    0    0  501  503 -0.00000000000E+00 -0.00000000000E+00 -0.22290454289E+03  0.22290454289E+03  0.00000000000E+00 0. -1.
          6    2    1    2  501    0  0.60753217289E+02  0.14843390656E+03  0.99415169029E+02  0.25544310920E+03  0.17217499289E+03 0.  0.
         24    2    3    3    0    0 -0.13441399784E+02  0.15096946094E+02  0.33767820045E+02  0.89264739191E+02  0.80120777472E+02 0.  0.
         -6    2    1    2    0  502 -0.60753217289E+02 -0.14843390656E+03 -0.48966714139E+02  0.24081443147E+03  0.17283018626E+03 0.  0.
        -24    2    5    5    0    0 -0.27917138756E+01 -0.59870494379E+01 -0.52160718615E+01  0.80855525243E+02  0.80416230509E+02 0.  0.
          5    1    3    3  501    0  0.74194617073E+02  0.13333696047E+03  0.65647348984E+02  0.16617837001E+03  0.47000000000E+01 0. -1.
        -11    1    4    4    0    0 -0.10370471917E+02  0.46749069513E+02  0.31636967756E+02  0.57392681737E+02  0.00000000000E+00 0.  1.
         12    1    4    4    0    0 -0.30709278675E+01 -0.31652123419E+02  0.21308522887E+01  0.31872057455E+02  0.00000000000E+00 0. -1.
         -5    1    5    5    0  502 -0.57961503413E+02 -0.14244685713E+03 -0.43750642277E+02  0.15995890623E+03  0.47000000000E+01 0.  1.
         13    1    6    6    0    0 -0.31510739123E+02 -0.29350095184E+02  0.21179487010E+01  0.43114272278E+02  0.00000000000E+00 0. -1.
        -14    1    6    6    0    0  0.28719025247E+02  0.23363045746E+02 -0.73340205626E+01  0.37741252964E+02  0.00000000000E+00 0.  1.
</event>
<event>
12    1  0.9873238E-001  0.1924953E+03  0.7818608E-02  0.1158266E+00
         21   -1    0    0  501  502  0.00000000000E+00  0.00000000000E+00  0.56440053522E+02  0.56440053522E+02  0.00000000000E+00 0. -1.
         21   -1    0    0  502  503 -0.00000000000E+00 -0.00000000000E+00 -0.67538832055E+03  0.67538832055E+03  0.00000000000E+00 0. -1.
         -6    2    1    2    0  503  0.57766666109E+02 -0.23253863371E+02 -0.20406576898E+03  0.27446424590E+03  0.17265588415E+03 0.  0.
        -24    2    3    3    0    0  0.80767288628E+02  0.36686498299E+02 -0.13356771162E+03  0.17899727944E+03  0.79564052117E+02 0.  0.
          6    2    1    2  501    0 -0.57766666109E+02  0.23253863371E+02 -0.41488249805E+03  0.45736412817E+03  0.18214480141E+03 0.  0.
         24    2    5    5    0    0 -0.33705749622E+02  0.81198969956E+02 -0.33517767035E+03  0.35581850967E+03  0.80829393429E+02 0.  0.
          5    1    5    5  501    0 -0.24060916487E+02 -0.57945106584E+02 -0.79704827696E+02  0.10154561850E+03  0.47000000000E+01 0. -1.
        -13    1    6    6    0    0  0.23093316358E+02  0.34053260383E+02 -0.16981101780E+03  0.17472466217E+03  0.00000000000E+00 0.  1.
         14    1    6    6    0    0 -0.56799065980E+02  0.47145709572E+02 -0.16536665255E+03  0.18109384750E+03  0.00000000000E+00 0. -1.
         -5    1    3    3    0  503 -0.23000622519E+02 -0.59940361670E+02 -0.70498057365E+02  0.95466966463E+02  0.47000000000E+01 0.  1.
         13    1    4    4    0    0  0.95993748049E+01 -0.10924628656E+02 -0.72204095900E+02  0.73654103570E+02  0.00000000000E+00 0. -1.
        -14    1    4    4    0    0  0.71167913823E+02  0.47611126955E+02 -0.61363615718E+02  0.10534317587E+03  0.00000000000E+00 0.  1.
</event>
<event>
12    1  0.9873238E-001  0.1926440E+03  0.7818608E-02  0.1156277E+00
         21   -1    0    0  503  502  0.00000000000E+00  0.00000000000E+00  0.49823930720E+02  0.49823930720E+02  0.00000000000E+00 0.  1.
         21   -1    0    0  501  503 -0.00000000000E+00 -0.00000000000E+00 -0.80491765842E+03  0.80491765842E+03  0.00000000000E+00 0.  1.
          6    2    1    2  501    0  0.84579703046E+02  0.10546074817E+02 -0.25855279692E+03  0.32243026650E+03  0.17276221258E+03 0.  0.
         24    2    3    3    0    0  0.60242696245E+02 -0.39483733831E+02 -0.24099646644E+03  0.26390175726E+03  0.79854198141E+02 0.  0.
         -6    2    1    2    0  502 -0.84579703046E+02 -0.10546074817E+02 -0.49654093078E+03  0.53231132264E+03  0.17186477944E+03 0.  0.
        -24    2    5    5    0    0 -0.60127706097E+02  0.50648862549E+02 -0.20900723289E+03  0.23728515781E+03  0.80246958812E+02 0.  0.
          5    1    3    3  501    0  0.24337006801E+02  0.50029808648E+02 -0.17556330479E+02  0.58528509235E+02  0.47000000000E+01 0. -1.
        -11    1    4    4    0    0 -0.93041778317E+01 -0.27476495493E+02 -0.12330320106E+03  0.12666966851E+03  0.00000000000E+00 0.  1.
         12    1    4    4    0    0  0.69546874076E+02 -0.12007238338E+02 -0.11769326539E+03  0.13723208875E+03  0.00000000000E+00 0. -1.
         -5    1    5    5    0  502 -0.24451996949E+02 -0.61194937366E+02 -0.28753369789E+03  0.29502616483E+03  0.47000000000E+01 0.  1.
         13    1    6    6    0    0 -0.77942091095E+00  0.21279316499E+02 -0.14013547784E+03  0.14174402618E+03  0.00000000000E+00 0. -1.
        -14    1    6    6    0    0 -0.59348285186E+02  0.29369546050E+02 -0.68871755047E+02  0.95541131629E+02  0.00000000000E+00 0.  1.
</event>
<event>
12    1  0.9873238E-001  0.1885219E+03  0.7818608E-02  0.1160741E+00
         21   -1    0    0  503  502  0.00000000000E+00  0.00000000000E+00  0.24946236317E+03  0.24946236317E+03  0.00000000000E+00 0.  1.
         21   -1    0    0  501  503 -0.00000000000E+00 -0.00000000000E+00 -0.13985548566E+03  0.13985548566E+03  0.00000000000E+00 0.  1.
          6    2    1    2  501    0 -0.58714123005E+02  0.29027070792E+02  0.43138269071E+02  0.18942141183E+03  0.17242285789E+03 0.  0.
         24    2    3    3    0    0 -0.93334865331E+02  0.47138344417E+00 -0.56031929662E+01  0.12299970453E+03  0.79911903080E+02 0.  0.
         -6    2    1    2    0  502  0.58714123005E+02 -0.29027070792E+02  0.66468608442E+02  0.19989643700E+03  0.17677836559E+03 0.  0.
        -24    2    5    5    0    0  0.74819687022E+02 -0.71356783906E+02  0.14876762010E+02  0.13108508312E+03  0.79197252436E+02 0.  0.
          5    1    3    3  501    0  0.34620742326E+02  0.28555687347E+02  0.48741462037E+02  0.66421707300E+02  0.47000000000E+01 0. -1.
        -11    1    4    4    0    0  0.19304726086E+01  0.83122303759E+00 -0.25576252888E+02  0.25662470029E+02  0.00000000000E+00 0.  1.
         12    1    4    4    0    0 -0.95265337939E+02 -0.35983959342E+00  0.19973059921E+02  0.97337234499E+02  0.00000000000E+00 0. -1.
         -5    1    5    5    0  502 -0.16105564017E+02  0.42329713115E+02  0.51591846433E+02  0.68811353882E+02  0.47000000000E+01 0.  1.
         11    1    6    6    0    0  0.49887837500E+02 -0.87245017987E+02  0.86528459874E+01  0.10087299558E+03  0.00000000000E+00 0. -1.
        -12    1    6    6    0    0  0.24931849522E+02  0.15888234081E+02  0.62239160223E+01  0.30212087539E+02  0.00000000000E+00 0.  1.
</event>
<event>
12    1  0.9873238E-001  0.2044761E+03  0.7818608E-02  0.1146362E+00
         21   -1    0    0  501  502  0.00000000000E+00  0.00000000000E+00  0.58352061465E+03  0.58352061465E+03  0.00000000000E+00 0. -1.
         21   -1    0    0  502  503 -0.00000000000E+00 -0.00000000000E+00 -0.71880854140E+02  0.71880854140E+02  0.00000000000E+00 0. -1.
         -6    2    1    2    0  503  0.71506202658E+02  0.80173428666E+02  0.21985963161E+03  0.29910645315E+03  0.17200435176E+03 0.  0.
        -24    2    3    3    0    0  0.68334209189E+02  0.11801073738E+03  0.20297901885E+03  0.25728817294E+03  0.80003897154E+02 0.  0.
          6    2    1    2  501    0 -0.71506202658E+02 -0.80173428666E+02  0.29178012890E+03  0.35629501564E+03  0.17398154748E+03 0.  0.
         24    2    5    5    0    0 -0.46039413665E+02 -0.77165116935E+01  0.58279488403E+02  0.11044302506E+03  0.81375615830E+02 0.  0.
          5    1    5    5  501    0 -0.25466788993E+02 -0.72456916973E+02  0.23350064050E+03  0.24585199058E+03  0.47000000000E+01 0. -1.
        -13    1    6    6    0    0 -0.78874244988E+01  0.18950195044E+02 -0.13732925497E+02  0.24696449140E+02  0.00000000000E+00 0.  1.
         14    1    6    6    0    0 -0.38151989166E+02 -0.26666706738E+02  0.72012413900E+02  0.85746575916E+02  0.00000000000E+00 0. -1.
         -5    1    3    3    0  503  0.31719934691E+01 -0.37837308709E+02  0.16880612757E+02  0.41818280213E+02  0.47000000000E+01 0.  1.
         11    1    4    4    0    0 -0.67606857551E+01  0.48676757499E+02  0.33846561251E+02  0.59671796529E+02  0.00000000000E+00 0. -1.
        -12    1    4    4    0    0  0.75094894944E+02  0.69333979877E+02  0.16913245760E+03  0.19761637641E+03  0.00000000000E+00 0.  1.
</event>
<event>
12    1  0.9873238E-001  0.1799881E+03  0.7818608E-02  0.1168897E+00
         21   -1    0    0  501  502  0.00000000000E+00  0.00000000000E+00  0.14077453818E+04  0.14077453818E+04  0.00000000000E+00 0.  1.
         21   -1    0    0  502  503 -0.00000000000E+00 -0.00000000000E+00 -0.23338710981E+02  0.23338710981E+02  0.00000000000E+00 0.  1.
         -6    2    1    2    0  503 -0.41371133672E+02 -0.22626359215E+02  0.83995369337E+03  0.85902148271E+03  0.17370140445E+03 0.  0.
        -24    2    3    3    0    0  0.19820983769E+02  0.19227015178E+02  0.64379187467E+03  0.64926512571E+03  0.79464936028E+02 0.  0.
          6    2    1    2  501    0  0.41371133672E+02  0.22626359215E+02  0.54445297748E+03  0.57206261011E+03  0.16912439908E+03 0.  0.
         24    2    5    5    0    0  0.63813531393E+02 -0.34573781450E+02  0.42152410235E+03  0.43455218996E+03  0.76717167496E+02 0.  0.
          5    1    5    5  501    0 -0.22442397721E+02  0.57200140665E+02  0.12292887513E+03  0.13751042014E+03  0.47000000000E+01 0. -1.
        -13    1    6    6    0    0  0.40883850255E+02  0.20374077199E+02  0.16474292388E+03  0.17095854235E+03  0.00000000000E+00 0.  1.
         14    1    6    6    0    0  0.22929681138E+02 -0.54947858649E+02  0.25678117847E+03  0.26359364761E+03  0.00000000000E+00 0. -1.
         -5    1    3    3    0  503 -0.61192117441E+02 -0.41853374392E+02  0.19616181870E+03  0.20975635700E+03  0.47000000000E+01 0.  1.
         11    1    4    4    0    0  0.25084069484E+02  0.23624682047E+02  0.10662711952E+03  0.11205658731E+03  0.00000000000E+00 0. -1.
        -12    1    4    4    0    0 -0.52630857141E+01 -0.43976668689E+01  0.53716475515E+03  0.53720853840E+03  0.00000000000E+00 0.  1.
</event>
<event>
12    1  0.9873238E-001  0.2631141E+03  0.7818608E-02  0.1105294E+00
         21   -1    0    0  501  502  0.00000000000E+00  0.00000000000E+00  0.27825731698E+03  0.27825731698E+03  0.00000000000E+00 0. -1.
         21   -1    0    0  502  503 -0.00000000000E+00 -0.00000000000E+00 -0.24899444943E+03  0.24899444943E+03  0.00000000000E+00 0. -1.
         -6    2    1    2    0  503 -0.35758939196E+02  0.19664468963E+03  0.22925744290E+02  0.26411099283E+03  0.17111747745E+03 0.  0.
        -24    2    3    3    0    0  0.14591690500E+02  0.17899938543E+03  0.51927215748E+02  0.20320353829E+03  0.79633817084E+02 0.  0.
          6    2    1    2  501    0  0.35758939196E+02 -0.19664468963E+03  0.63371232637E+01  0.26314077359E+03  0.17104114097E+03 0.  0.
         24    2    5    5    0    0  0.74359322201E+02 -0.17596169885E+03  0.34403168154E+02  0.21091464458E+03  0.82520185771E+02 0.  0.
          5    1    5    5  501    0 -0.38600383006E+02 -0.20682990779E+02 -0.28066044890E+02  0.52226129012E+02  0.47000000000E+01 0. -1.
        -11    1    6    6    0    0  0.26688814596E+02 -0.11532298152E+03  0.55807102344E+02  0.13086678556E+03  0.00000000000E+00 0.  1.
         12    1    6    6    0    0  0.47670507606E+02 -0.60638717322E+02 -0.21403934190E+02  0.80047859014E+02  0.00000000000E+00 0. -1.
         -5    1    3    3    0  503 -0.50350629696E+02  0.17645304196E+02 -0.29001471458E+02  0.60907454533E+02  0.47000000000E+01 0.  1.
         13    1    4    4    0    0 -0.21966171247E+02  0.14374881914E+03  0.33922287261E+02  0.14932165702E+03  0.00000000000E+00 0. -1.
        -14    1    4    4    0    0  0.36557861747E+02  0.35250566292E+02  0.18004928487E+02  0.53881881271E+02  0.00000000000E+00 0.  1.
</event>
<event>
12    1  0.9873238E-001  0.2730976E+03  0.7818608E-02  0.1099629E+00
         21   -1    0    0  501  502  0.00000000000E+00  0.00000000000E+00  0.18116208801E+03  0.18116208801E+03  0.00000000000E+00 0.  1.
         21   -1    0    0  502  503 -0.00000000000E+00 -0.00000000000E+00 -0.42250476847E+03  0.42250476847E+03  0.00000000000E+00 0.  1.
         -6    2    1    2    0  503  0.17854465297E+03 -0.11243307350E+03 -0.69676266630E+02  0.28109650264E+03  0.17216582862E+03 0.  0.
        -24    2    3    3    0    0  0.96992827165E+02 -0.13790930829E+03 -0.64957786214E+02  0.19539881953E+03  0.74394884565E+02 0.  0.
          6    2    1    2  501    0 -0.17854465297E+03  0.11243307350E+03 -0.17166641383E+03  0.32257035384E+03  0.17338652317E+03 0.  0.
         24    2    5    5    0    0 -0.75045295957E+02  0.10959657384E+03 -0.50248869725E+02  0.16293178504E+03  0.79866214535E+02 0.  0.
          5    1    5    5  501    0 -0.10349935702E+03  0.28364996570E+01 -0.12141754410E+03  0.15963856880E+03  0.47000000000E+01 0. -1.
        -11    1    6    6    0    0 -0.52205775664E+01  0.30052326263E+01 -0.33936093745E+02  0.34466568032E+02  0.00000000000E+00 0.  1.
         12    1    6    6    0    0 -0.69824718390E+02  0.10659134121E+03 -0.16312775980E+02  0.12846521700E+03  0.00000000000E+00 0. -1.
         -5    1    3    3    0  503  0.81551825808E+02  0.25476234798E+02 -0.47184804153E+01  0.85697683105E+02  0.47000000000E+01 0.  1.
         13    1    4    4    0    0  0.73877975677E+02 -0.61872527866E+02 -0.62004111556E+01  0.96564020697E+02  0.00000000000E+00 0. -1.
        -14    1    4    4    0    0  0.23114851488E+02 -0.76036780428E+02 -0.58757375059E+02  0.98834798836E+02  0.00000000000E+00 0.  1.
</event>
<event>
12    1  0.9873238E-001  0.5395148E+03  0.7818608E-02  0.1003982E+00
         21   -1    0    0  503  502  0.00000000000E+00  0.00000000000E+00  0.87020873723E+03  0.87020873723E+03  0.00000000000E+00 0. -1.
         21   -1    0    0  501  503 -0.00000000000E+00 -0.00000000000E+00 -0.34522043117E+03  0.34522043117E+03  0.00000000000E+00 0. -1.
          6    2    1    2  501    0 -0.17600217889E+03  0.47940513843E+03  0.15382529873E+03  0.56101555588E+03  0.17398326840E+03 0.  0.
         24    2    3    3    0    0 -0.84970534424E+02  0.40580379958E+03  0.11656607347E+03  0.43807550040E+03  0.80160957388E+02 0.  0.
         -6    2    1    2    0  502  0.17600217889E+03 -0.47940513843E+03  0.37116300732E+03  0.65441361252E+03  0.17230538159E+03 0.  0.
        -24    2    5    5    0    0  0.15288715494E+03 -0.22064224063E+03  0.18424530173E+03  0.33433102900E+03  0.75983058957E+02 0.  0.
          5    1    3    3  501    0 -0.91031644467E+02  0.73601338843E+02  0.37259225264E+02  0.12294005548E+03  0.47000000000E+01 0. -1.
        -11    1    4    4    0    0 -0.72317671348E+02  0.23545313557E+03  0.10214182752E+03  0.26664766559E+03  0.00000000000E+00 0.  1.
         12    1    4    4    0    0 -0.12652863076E+02  0.17035066402E+03  0.14424245948E+02  0.17142783480E+03  0.00000000000E+00 0. -1.
         -5    1    5    5    0  502  0.23115023950E+02 -0.25876289780E+03  0.18691770559E+03  0.32008258352E+03  0.47000000000E+01 0.  1.
         13    1    6    6    0    0  0.12642272932E+03 -0.13228442924E+03  0.14756678698E+03  0.23506984776E+03  0.00000000000E+00 0. -1.
        -14    1    6    6    0    0  0.26464425625E+02 -0.88357811391E+02  0.36678514755E+02  0.99261181245E+02  0.00000000000E+00 0.  1.
</event>
<event>
12    1  0.9873238E-001  0.2411811E+03  0.7818608E-02  0.1119354E+00
         21   -1    0    0  503  502  0.00000000000E+00  0.00000000000E+00  0.22139373163E+03  0.22139373163E+03  0.00000000000E+00 0. -1.
         21   -1    0    0  501  503 -0.00000000000E+00 -0.00000000000E+00 -0.27158261391E+03  0.27158261391E+03  0.00000000000E+00 0. -1.
          6    2    1    2  501    0 -0.97302944583E+02  0.13447122467E+03  0.24845195990E+02  0.24039286568E+03  0.17210773608E+03 0.  0.
         24    2    3    3    0    0 -0.73171327344E+02  0.65214431609E+02 -0.51483389947E+02  0.13443541495E+03  0.76258613392E+02 0.  0.
         -6    2    1    2    0  502  0.97302944583E+02 -0.13447122467E+03 -0.75034078271E+02  0.25258347986E+03  0.17497979342E+03 0.  0.
        -24    2    5    5    0    0  0.44643028258E+02 -0.30055453403E+02 -0.93135572998E+02  0.13415428503E+03  0.80167368562E+02 0.  0.
          5    1    3    3  501    0 -0.24131617239E+02  0.69256793059E+02  0.76328585938E+02  0.10595745074E+03  0.47000000000E+01 0. -1.
        -11    1    4    4    0    0 -0.21799590487E+02 -0.16684902960E+02 -0.97053969248E+01  0.29117054481E+02  0.00000000000E+00 0.  1.
         12    1    4    4    0    0 -0.51371736857E+02  0.81899334569E+02 -0.41777993023E+02  0.10531836047E+03  0.00000000000E+00 0. -1.
         -5    1    5    5    0  502  0.52659916325E+02 -0.10441577126E+03  0.18101494727E+02  0.11842919483E+03  0.47000000000E+01 0.  1.
         13    1    6    6    0    0  0.59281621091E+02 -0.78570160029E+01 -0.32766744060E+02  0.68188729390E+02  0.00000000000E+00 0. -1.
        -14    1    6    6    0    0 -0.14638592832E+02 -0.22198437400E+02 -0.60368828939E+02  0.65965555637E+02  0.00000000000E+00 0.  1.
</event>
<event>
12    1  0.9873238E-001  0.1800265E+03  0.7818608E-02  0.1174725E+00
         21   -1    0    0  501  502  0.00000000000E+00  0.00000000000E+00  0.54796021951E+02  0.54796021951E+02  0.00000000000E+00 0.  1.
         21   -1    0    0  502  503 -0.00000000000E+00 -0.00000000000E+00 -0.59196533099E+03  0.59196533099E+03  0.00000000000E+00 0.  1.
         -6    2    1    2    0  503  0.75943077982E+01 -0.34141433386E+02 -0.16528771250E+03  0.24439632113E+03  0.17659621427E+03 0.  0.
        -24    2    3    3    0    0  0.72297566757E+02 -0.95289592808E+01 -0.11710277208E+03  0.15992050160E+03  0.80893562045E+02 0.  0.
          6    2    1    2  501    0 -0.75943077982E+01  0.34141433386E+02 -0.37188159653E+03  0.40236503181E+03  0.14959407072E+03 0.  0.
         24    2    5    5    0    0 -0.48807055137E+02  0.52260351255E+02 -0.24265791786E+03  0.26544302898E+03  0.80398156632E+02 0.  0.
          5    1    5    5  501    0  0.41212747339E+02 -0.18118917868E+02 -0.12922367868E+03  0.13692200283E+03  0.47000000000E+01 0. -1.
        -11    1    6    6    0    0  0.81863618977E+01 -0.12698052181E+02 -0.12541402610E+02  0.19635270045E+02  0.00000000000E+00 0.  1.
         12    1    6    6    0    0 -0.56993417035E+02  0.64958403436E+02 -0.23011651525E+03  0.24580775893E+03  0.00000000000E+00 0. -1.
         -5    1    3    3    0  503 -0.64703258958E+02 -0.24612474106E+02 -0.48184940423E+02  0.84475819528E+02  0.47000000000E+01 0.  1.
         11    1    4    4    0    0  0.48308922295E+00 -0.83164171057E+01 -0.77411447746E+02  0.77858386901E+02  0.00000000000E+00 0. -1.
        -12    1    4    4    0    0  0.71814477534E+02 -0.12125421751E+01 -0.39691324332E+02  0.82062114701E+02  0.00000000000E+00 0.  1.
</event>
<event>
12    1  0.9873238E-001  0.3997631E+03  0.7818608E-02  0.1043927E+00
         21   -1    0    0  503  502  0.00000000000E+00  0.00000000000E+00  0.14381307114E+03  0.14381307114E+03  0.00000000000E+00 0.  1.
         21   -1    0    0  501  503 -0.00000000000E+00 -0.00000000000E+00 -0.11744676929E+04  0.11744676929E+04  0.00000000000E+00 0.  1.
          6    2    1    2  501    0  0.29861321947E+03 -0.20244453045E+03 -0.67031795780E+03  0.78008648002E+03  0.17045559246E+03 0.  0.
         24    2    3    3    0    0  0.29379366406E+03 -0.20696225447E+03 -0.67636836105E+03  0.76997038768E+03  0.78943943761E+02 0.  0.
         -6    2    1    2    0  502 -0.29861321947E+03  0.20244453045E+03 -0.36033666392E+03  0.53819428399E+03  0.17221188461E+03 0.  0.
        -24    2    5    5    0    0 -0.27079879137E+03  0.21576200681E+03 -0.36144951745E+03  0.50698008802E+03  0.80609099977E+02 0.  0.
          5    1    3    3  501    0  0.48195554152E+01  0.45177240172E+01  0.60504032499E+01  0.10116092338E+02  0.47000000000E+01 0. -1.
        -13    1    4    4    0    0  0.13008524498E+03 -0.45336867047E+02 -0.26332556310E+03  0.29718336874E+03  0.00000000000E+00 0.  1.
         14    1    4    4    0    0  0.16370841908E+03 -0.16162538742E+03 -0.41304279796E+03  0.47278701894E+03  0.00000000000E+00 0. -1.
         -5    1    5    5    0  502 -0.27814428099E+02 -0.13317476355E+02  0.11128535234E+01  0.31214195968E+02  0.47000000000E+01 0.  1.
         11    1    6    6    0    0 -0.23818117227E+03  0.19911574242E+03 -0.28161349963E+03  0.41914617126E+03  0.00000000000E+00 0. -1.
        -12    1    6    6    0    0 -0.32617619099E+02  0.16646264387E+02 -0.79836017817E+02  0.87833916766E+02  0.00000000000E+00 0.  1.
</event>
<event>
12    1  0.9873238E-001  0.2210222E+03  0.7818608E-02  0.1133336E+00
         21   -1    0    0  503  502  0.00000000000E+00  0.00000000000E+00  0.22180597668E+03  0.22180597668E+03  0.00000000000E+00 0. -1.
         21   -1    0    0  501  503 -0.00000000000E+00 -0.00000000000E+00 -0.31233613788E+03  0.31233613788E+03  0.00000000000E+00 0. -1.
          6    2    1    2  501    0 -0.13803498728E+03 -0.62732317867E+01  0.10073165402E+03  0.24185474996E+03  0.17103754794E+03 0.  0.
         24    2    3    3    0    0 -0.87511471462E+02  0.37874624286E+02  0.12058881143E+03  0.17172590035E+03  0.76520445677E+02 0.  0.
         -6    2    1    2    0  502  0.13803498728E+03  0.62732317867E+01 -0.19126181521E+03  0.29228736460E+03  0.17250452283E+03 0.  0.
        -24    2    5    5    0    0  0.16067117114E+02 -0.34928631815E+02 -0.52948766338E+02  0.10327322649E+03  0.79897596211E+02 0.  0.
          5    1    3    3  501    0 -0.50523515819E+02 -0.44147856072E+02 -0.19857157419E+02  0.70128849607E+02  0.47000000000E+01 0. -1.
        -11    1    4    4    0    0 -0.31688724858E+01  0.31513720773E+02  0.59450218227E+02  0.67360855080E+02  0.00000000000E+00 0.  1.
         12    1    4    4    0    0 -0.84342598976E+02  0.63609035123E+01  0.61138593207E+02  0.10436504527E+03  0.00000000000E+00 0. -1.
         -5    1    5    5    0  502  0.12196787017E+03  0.41201863602E+02 -0.13831304888E+03  0.18901413811E+03  0.47000000000E+01 0.  1.
         11    1    6    6    0    0 -0.28128117068E+02  0.51980413077E+01 -0.21633688267E+02  0.35864008020E+02  0.00000000000E+00 0. -1.
        -12    1    6    6    0    0  0.44195234182E+02 -0.40126673123E+02 -0.31315078071E+02  0.67409218471E+02  0.00000000000E+00 0.  1.
</event>
<event>
12    1  0.9873238E-001  0.3248311E+03  0.7818608E-02  0.1073464E+00
         21   -1    0    0  503  502  0.00000000000E+00  0.00000000000E+00  0.40897309800E+03  0.40897309800E+03  0.00000000000E+00 0.  1.
         21   -1    0    0  501  503 -0.00000000000E+00 -0.00000000000E+00 -0.29860422478E+03  0.29860422478E+03  0.00000000000E+00 0.  1.
          6    2    1    2  501    0  0.82901916718E+02 -0.26302070122E+03 -0.75452127694E+02  0.33347903594E+03  0.17164680822E+03 0.  0.
         24    2    3    3    0    0  0.78290492837E+02 -0.25697362188E+03 -0.24393109562E+02  0.28164327868E+03  0.81012770710E+02 0.  0.
         -6    2    1    2    0  502 -0.82901916718E+02  0.26302070122E+03  0.18582100092E+03  0.37409828684E+03  0.17136938690E+03 0.  0.
        -24    2    5    5    0    0 -0.91810606586E+02  0.11343680806E+03  0.55206764451E+02  0.17525947117E+03  0.79818534748E+02 0.  0.
          5    1    3    3  501    0  0.46114238808E+01 -0.60470793399E+01 -0.51059018132E+02  0.51835757266E+02  0.47000000000E+01 0. -1.
        -13    1    4    4    0    0  0.36527269249E+01 -0.49866174781E+02  0.25183721373E+02  0.55983905039E+02  0.00000000000E+00 0.  1.
         14    1    4    4    0    0  0.74637765912E+02 -0.20710744710E+03 -0.49576830935E+02  0.22565937364E+03  0.00000000000E+00 0. -1.
         -5    1    5    5    0  502  0.89086898687E+01  0.14958389316E+03  0.13061423647E+03  0.19883881567E+03  0.47000000000E+01 0.  1.
         13    1    6    6    0    0 -0.54607366176E+02  0.31883244454E+02 -0.10524291473E+02  0.64103560187E+02  0.00000000000E+00 0. -1.
        -14    1    6    6    0    0 -0.37203240410E+02  0.81553563605E+02  0.65731055924E+02  0.11115591098E+03  0.00000000000E+00 0.  1.
</event>
<event>
12    1  0.9873238E-001  0.1908537E+03  0.7818608E-02  0.1157793E+00
         21   -1    0    0  501  502  0.00000000000E+00  0.00000000000E+00  0.11087180691E+03  0.11087180691E+03  0.00000000000E+00 0. -1.
         21   -1    0    0  502  503 -0.00000000000E+00 -0.00000000000E+00 -0.32868591116E+03  0.32868591116E+03  0.00000000000E+00 0. -1.
         -6    2    1    2    0  503  0.21723735871E+02  0.77467107515E+02 -0.97462323341E+02  0.21429891408E+03  0.17306659602E+03 0.  0.
        -24    2    3    3    0    0 -0.56032131229E+01  0.17625533546E+01 -0.10601237087E+03  0.13322404143E+03  0.80470614796E+02 0.  0.
          6    2    1    2  501    0 -0.21723735871E+02 -0.77467107515E+02 -0.12035178091E+03  0.22525880400E+03  0.17258013837E+03 0.  0.
         24    2    5    5    0    0  0.55573366471E+02 -0.57654815189E+02 -0.84090014449E+02  0.13748423669E+03  0.73609157270E+02 0.  0.
          5    1    5    5  501    0 -0.77297102342E+02 -0.19812292326E+02 -0.36261766465E+02  0.87774567301E+02  0.47000000000E+01 0. -1.
        -13    1    6    6    0    0  0.40476882007E+02 -0.41686827849E+02 -0.96205805000E+02  0.11239095386E+03  0.00000000000E+00 0.  1.
         14    1    6    6    0    0  0.15096484464E+02 -0.15967987340E+02  0.12115790552E+02  0.25093282838E+02  0.00000000000E+00 0. -1.
         -5    1    3    3    0  503  0.27326948994E+02  0.75704554160E+02  0.85500475293E+01  0.81074872647E+02  0.47000000000E+01 0.  1.
         11    1    4    4    0    0  0.33241961272E+02 -0.17173137182E+02 -0.46764237259E+02  0.59890220540E+02  0.00000000000E+00 0. -1.
        -12    1    4    4    0    0 -0.38845174395E+02  0.18935690537E+02 -0.59248133611E+02  0.73333820889E+02  0.00000000000E+00 0.  1.
</event>
<event>
12    1  0.9873238E-001  0.2526858E+03  0.7818608E-02  0.1111825E+00
         21   -1    0    0  503  502  0.00000000000E+00  0.00000000000E+00  0.11572089054E+03  0.11572089054E+03  0.00000000000E+00 0.  1.
         21   -1    0    0  501  503 -0.00000000000E+00 -0.00000000000E+00 -0.55472599174E+03  0.55472599174E+03  0.00000000000E+00 0.  1.
          6    2    1    2  501    0 -0.13271031036E+03 -0.12975180851E+03 -0.18566534636E+03  0.31356300603E+03  0.17147180416E+03 0.  0.
         24    2    3    3    0    0 -0.46745144460E+02 -0.12551232244E+03 -0.15937801010E+03  0.22344587648E+03  0.81168084822E+02 0.  0.
         -6    2    1    2    0  502  0.13271031036E+03  0.12975180851E+03 -0.25333975484E+03  0.35688387626E+03  0.16952141890E+03 0.  0.
        -24    2    5    5    0    0  0.30142571414E+01  0.50811675528E+02 -0.75393360956E+02  0.12291887907E+03  0.82667888801E+02 0.  0.
          5    1    3    3  501    0 -0.85965165903E+02 -0.42394860621E+01 -0.26287336255E+02  0.90117129550E+02  0.47000000000E+01 0. -1.
        -13    1    4    4    0    0  0.51229896007E+01 -0.43797245078E+02 -0.10152254170E+03  0.11068545601E+03  0.00000000000E+00 0.  1.
         14    1    4    4    0    0 -0.51868134060E+02 -0.81715077366E+02 -0.57855468407E+02  0.11276042047E+03  0.00000000000E+00 0. -1.
         -5    1    5    5    0  502  0.12969605322E+03  0.78940132977E+02 -0.17794639388E+03  0.23396499719E+03  0.47000000000E+01 0.  1.
         11    1    6    6    0    0  0.36348866917E+02  0.46393352229E+02 -0.29176269486E+02  0.65763500198E+02  0.00000000000E+00 0. -1.
        -12    1    6    6    0    0 -0.33334609776E+02  0.44183232991E+01 -0.46217091470E+02  0.57155378869E+02  0.00000000000E+00 0.  1.
</event>
<event>
12    1  0.9873238E-001  0.1773396E+03  0.7818608E-02  0.1171787E+00
         21   -1    0    0  503  502  0.00000000000E+00  0.00000000000E+00  0.29223521255E+03  0.29223521255E+03  0.00000000000E+00 0.  1.
         21   -1    0    0  501  503 -0.00000000000E+00 -0.00000000000E+00 -0.22494779007E+03  0.22494779007E+03  0.00000000000E+00 0.  1.
          6    2    1    2  501    0  0.34665844281E+02  0.74046086178E+01  0.22326198981E+03  0.28512323329E+03  0.17376073515E+03 0.  0.
         24    2    3    3    0    0  0.15406541355E+00  0.17744118498E+02  0.23355181155E+03  0.24736162876E+03  0.79538979317E+02 0.  0.
         -6    2    1    2    0  502 -0.34665844281E+02 -0.74046086178E+01 -0.15597456733E+03  0.23205976934E+03  0.16812829001E+03 0.  0.
        -24    2    5    5    0    0 -0.47848346068E+02  0.43468234055E+02 -0.53008979478E+02  0.11636263559E+03  0.80940468632E+02 0.  0.
          5    1    3    3  501    0  0.34511778868E+02 -0.10339509881E+02 -0.10289821735E+02  0.37761604528E+02  0.47000000000E+01 0. -1.
        -13    1    4    4    0    0 -0.34791727661E+02 -0.45259194151E+01  0.65821687353E+02  0.74588489636E+02  0.00000000000E+00 0.  1.
         14    1    4    4    0    0  0.34945793074E+02  0.22270037913E+02  0.16773012419E+03  0.17277313913E+03  0.00000000000E+00 0. -1.
         -5    1    5    5    0  502  0.13182501787E+02 -0.50872842673E+02 -0.10296558786E+03  0.11569713375E+03  0.47000000000E+01 0.  1.
         13    1    6    6    0    0 -0.31945232564E+01  0.56480354041E+02 -0.23351972209E+02  0.61200898502E+02  0.00000000000E+00 0. -1.
        -14    1    6    6    0    0 -0.44653822812E+02 -0.13012119985E+02 -0.29657007268E+02  0.55161737086E+02  0.00000000000E+00 0.  1.
</event>
<event>
12    1  0.9873238E-001  0.1785456E+03  0.7818608E-02  0.1170374E+00
         21   -1    0    0  501  502  0.00000000000E+00  0.00000000000E+00  0.43209767869E+02  0.43209767869E+02  0.00000000000E+00 0. -1.
         21   -1    0    0  502  503 -0.00000000000E+00 -0.00000000000E+00 -0.72749059131E+03  0.72749059131E+03  0.00000000000E+00 0. -1.
         -6    2    1    2    0  503 -0.36829191007E+02 -0.49716497549E+01 -0.38020261456E+03  0.41807860882E+03  0.16986638403E+03 0.  0.
        -24    2    3    3    0    0  0.33884512323E+02 -0.24833528873E+02 -0.27548246048E+03  0.29008125435E+03  0.80570985862E+02 0.  0.
          6    2    1    2  501    0  0.36829191007E+02  0.49716497549E+01 -0.30407820888E+03  0.35262175036E+03  0.17463514851E+03 0.  0.
         24    2    5    5    0    0 -0.31870510718E+02  0.11012326862E+02 -0.24980251162E+03  0.26473500443E+03  0.80909374994E+02 0.  0.
          5    1    5    5  501    0  0.68699701725E+02 -0.60406771069E+01 -0.54275697267E+02  0.87886745934E+02  0.47000000000E+01 0. -1.
        -11    1    6    6    0    0  0.17742509009E+02  0.29213087965E+02 -0.83021455126E+02  0.89781752855E+02  0.00000000000E+00 0.  1.
         12    1    6    6    0    0 -0.49613019727E+02 -0.18200761103E+02 -0.16678105649E+03  0.17495325157E+03  0.00000000000E+00 0. -1.
         -5    1    3    3    0  503 -0.70713703330E+02  0.19861879118E+02 -0.10472015408E+03  0.12799735447E+03  0.47000000000E+01 0.  1.
         13    1    4    4    0    0 -0.10045239727E+02 -0.41175624656E+02 -0.15821936821E+03  0.16379776368E+03  0.00000000000E+00 0. -1.
        -14    1    4    4    0    0  0.43929752050E+02  0.16342095783E+02 -0.11726309226E+03  0.12628349067E+03  0.00000000000E+00 0.  1.
</event>
<event>
12    1  0.9873238E-001  0.2894269E+03  0.7818608E-02  0.1091026E+00
         21   -1    0    0  501  502  0.00000000000E+00  0.00000000000E+00  0.82865586390E+02  0.82865586390E+02  0.00000000000E+00 0.  1.
         21   -1    0    0  502  503 -0.00000000000E+00 -0.00000000000E+00 -0.18315206566E+04  0.18315206566E+04  0.00000000000E+00 0. -1.
         -6    2    1    2    0  503 -0.12768699766E+03 -0.19050114102E+03 -0.23210344588E+03  0.37099856128E+03  0.17655953324E+03 0.  0.
        -24    2    3    3    0    0 -0.77746819189E+02 -0.20636811821E+03 -0.21157025918E+03  0.31452304315E+03  0.74366672618E+02 0.  0.
          6    2    1    2  501    0  0.12768699766E+03  0.19050114102E+03 -0.15165516243E+04  0.15433876817E+04  0.17181982631E+03 0.  0.
         24    2    5    5    0    0  0.14458826236E+03  0.11080734883E+03 -0.12145500805E+04  0.12305558168E+04  0.77147170591E+02 0.  0.
          5    1    5    5  501    0 -0.16901264693E+02  0.79693792186E+02 -0.30200154377E+03  0.31283186491E+03  0.47000000000E+01 0. -1.
        -13    1    6    6    0    0  0.99212400380E+02  0.10626395673E+03 -0.10415148482E+04  0.10516122422E+04  0.00000000000E+00 0.  1.
         14    1    6    6    0    0  0.45375861977E+02  0.45433921020E+01 -0.17303523232E+03  0.17894357459E+03  0.00000000000E+00 0. -1.
         -5    1    3    3    0  503 -0.49940178475E+02  0.15866977191E+02 -0.20533186701E+02  0.56475518124E+02  0.47000000000E+01 0.  1.
         11    1    4    4    0    0 -0.73179668909E+02 -0.17911941182E+03 -0.21182213656E+03  0.28689309014E+03  0.00000000000E+00 0. -1.
        -12    1    4    4    0    0 -0.45671502804E+01 -0.27248706385E+02  0.25187737458E+00  0.27629953014E+02  0.00000000000E+00 0.  1.
</event>
<event>
12    1  0.9873238E-001  0.4168815E+03  0.7818608E-02  0.1038104E+00
         21   -1    0    0  501  502  0.00000000000E+00  0.00000000000E+00  0.78001235110E+03  0.78001235110E+03  0.00000000000E+00 0.  1.
         21   -1    0    0  502  503 -0.00000000000E+00 -0.00000000000E+00 -0.24552611086E+03  0.24552611086E+03  0.00000000000E+00 0. -1.
         -6    2    1    2    0  503 -0.37198530606E+03 -0.76232799437E+02  0.42356463629E+03  0.59415260793E+03  0.17153953703E+03 0.  0.
        -24    2    3    3    0    0 -0.12339055852E+03 -0.56773853698E+01  0.21975640385E+03  0.26500628702E+03  0.81718984885E+02 0.  0.
          6    2    1    2  501    0  0.37198530606E+03  0.76232799437E+02  0.11092160395E+03  0.43138585403E+03  0.17206291057E+03 0.  0.
         24    2    5    5    0    0  0.15666082269E+03  0.90781186111E+02  0.78388670495E+02  0.21308154703E+03  0.80468160817E+02 0.  0.
          5    1    5    5  501    0  0.21532448337E+03 -0.14548386673E+02  0.32532933457E+02  0.21830430699E+03  0.47000000000E+01 0. -1.
        -11    1    6    6    0    0  0.13881438770E+03  0.10370042198E+03  0.57082150339E+02  0.18243240841E+03  0.00000000000E+00 0.  1.
         12    1    6    6    0    0  0.17846434998E+02 -0.12919235865E+02  0.21306520156E+02  0.30649138627E+02  0.00000000000E+00 0. -1.
         -5    1    3    3    0  503 -0.24859474755E+03 -0.70555414067E+02  0.20380823243E+03  0.32914632091E+03  0.47000000000E+01 0.  1.
         11    1    4    4    0    0 -0.73696803989E+02 -0.34551005209E+02  0.81055786366E+02  0.11486962776E+03  0.00000000000E+00 0. -1.
        -12    1    4    4    0    0 -0.49693754527E+02  0.28873619839E+02  0.13870061749E+03  0.15013665926E+03  0.00000000000E+00 0.  1.
</event>
<event>
12    1  0.9873238E-001  0.2576556E+03  0.7818608E-02  0.1108694E+00
         21   -1    0    0  503  502  0.00000000000E+00  0.00000000000E+00  0.28493272669E+03  0.28493272669E+03  0.00000000000E+00 0. -1.
         21   -1    0    0  501  503 -0.00000000000E+00 -0.00000000000E+00 -0.27835013984E+03  0.27835013984E+03  0.00000000000E+00 0. -1.
          6    2    1    2  501    0 -0.30264322450E+01 -0.19091698280E+03  0.11797533956E+03  0.28257883962E+03  0.17168041893E+03 0.  0.
         24    2    3    3    0    0  0.34796071817E+01 -0.19143607820E+02  0.35551938348E+02  0.91885032777E+02  0.82464134881E+02 0.  0.
         -6    2    1    2    0  502  0.30264322450E+01  0.19091698280E+03 -0.11139275271E+03  0.28070402691E+03  0.17299697035E+03 0.  0.
        -24    2    5    5    0    0 -0.20265978613E+02  0.16773481574E+03 -0.23582998592E+02  0.18682861909E+03  0.76178059761E+02 0.  0.
          5    1    3    3  501    0 -0.65060394267E+01 -0.17177337498E+03  0.82423401212E+02  0.19069380684E+03  0.47000000000E+01 0. -1.
        -11    1    4    4    0    0 -0.17738191411E+02 -0.21909918420E+01 -0.21941557552E+02  0.28299749603E+02  0.00000000000E+00 0.  1.
         12    1    4    4    0    0  0.21217798593E+02 -0.16952615978E+02  0.57493495899E+02  0.63585283174E+02  0.00000000000E+00 0. -1.
         -5    1    5    5    0  502  0.23292410858E+02  0.23182167057E+02 -0.87809754123E+02  0.93875407813E+02  0.47000000000E+01 0.  1.
         11    1    6    6    0    0  0.68785986790E+01  0.54088294561E+02 -0.41630159992E+02  0.68599773683E+02  0.00000000000E+00 0. -1.
        -12    1    6    6    0    0 -0.27144577292E+02  0.11364652118E+03  0.18047161400E+02  0.11822884541E+03  0.00000000000E+00 0.  1.
</event>
<event>
12    1  0.9873238E-001  0.1962727E+03  0.7818608E-02  0.1153179E+00
         21   -1    0    0  501  502  0.00000000000E+00  0.00000000000E+00  0.31582542521E+03  0.31582542521E+03  0.00000000000E+00 0.  1.
         21   -1    0    0  502  503 -0.00000000000E+00 -0.00000000000E+00 -0.18986900736E+03  0.18986900736E+03  0.00000000000E+00 0.  1.
         -6    2    1    2    0  503 -0.34198153825E+01  0.91971196464E+02 -0.88912749064E+02  0.21547260265E+03  0.17335676921E+03 0.  0.
        -24    2    3    3    0    0  0.35736073256E+02  0.84779533412E+02 -0.11498746442E+03  0.16765122235E+03  0.80126020520E+02 0.  0.
          6    2    1    2  501    0  0.34198153825E+01 -0.91971196464E+02  0.21486916692E+03  0.29022182992E+03  0.17201614911E+03 0.  0.
         24    2    5    5    0    0  0.69099444596E+01 -0.13025563345E+03  0.14465205493E+03  0.21003198061E+03  0.78580776949E+02 0.  0.
          5    1    5    5  501    0 -0.34901290772E+01  0.38284436988E+02  0.70217111990E+02  0.80189849312E+02  0.47000000000E+01 0. -1.
        -13    1    6    6    0    0  0.16919365763E+02 -0.10132281061E+03  0.14698915721E+03  0.17932760308E+03  0.00000000000E+00 0.  1.
         14    1    6    6    0    0 -0.10009421303E+02 -0.28932822844E+02 -0.23371022861E+01  0.30704377532E+02  0.00000000000E+00 0. -1.
         -5    1    3    3    0  503 -0.39155888639E+02  0.71916630524E+01  0.26074715360E+02  0.47821380298E+02  0.47000000000E+01 0.  1.
         11    1    4    4    0    0  0.18835602170E+02 -0.21746242786E+01 -0.61082065241E+02  0.63957232538E+02  0.00000000000E+00 0. -1.
        -12    1    4    4    0    0  0.16900471086E+02  0.86954157690E+02 -0.53905399183E+02  0.10369398981E+03  0.00000000000E+00 0.  1.
</event>
<event>
12    1  0.9873238E-001  0.2541664E+03  0.7818608E-02  0.1110714E+00
         21   -1    0    0  501  502  0.00000000000E+00  0.00000000000E+00  0.19218236257E+03  0.19218236257E+03  0.00000000000E+00 0. -1.
         21   -1    0    0  502  503 -0.00000000000E+00 -0.00000000000E+00 -0.35001464917E+03  0.35001464917E+03  0.00000000000E+00 0. -1.
         -6    2    1    2    0  503 -0.11810391568E+03  0.14434273952E+03 -0.24686908703E+02  0.25526804007E+03  0.17253685828E+03 0.  0.
        -24    2    3    3    0    0 -0.68961721172E+02  0.15175772565E+03  0.23930883309E+02  0.18558506510E+03  0.77993608271E+02 0.  0.
          6    2    1    2  501    0  0.11810391568E+03 -0.14434273952E+03 -0.13314537789E+03  0.28692897167E+03  0.17267652353E+03 0.  0.
         24    2    5    5    0    0  0.16794695051E+01 -0.94204611303E+02 -0.49395189271E+02  0.13492677543E+03  0.82994099760E+02 0.  0.
          5    1    5    5  501    0  0.11642444618E+03 -0.50138128219E+02 -0.83750188621E+02  0.15200219624E+03  0.47000000000E+01 0. -1.
        -13    1    6    6    0    0  0.23534166669E+02 -0.45968850529E+02 -0.61800330885E+02  0.80537401978E+02  0.00000000000E+00 0.  1.
         14    1    6    6    0    0 -0.21854697164E+02 -0.48235760774E+02  0.12405141614E+02  0.54389373448E+02  0.00000000000E+00 0. -1.
         -5    1    3    3    0  503 -0.49142194509E+02 -0.74149861251E+01 -0.48617792012E+02  0.69682974969E+02  0.47000000000E+01 0.  1.
         13    1    4    4    0    0 -0.38079426105E+02  0.12777137417E+03 -0.10154828997E+02  0.13371120859E+03  0.00000000000E+00 0. -1.
        -14    1    4    4    0    0 -0.30882295068E+02  0.23986351473E+02  0.34085712306E+02  0.51873856508E+02  0.00000000000E+00 0.  1.
</event>
<event>
12    1  0.9873238E-001  0.1813554E+03  0.7818608E-02  0.1166661E+00
         21   -1    0    0  501  502  0.00000000000E+00  0.00000000000E+00  0.13704018224E+03  0.13704018224E+03  0.00000000000E+00 0. -1.
         21   -1    0    0  502  503 -0.00000000000E+00 -0.00000000000E+00 -0.24467999304E+03  0.24467999304E+03  0.00000000000E+00 0. -1.
         -6    2    1    2    0  503 -0.54876918653E+02  0.51230669536E+01 -0.82536764166E+02  0.19863563267E+03  0.17206415987E+03 0.  0.
        -24    2    3    3    0    0 -0.22700219222E+02 -0.62844530976E+02 -0.55501292847E+02  0.11858601640E+03  0.80731126295E+02 0.  0.
          6    2    1    2  501    0  0.54876918653E+02 -0.51230669536E+01 -0.25103046634E+02  0.18308454261E+03  0.17277750079E+03 0.  0.
         24    2    5    5    0    0  0.96090538769E+02  0.14881417987E+02 -0.44140161047E+02  0.13325238808E+03  0.79705689059E+02 0.  0.
          5    1    5    5  501    0 -0.41213620116E+02 -0.20004484941E+02  0.19037114413E+02  0.49832154539E+02  0.47000000000E+01 0. -1.
        -11    1    6    6    0    0  0.64003574488E+02  0.38402983882E+02 -0.54166033277E+02  0.92223673096E+02  0.00000000000E+00 0.  1.
         12    1    6    6    0    0  0.32086964280E+02 -0.23521565895E+02  0.10025872230E+02  0.41028714979E+02  0.00000000000E+00 0. -1.
         -5    1    3    3    0  503 -0.32176699431E+02  0.67967597929E+02 -0.27035471320E+02  0.80049616264E+02  0.47000000000E+01 0.  1.
         13    1    4    4    0    0 -0.23089737265E+02 -0.63735012387E+01  0.14994988278E+02  0.28259638329E+02  0.00000000000E+00 0. -1.
        -14    1    4    4    0    0  0.38951804307E+00 -0.56471029737E+02 -0.70496281125E+02  0.90326378076E+02  0.00000000000E+00 0.  1.
</event>
<event>
12    1  0.9873238E-001  0.1734254E+03  0.7818608E-02  0.1174567E+00
         21   -1    0    0  503  502  0.00000000000E+00  0.00000000000E+00  0.14027359692E+04  0.14027359692E+04  0.00000000000E+00 0. -1.
         21   -1    0    0  501  503 -0.00000000000E+00 -0.00000000000E+00 -0.21630660585E+02  0.21630660585E+02  0.00000000000E+00 0. -1.
          6    2    1    2  501    0 -0.19308804446E+01  0.19382227252E+02  0.77365198549E+03  0.79264207211E+03  0.17136119977E+03 0.  0.
         24    2    3    3    0    0  0.50242252657E+02  0.65199423904E+01  0.66011430053E+03  0.66694254905E+03  0.80589579795E+02 0.  0.
         -6    2    1    2    0  502  0.19308804446E+01 -0.19382227252E+02  0.60745332316E+03  0.63172455772E+03  0.17232811137E+03 0.  0.
        -24    2    5    5    0    0  0.23104006281E+02 -0.15671718718E+01  0.59518003682E+03  0.60109122598E+03  0.80840179266E+02 0.  0.
          5    1    3    3  501    0 -0.52173133102E+02  0.12862284861E+02  0.11353768496E+03  0.12569952306E+03  0.47000000000E+01 0. -1.
        -11    1    4    4    0    0 -0.15646578068E+02  0.14450233518E+02  0.30065125699E+03  0.30140471626E+03  0.00000000000E+00 0.  1.
         12    1    4    4    0    0  0.65888830725E+02 -0.79302911271E+01  0.35946304354E+03  0.36553783279E+03  0.00000000000E+00 0. -1.
         -5    1    5    5    0  502 -0.21173125836E+02 -0.17815055380E+02  0.12273286342E+02  0.30633331740E+02  0.47000000000E+01 0.  1.
         11    1    6    6    0    0  0.70551304698E+01  0.38132876181E+02  0.21119704136E+03  0.21472792411E+03  0.00000000000E+00 0. -1.
        -12    1    6    6    0    0  0.16048875811E+02 -0.39700048053E+02  0.38398299546E+03  0.38636330187E+03  0.00000000000E+00 0.  1.
</event>
<event>
12    1  0.9873238E-001  0.1944540E+03  0.7818608E-02  0.1154527E+00
         21   -1    0    0  501  502  0.00000000000E+00  0.00000000000E+00  0.21032902969E+03  0.21032902969E+03  0.00000000000E+00 0. -1.
         21   -1    0    0  502  503 -0.00000000000E+00 -0.00000000000E+00 -0.23958362708E+03  0.23958362708E+03  0.00000000000E+00 0. -1.
         -6    2    1    2    0  503  0.40174840003E+01 -0.89946915707E+02 -0.12710951531E+03  0.23222490143E+03  0.17223526973E+03 0.  0.
        -24    2    3    3    0    0 -0.21914882311E+02 -0.97692671449E+02 -0.28519977109E+02  0.12988003640E+03  0.77661539001E+02 0.  0.
          6    2    1    2  501    0 -0.40174840003E+01  0.89946915707E+02  0.97854917930E+02  0.21768775534E+03  0.17235366558E+03 0.  0.
         24    2    5    5    0    0  0.48872148685E+02  0.67165399356E+02  0.13382690028E+02  0.11534539842E+03  0.78903654904E+02 0.  0.
          5    1    5    5  501    0 -0.52889632685E+02  0.22781516352E+02  0.84472227902E+02  0.10234235692E+03  0.47000000000E+01 0. -1.
        -11    1    6    6    0    0  0.16138994466E+02 -0.11061074632E+02 -0.16336947293E+02  0.25489416651E+02  0.00000000000E+00 0.  1.
         12    1    6    6    0    0  0.32733154219E+02  0.78226473988E+02  0.29719637320E+02  0.89855981771E+02  0.00000000000E+00 0. -1.
         -5    1    3    3    0  503  0.25932366311E+02  0.77457557415E+01 -0.98589538201E+02  0.10234486503E+03  0.47000000000E+01 0.  1.
         13    1    4    4    0    0  0.28022257943E+02 -0.24328527314E+02 -0.15359398770E+02  0.40162610873E+02  0.00000000000E+00 0. -1.
        -14    1    4    4    0    0 -0.49937140254E+02 -0.73364144135E+02 -0.13160578339E+02  0.89717425529E+02  0.00000000000E+00 0.  1.
</event>
<event>
12    1  0.9873238E-001  0.2296368E+03  0.7818608E-02  0.1126978E+00
         21   -1    0    0  501  502  0.00000000000E+00  0.00000000000E+00  0.22849000838E+03  0.22849000838E+03  0.00000000000E+00 0. -1.
         21   -1    0    0  502  503 -0.00000000000E+00 -0.00000000000E+00 -0.32749890302E+03  0.32749890302E+03  0.00000000000E+00 0. -1.
         -6    2    1    2    0  503  0.14670050351E+03 -0.41339819503E+02 -0.20097159174E+03  0.30516000001E+03  0.17176445068E+03 0.  0.
        -24    2    3    3    0    0  0.12160184415E+02 -0.37503830587E+02 -0.48965628258E+02  0.10207451258E+03  0.80418691694E+02 0.  0.
          6    2    1    2  501    0 -0.14670050351E+03  0.41339819503E+02  0.10196269710E+03  0.25082891139E+03  0.17113951263E+03 0.  0.
         24    2    5    5    0    0 -0.49538768674E+02  0.65368705037E+02  0.24097018552E+02  0.12393153573E+03  0.89728490706E+02 0.  0.
          5    1    5    5  501    0 -0.97161734831E+02 -0.24028885534E+02  0.77865678543E+02  0.12689737566E+03  0.47000000000E+01 0. -1.
        -13    1    6    6    0    0 -0.58620765185E+02  0.32139875799E+01  0.99998383064E+01  0.59554349910E+02  0.00000000000E+00 0.  1.
         14    1    6    6    0    0  0.90819965101E+01  0.62154717457E+02  0.14097180246E+02  0.64377185816E+02  0.00000000000E+00 0. -1.
         -5    1    3    3    0  503  0.13454031909E+03 -0.38359889158E+01 -0.15200596348E+03  0.20308548743E+03  0.47000000000E+01 0.  1.
         13    1    4    4    0    0  0.24946516520E+02 -0.40811324901E+02  0.35117814096E+01  0.47960666544E+02  0.00000000000E+00 0. -1.
        -14    1    4    4    0    0 -0.12786332105E+02  0.33074943133E+01 -0.52477409667E+02  0.54113846035E+02  0.00000000000E+00 0.  1.
</event>
<event>
12    1  0.9873238E-001  0.2123651E+03  0.7818608E-02  0.1139921E+00
         21   -1    0    0  501  502  0.00000000000E+00  0.00000000000E+00  0.63293076169E+03  0.63293076169E+03  0.00000000000E+00 0.  1.
         21   -1    0    0  502  503 -0.00000000000E+00 -0.00000000000E+00 -0.78431925749E+02  0.78431925749E+02  0.00000000000E+00 0.  1.
         -6    2    1    2    0  503 -0.10307723559E+03  0.69055340767E+02  0.16758026505E+03  0.27052190306E+03  0.17235254049E+03 0.  0.
        -24    2    3    3    0    0 -0.95855034839E+02  0.10907535176E+03  0.15622242797E+03  0.22803835416E+03  0.80687197876E+02 0.  0.
          6    2    1    2  501    0  0.10307723559E+03 -0.69055340767E+02  0.38691857088E+03  0.44084078438E+03  0.17100017571E+03 0.  0.
         24    2    5    5    0    0  0.94433658413E+02 -0.40967196031E+02  0.13628155137E+03  0.18844296178E+03  0.79637061782E+02 0.  0.
          5    1    5    5  501    0  0.86435771742E+01 -0.28088144736E+02  0.25063701951E+03  0.25239782260E+03  0.47000000000E+01 0. -1.
        -13    1    6    6    0    0  0.73564461759E+02 -0.51815319124E+02  0.58847281633E+02  0.10751539371E+03  0.00000000000E+00 0.  1.
         14    1    6    6    0    0  0.20869196654E+02  0.10848123093E+02  0.77434269737E+02  0.80927568068E+02  0.00000000000E+00 0. -1.
         -5    1    3    3    0  503 -0.72222007482E+01 -0.40020010994E+02  0.11357837083E+02  0.42483548897E+02  0.47000000000E+01 0.  1.
         11    1    4    4    0    0 -0.67435130763E+02  0.23221394065E+02  0.95149113948E+02  0.11891208470E+03  0.00000000000E+00 0. -1.
        -12    1    4    4    0    0 -0.28419904076E+02  0.85853957697E+02  0.61073314023E+02  0.10912626946E+03  0.00000000000E+00 0.  1.
</event>
<event>
12    1  0.9873238E-001  0.4086268E+03  0.7818608E-02  0.1041078E+00
         21   -1    0    0  503  502  0.00000000000E+00  0.00000000000E+00  0.96418111984E+03  0.96418111984E+03  0.00000000000E+00 0. -1.
         21   -1    0    0  501  503 -0.00000000000E+00 -0.00000000000E+00 -0.18099973920E+03  0.18099973920E+03  0.00000000000E+00 0.  1.
          6    2    1    2  501    0 -0.32363831646E+03 -0.18289520561E+03  0.51827590084E+03  0.65819961155E+03  0.16255584619E+03 0.  0.
         24    2    3    3    0    0 -0.28071312181E+03 -0.13579359913E+03  0.33667577755E+03  0.46568512262E+03  0.79197827731E+02 0.  0.
         -6    2    1    2    0  502  0.32363831646E+03  0.18289520561E+03  0.26490547980E+03  0.48698124749E+03  0.16965673009E+03 0.  0.
        -24    2    5    5    0    0  0.19125886077E+03  0.18072099922E+03  0.19483825042E+03  0.33711279152E+03  0.80268667598E+02 0.  0.
          5    1    3    3  501    0 -0.42925194654E+02 -0.47101606475E+02  0.18160012329E+03  0.19251448893E+03  0.47000000000E+01 0. -1.
        -11    1    4    4    0    0 -0.56541877517E+02 -0.63876559535E+02  0.10627526725E+03  0.13627777222E+03  0.00000000000E+00 0.  1.
         12    1    4    4    0    0 -0.22417124429E+03 -0.71917039599E+02  0.23040051030E+03  0.32940735040E+03  0.00000000000E+00 0. -1.
         -5    1    5    5    0  502  0.13237945569E+03  0.21742063904E+01  0.70067229371E+02  0.14986845597E+03  0.47000000000E+01 0.  1.
         11    1    6    6    0    0  0.19527539785E+03  0.17128634001E+03  0.17052420971E+03  0.31072495454E+03  0.00000000000E+00 0. -1.
        -12    1    6    6    0    0 -0.40165370798E+01  0.94346592079E+01  0.24314040715E+02  0.26387836978E+02  0.00000000000E+00 0.  1.
</event>
<event>
12    1  0.9873238E-001  0.2181801E+03  0.7818608E-02  0.1135327E+00
         21   -1    0    0  503  502  0.00000000000E+00  0.00000000000E+00  0.37691610217E+03  0.37691610217E+03  0.00000000000E+00 0. -1.
         21   -1    0    0  501  503 -0.00000000000E+00 -0.00000000000E+00 -0.13209410630E+03  0.13209410630E+03  0.00000000000E+00 0. -1.
          6    2    1    2  501    0 -0.69036973114E+02 -0.11529415318E+03  0.17696998844E+03  0.28092868215E+03  0.17188281541E+03 0.  0.
         24    2    3    3    0    0 -0.30994902508E+02  0.10485965638E+02  0.67800182981E+02  0.11002527713E+03  0.80237505805E+02 0.  0.
         -6    2    1    2    0  502  0.69036973114E+02  0.11529415318E+03  0.67852007440E+02  0.22808152632E+03  0.17134305449E+03 0.  0.
        -24    2    5    5    0    0 -0.58691142782E+01  0.37141777300E+02  0.82482894237E+02  0.11874320444E+03  0.76697865905E+02 0.  0.
          5    1    3    3  501    0 -0.38042070606E+02 -0.12578011882E+03  0.10916980546E+03  0.17090340503E+03  0.47000000000E+01 0. -1.
        -11    1    4    4    0    0 -0.30345323225E+02 -0.28816532796E+02  0.54104578665E+02  0.68399829214E+02  0.00000000000E+00 0.  1.
         12    1    4    4    0    0 -0.64957928245E+00  0.39302498433E+02  0.13695604316E+02  0.41625447913E+02  0.00000000000E+00 0. -1.
         -5    1    5    5    0  502  0.74906087392E+02  0.78152375879E+02 -0.14630886797E+02  0.10933832188E+03  0.47000000000E+01 0.  1.
         11    1    6    6    0    0  0.15356162712E+02  0.15234930980E+02  0.85403989557E+02  0.88100830231E+02  0.00000000000E+00 0. -1.
        -12    1    6    6    0    0 -0.21225276990E+02  0.21906846320E+02 -0.29210953195E+01  0.30642374204E+02  0.00000000000E+00 0.  1.
</event>
<event>
12    1  0.9873238E-001  0.2743466E+03  0.7818608E-02  0.1099185E+00
         21   -1    0    0  501  502  0.00000000000E+00  0.00000000000E+00  0.40050245464E+03  0.40050245464E+03  0.00000000000E+00 0. -1.
         21   -1    0    0  502  503 -0.00000000000E+00 -0.00000000000E+00 -0.21725277429E+03  0.21725277429E+03  0.00000000000E+00 0.  1.
         -6    2    1    2    0  503  0.12224018323E+03 -0.17250497845E+03  0.20887819375E+03  0.34481318604E+03  0.17482964123E+03 0.  0.
        -24    2    3    3    0    0 -0.21486980956E+01 -0.62397852113E+02  0.11138120716E+02  0.86512199681E+02  0.58840412208E+02 0.  0.
          6    2    1    2  501    0 -0.12224018323E+03  0.17250497845E+03 -0.25628513402E+02  0.27294204290E+03  0.17070415371E+03 0.  0.
         24    2    5    5    0    0 -0.51762477245E+02  0.42735010765E+02 -0.61000444662E+02  0.12101898647E+03  0.80118073122E+02 0.  0.
          5    1    5    5  501    0 -0.70477705981E+02  0.12976996769E+03  0.35371931260E+02  0.15192305643E+03  0.47000000000E+01 0. -1.
        -13    1    6    6    0    0 -0.64415184897E+02  0.44665022543E+02 -0.70225305493E+02  0.10524197744E+03  0.00000000000E+00 0.  1.
         14    1    6    6    0    0  0.12652707653E+02 -0.19300117782E+01  0.92248608314E+01  0.15777009025E+02  0.00000000000E+00 0. -1.
         -5    1    3    3    0  503  0.12438888132E+03 -0.11010712634E+03  0.19774007304E+03  0.25830098636E+03  0.47000000000E+01 0.  1.
         13    1    4    4    0    0 -0.15185511305E+02  0.57894306157E+01  0.39034105413E+01  0.16713882682E+02  0.00000000000E+00 0. -1.
        -14    1    4    4    0    0  0.13036813210E+02 -0.68187282729E+02  0.72347101748E+01  0.69798316999E+02  0.00000000000E+00 0.  1.
</event>
<event>
12    1  0.9873238E-001  0.2243957E+03  0.7818608E-02  0.1130718E+00
         21   -1    0    0  503  502  0.00000000000E+00  0.00000000000E+00  0.44553910140E+02  0.44553910140E+02  0.00000000000E+00 0. -1.
         21   -1    0    0  501  503 -0.00000000000E+00 -0.00000000000E+00 -0.12129911348E+04  0.12129911348E+04  0.00000000000E+00 0. -1.
          6    2    1    2  501    0 -0.78237457008E+02  0.12060760686E+03 -0.41753306355E+03  0.47382921021E+03  0.17179338396E+03 0.  0.
         24    2    3    3    0    0 -0.79916298586E+02  0.14083785490E+03 -0.27354773542E+03  0.32834400078E+03  0.82216197564E+02 0.  0.
         -6    2    1    2    0  502  0.78237457008E+02 -0.12060760686E+03 -0.75090416107E+03  0.78371583470E+03  0.17229670900E+03 0.  0.
        -24    2    5    5    0    0  0.10870607048E+03 -0.55582667068E+02 -0.40165126812E+03  0.42712608101E+03  0.78781376350E+02 0.  0.
          5    1    3    3  501    0  0.16788415778E+01 -0.20230248036E+02 -0.14398532813E+03  0.14548520942E+03  0.47000000000E+01 0. -1.
        -13    1    4    4    0    0 -0.25525864469E+02  0.11140845940E+03 -0.21337579518E+03  0.24205917572E+03  0.00000000000E+00 0.  1.
         14    1    4    4    0    0 -0.54390434117E+02  0.29429395493E+02 -0.60171940248E+02  0.86284825061E+02  0.00000000000E+00 0. -1.
         -5    1    5    5    0  502 -0.30468613468E+02 -0.65024939792E+02 -0.34925289295E+03  0.35658975369E+03  0.47000000000E+01 0.  1.
         13    1    6    6    0    0  0.29188835900E+02 -0.38186264707E+02 -0.65397288196E+02  0.81160238152E+02  0.00000000000E+00 0. -1.
        -14    1    6    6    0    0  0.79517234575E+02 -0.17396402361E+02 -0.33625397992E+03  0.34596584286E+03  0.00000000000E+00 0.  1.
</event>
<event>
12    1  0.9873238E-001  0.1926058E+03  0.7818608E-02  0.1156971E+00
         21   -1    0    0  501  502  0.00000000000E+00  0.00000000000E+00  0.40077639660E+03  0.40077639660E+03  0.00000000000E+00 0.  1.
         21   -1    0    0  502  503 -0.00000000000E+00 -0.00000000000E+00 -0.90847227368E+02  0.90847227368E+02  0.00000000000E+00 0.  1.
         -6    2    1    2    0  503  0.47469711636E+02  0.58659332671E+02  0.14929772066E+03  0.24369410746E+03  0.17720811997E+03 0.  0.
        -24    2    3    3    0    0  0.23548216908E+02  0.31006333792E+02 -0.10465504261E+01  0.88896122633E+02  0.79909411814E+02 0.  0.
          6    2    1    2  501    0 -0.47469711636E+02 -0.58659332671E+02  0.16063144857E+03  0.24792951651E+03  0.17312507633E+03 0.  0.
         24    2    5    5    0    0 -0.13080333942E+02 -0.93540285683E+02  0.15579908816E+03  0.19848508418E+03  0.78753365563E+02 0.  0.
          5    1    5    5  501    0 -0.34389377694E+02  0.34880953012E+02  0.48323604061E+01  0.49444432329E+02  0.47000000000E+01 0. -1.
        -13    1    6    6    0    0 -0.35457365373E+02 -0.14897963080E+02  0.70620949087E+02  0.80414504370E+02  0.00000000000E+00 0.  1.
         14    1    6    6    0    0  0.22377031431E+02 -0.78642322603E+02  0.85178139075E+02  0.11807057981E+03  0.00000000000E+00 0. -1.
         -5    1    3    3    0  503  0.23921494728E+02  0.27652998879E+02  0.15034427109E+03  0.15479798483E+03  0.47000000000E+01 0.  1.
         13    1    4    4    0    0  0.20815932822E+02 -0.18947497653E+02  0.20093919478E+02  0.34584336434E+02  0.00000000000E+00 0. -1.
        -14    1    4    4    0    0  0.27322840861E+01  0.49953831445E+02 -0.21140469904E+02  0.54311786199E+02  0.00000000000E+00 0.  1.
</event>
<event>
12    1  0.9873238E-001  0.1772865E+03  0.7818608E-02  0.1170847E+00
         21   -1    0    0  501  502  0.00000000000E+00  0.00000000000E+00  0.66999998052E+02  0.66999998052E+02  0.00000000000E+00 0. -1.
         21   -1    0    0  502  503 -0.00000000000E+00 -0.00000000000E+00 -0.61775031241E+03  0.61775031241E+03  0.00000000000E+00 0. -1.
         -6    2    1    2    0  503  0.16842548772E+02 -0.31904575814E+02 -0.44658629208E+03  0.48048914168E+03  0.17357685788E+03 0.  0.
        -24    2    3    3    0    0  0.21107190314E+01  0.47803718587E+02 -0.26436284340E+03  0.28099499577E+03  0.82345759036E+02 0.  0.
          6    2    1    2  501    0 -0.16842548772E+02  0.31904575814E+02 -0.10416402229E+03  0.20426116879E+03  0.17196193802E+03 0.  0.
         24    2    5    5    0    0 -0.13512732863E+02  0.60997295257E+02 -0.45859783028E+01  0.10036049101E+03  0.78408755770E+02 0.  0.
          5    1    5    5  501    0 -0.33298159083E+01 -0.29092719443E+02 -0.99578043982E+02  0.10390067777E+03  0.47000000000E+01 0. -1.
        -13    1    6    6    0    0 -0.57129557166E+01  0.75428982103E+02 -0.19577780314E+02  0.78137434602E+02  0.00000000000E+00 0.  1.
         14    1    6    6    0    0 -0.77997771468E+01 -0.14431686846E+02  0.14991802012E+02  0.22223056412E+02  0.00000000000E+00 0. -1.
         -5    1    3    3    0  503  0.14731829740E+02 -0.79708294401E+02 -0.18222344867E+03  0.19949414590E+03  0.47000000000E+01 0.  1.
         11    1    4    4    0    0  0.28268586420E+02  0.55000253436E+02 -0.13049803238E+03  0.14440871619E+03  0.00000000000E+00 0. -1.
        -12    1    4    4    0    0 -0.26157867389E+02 -0.71965348495E+01 -0.13386481102E+03  0.13658627958E+03  0.00000000000E+00 0.  1.
</event>
<event>
12    1  0.9873238E-001  0.2165685E+03  0.7818608E-02  0.1138293E+00
         21   -1    0    0  503  502  0.00000000000E+00  0.00000000000E+00  0.62282965369E+03  0.62282965369E+03  0.00000000000E+00 0.  1.
         21   -1    0    0  501  503 -0.00000000000E+00 -0.00000000000E+00 -0.72326420170E+02  0.72326420170E+02  0.00000000000E+00 0.  1.
          6    2    1    2  501    0  0.36907010481E+02 -0.12651516889E+03  0.26109357111E+03  0.33922227750E+03  0.17185367409E+03 0.  0.
         24    2    3    3    0    0  0.19147437686E+02  0.32240126816E+01  0.76657412657E+02  0.11297806386E+03  0.80688694197E+02 0.  0.
         -6    2    1    2    0  502 -0.36907010481E+02  0.12651516889E+03  0.28940966241E+03  0.35593379636E+03  0.15988339286E+03 0.  0.
        -24    2    5    5    0    0 -0.19419441295E+02  0.15034935125E+03  0.20633378697E+03  0.26762992099E+03  0.77910851904E+02 0.  0.
          5    1    3    3  501    0  0.17759572795E+02 -0.12973918157E+03  0.18443615845E+03  0.22624421364E+03  0.47000000000E+01 0. -1.
        -13    1    4    4    0    0 -0.28462307060E+02  0.84810136500E+01  0.50014692843E+02  0.58167860678E+02  0.00000000000E+00 0.  1.
         14    1    4    4    0    0  0.47609744746E+02 -0.52570009684E+01  0.26642719814E+02  0.54810203184E+02  0.00000000000E+00 0. -1.
         -5    1    5    5    0  502 -0.17487569186E+02 -0.23834182358E+02  0.83075875445E+02  0.88303875371E+02  0.47000000000E+01 0.  1.
         13    1    6    6    0    0 -0.42815810960E+02  0.54193485933E+02  0.10744740212E+03  0.12773046547E+03  0.00000000000E+00 0. -1.
        -14    1    6    6    0    0  0.23396369666E+02  0.96155865312E+02  0.98886384844E+02  0.13989945552E+03  0.00000000000E+00 0.  1.
</event>
<event>
12    1  0.9873238E-001  0.2247849E+03  0.7818608E-02  0.1131014E+00
         21   -1    0    0  501  502  0.00000000000E+00  0.00000000000E+00  0.49598418245E+02  0.49598418245E+02  0.00000000000E+00 0.  1.
         21   -1    0    0  502  503 -0.00000000000E+00 -0.00000000000E+00 -0.14628231308E+04  0.14628231308E+04  0.00000000000E+00 0. -1.
         -6    2    1    2    0  503 -0.33261242989E+02 -0.14133955931E+03 -0.11268537770E+04  0.11483658193E+04  0.16691746095E+03 0.  0.
        -24    2    3    3    0    0 -0.54200443052E+02 -0.16439817545E+03 -0.96568031368E+03  0.98414302803E+03  0.77682580227E+02 0.  0.
          6    2    1    2  501    0  0.33261242989E+02  0.14133955931E+03 -0.28637093548E+03  0.36405572973E+03  0.17159568860E+03 0.  0.
         24    2    5    5    0    0  0.32527484093E+02  0.46917855557E+02 -0.51053798364E+02  0.11045714621E+03  0.79592514907E+02 0.  0.
          5    1    5    5  501    0  0.73375889645E+00  0.94421703750E+02 -0.23531713712E+03  0.25359858352E+03  0.47000000000E+01 0. -1.
        -13    1    6    6    0    0 -0.19234683390E+02  0.37150623261E+02 -0.37220026417E+02  0.55995287483E+02  0.00000000000E+00 0.  1.
         14    1    6    6    0    0  0.51762167483E+02  0.97672322954E+01 -0.13833771946E+02  0.54461858723E+02  0.00000000000E+00 0. -1.
         -5    1    3    3    0  503  0.20939200063E+02  0.23058616139E+02 -0.16117346335E+03  0.16422279124E+03  0.47000000000E+01 0.  1.
         13    1    4    4    0    0 -0.98221827416E+01  0.30987956520E+01 -0.14522484414E+03  0.14558960528E+03  0.00000000000E+00 0. -1.
        -14    1    4    4    0    0 -0.44378260311E+02 -0.16749697110E+03 -0.82045546954E+03  0.83855342275E+03  0.00000000000E+00 0.  1.
</event>
<event>
12    1  0.9873238E-001  0.2184522E+03  0.7818608E-02  0.1137377E+00
         21   -1    0    0  501  502  0.00000000000E+00  0.00000000000E+00  0.52332692896E+03  0.52332692896E+03  0.00000000000E+00 0. -1.
         21   -1    0    0  502  503 -0.00000000000E+00 -0.00000000000E+00 -0.95434021593E+02  0.95434021593E+02  0.00000000000E+00 0. -1.
         -6    2    1    2    0  503 -0.10065009684E+03 -0.88323067360E+02  0.30450840385E+03  0.36787236879E+03  0.15707738693E+03 0.  0.
        -24    2    3    3    0    0 -0.39356892183E+02 -0.91792320309E+02  0.13089271156E+03  0.18366218650E+03  0.81388585065E+02 0.  0.
          6    2    1    2  501    0  0.10065009684E+03  0.88323067360E+02  0.12338450352E+03  0.25088858176E+03  0.17259762029E+03 0.  0.
         24    2    5    5    0    0  0.21168129585E+02  0.93336786679E+02  0.11650216280E+03  0.17081375979E+03  0.80279145104E+02 0.  0.
          5    1    5    5  501    0  0.79481967256E+02 -0.50137193195E+01  0.68823407201E+01  0.80074821974E+02  0.47000000000E+01 0. -1.
        -11    1    6    6    0    0  0.37993230406E+02  0.57644930613E+02  0.29108058742E+02  0.74924646584E+02  0.00000000000E+00 0.  1.
         12    1    6    6    0    0 -0.16825100821E+02  0.35691856067E+02  0.87394104061E+02  0.95889113207E+02  0.00000000000E+00 0. -1.
         -5    1    3    3    0  503 -0.61293204657E+02  0.34692529492E+01  0.17361569229E+03  0.18421018230E+03  0.47000000000E+01 0.  1.
         11    1    4    4    0    0 -0.25451462279E+02 -0.17640826580E+02  0.95373496312E+02  0.10027501929E+03  0.00000000000E+00 0. -1.
        -12    1    4    4    0    0 -0.13905429904E+02 -0.74151493729E+02  0.35519215248E+02  0.83387167207E+02  0.00000000000E+00 0.  1.
</event>
<event>
12    1  0.9873238E-001  0.2493711E+03  0.7818608E-02  0.1115436E+00
         21   -1    0    0  503  502  0.00000000000E+00  0.00000000000E+00  0.10834418171E+04  0.10834418171E+04  0.00000000000E+00 0.  1.
         21   -1    0    0  501  503 -0.00000000000E+00 -0.00000000000E+00 -0.57102281434E+02  0.57102281434E+02  0.00000000000E+00 0.  1.
          6    2    1    2  501    0  0.86646177558E+02  0.13961530415E+03  0.61267676512E+03  0.65752977242E+03  0.17312593645E+03 0.  0.
         24    2    3    3    0    0  0.37417017207E+02 -0.17777073724E+01  0.18705940765E+03  0.20632281446E+03  0.78579185265E+02 0.  0.
         -6    2    1    2    0  502 -0.86646177558E+02 -0.13961530415E+03  0.41366277056E+03  0.48301432612E+03  0.18757920528E+03 0.  0.
        -24    2    5    5    0    0 -0.46005976099E+01 -0.61197696183E+02  0.32199219870E+03  0.33704726760E+03  0.78457383696E+02 0.  0.
          5    1    3    3  501    0  0.49229160351E+02  0.14139301152E+03  0.42561735747E+03  0.45120695796E+03  0.47000000000E+01 0. -1.
        -11    1    4    4    0    0 -0.17251005701E+02  0.83436523996E+01  0.11912938607E+02  0.22563949994E+02  0.00000000000E+00 0.  1.
         12    1    4    4    0    0  0.54668022908E+02 -0.10121359772E+02  0.17514646904E+03  0.18375886447E+03  0.00000000000E+00 0. -1.
         -5    1    5    5    0  502 -0.82045579948E+02 -0.78417607965E+02  0.91670571857E+02  0.14596705852E+03  0.47000000000E+01 0.  1.
         13    1    6    6    0    0 -0.27773491396E+02 -0.52733918656E+02  0.12461709751E+03  0.13813636014E+03  0.00000000000E+00 0. -1.
        -14    1    6    6    0    0  0.23172893786E+02 -0.84637775271E+01  0.19737510119E+03  0.19891090746E+03  0.00000000000E+00 0.  1.
</event>
<event>
12    1  0.9873238E-001  0.2574763E+03  0.7818608E-02  0.1108833E+00
         21   -1    0    0  501  502  0.00000000000E+00  0.00000000000E+00  0.53244763450E+03  0.53244763450E+03  0.00000000000E+00 0. -1.
         21   -1    0    0  502  503 -0.00000000000E+00 -0.00000000000E+00 -0.12400629088E+03  0.12400629088E+03  0.00000000000E+00 0.  1.
         -6    2    1    2    0  503 -0.18229458361E+03 -0.55848335051E+02  0.19989575494E+03  0.32511525713E+03  0.17143881075E+03 0.  0.
        -24    2    3    3    0    0 -0.13640698556E+03  0.23621054291E+02  0.96694802843E+02  0.18693572894E+03  0.80188914068E+02 0.  0.
          6    2    1    2  501    0  0.18229458361E+03  0.55848335051E+02  0.20854558868E+03  0.33133866826E+03  0.17304247682E+03 0.  0.
         24    2    5    5    0    0  0.63038654035E+02  0.47911450291E+02  0.17294734512E+03  0.20654164977E+03  0.80494036631E+02 0.  0.
          5    1    5    5  501    0  0.11925592958E+03  0.79368847604E+01  0.35598243552E+02  0.12479701848E+03  0.47000000000E+01 0. -1.
        -11    1    6    6    0    0  0.25863080221E+02  0.40333471979E+02  0.25470319061E+02  0.54262556459E+02  0.00000000000E+00 0.  1.
         12    1    6    6    0    0  0.37175573814E+02  0.75779783123E+01  0.14747702606E+03  0.15227909331E+03  0.00000000000E+00 0. -1.
         -5    1    3    3    0  503 -0.45887598045E+02 -0.79469389342E+02  0.10320095210E+03  0.13817952819E+03  0.47000000000E+01 0.  1.
         13    1    4    4    0    0 -0.32227967965E+01  0.80788813405E+01  0.40711229170E+02  0.41630024303E+02  0.00000000000E+00 0. -1.
        -14    1    4    4    0    0 -0.13318418877E+03  0.15542172950E+02  0.55983573673E+02  0.14530570463E+03  0.00000000000E+00 0.  1.
</event>
<event>
12    1  0.9873238E-001  0.2421734E+03  0.7818608E-02  0.1118949E+00
         21   -1    0    0  503  502  0.00000000000E+00  0.00000000000E+00  0.25667203076E+03  0.25667203076E+03  0.00000000000E+00 0.  1.
         21   -1    0    0  501  503 -0.00000000000E+00 -0.00000000000E+00 -0.22768029146E+03  0.22768029146E+03  0.00000000000E+00 0.  1.
          6    2    1    2  501    0  0.16890970394E+03 -0.90962459602E+00 -0.11071594048E+02  0.24242638461E+03  0.17354151163E+03 0.  0.
         24    2    3    3    0    0  0.97838548696E+01  0.13182369477E+02  0.93972605915E+01  0.81303189047E+02  0.79072127589E+02 0.  0.
         -6    2    1    2    0  502 -0.16890970394E+03  0.90962459602E+00  0.40063333344E+02  0.24192593761E+03  0.16849858488E+03 0.  0.
        -24    2    5    5    0    0 -0.15225934807E+03  0.46982845735E+02  0.59919186933E+02  0.18885691672E+03  0.81769977136E+02 0.  0.
          5    1    3    3  501    0  0.15912584907E+03 -0.14091994073E+02 -0.20468854640E+02  0.16112319556E+03  0.47000000000E+01 0. -1.
        -11    1    4    4    0    0  0.30749052717E+02 -0.83504715969E+01  0.30872118453E+02  0.44365778666E+02  0.00000000000E+00 0.  1.
         12    1    4    4    0    0 -0.20965197848E+02  0.21532841073E+02 -0.21474857861E+02  0.36937410381E+02  0.00000000000E+00 0. -1.
         -5    1    5    5    0  502 -0.16650355865E+02 -0.46073221139E+02 -0.19855853589E+02  0.53069020891E+02  0.47000000000E+01 0.  1.
         13    1    6    6    0    0 -0.13317158347E+03  0.38671551786E+02  0.15167695424E+02  0.13949988726E+03  0.00000000000E+00 0. -1.
        -14    1    6    6    0    0 -0.19087764604E+02  0.83112939492E+01  0.44751491509E+02  0.49357029459E+02  0.00000000000E+00 0.  1.
</event>
<event>
12    1  0.9873238E-001  0.1809782E+03  0.7818608E-02  0.1167151E+00
         21   -1    0    0  501  502  0.00000000000E+00  0.00000000000E+00  0.29162062198E+03  0.29162062198E+03  0.00000000000E+00 0. -1.
         21   -1    0    0  502  503 -0.00000000000E+00 -0.00000000000E+00 -0.13179801053E+03  0.13179801053E+03  0.00000000000E+00 0.  1.
         -6    2    1    2    0  503 -0.36114334599E+02 -0.42811821223E+02  0.16308576142E+03  0.24361871913E+03  0.17209304904E+03 0.  0.
        -24    2    3    3    0    0 -0.75358267727E+02 -0.61194974421E+02  0.15393148519E+03  0.19907753164E+03  0.80704820568E+02 0.  0.
          6    2    1    2  501    0  0.36114334599E+02  0.42811821223E+02 -0.32631499745E+01  0.17979991339E+03  0.17082231560E+03 0.  0.
         24    2    5    5    0    0  0.61790954318E+02 -0.15879148180E+02  0.34081855919E+02  0.10549878181E+03  0.76799418468E+02 0.  0.
          5    1    5    5  501    0 -0.25676619719E+02  0.58690969403E+02 -0.37345005893E+02  0.74301131585E+02  0.47000000000E+01 0. -1.
        -13    1    6    6    0    0  0.63144876476E+02  0.54642631939E+01 -0.21596634984E+01  0.63417645367E+02  0.00000000000E+00 0.  1.
         14    1    6    6    0    0 -0.13539221582E+01 -0.21343411374E+02  0.36241519417E+02  0.42081136438E+02  0.00000000000E+00 0. -1.
         -5    1    3    3    0  503  0.39243933129E+02  0.18383153198E+02  0.91542762313E+01  0.44541187481E+02  0.47000000000E+01 0.  1.
         11    1    4    4    0    0 -0.18609162143E+02  0.17021488886E+02  0.56390082755E+02  0.61772756395E+02  0.00000000000E+00 0. -1.
        -12    1    4    4    0    0 -0.56749105585E+02 -0.78216463307E+02  0.97541402437E+02  0.13730477525E+03  0.00000000000E+00 0.  1.
</event>
<event>
12    1  0.9873238E-001  0.2105129E+03  0.7818608E-02  0.1141407E+00
         21   -1    0    0  501  502  0.00000000000E+00  0.00000000000E+00  0.10875721802E+03  0.10875721802E+03  0.00000000000E+00 0. -1.
         21   -1    0    0  502  503 -0.00000000000E+00 -0.00000000000E+00 -0.11378585808E+04  0.11378585808E+04  0.00000000000E+00 0.  1.
         -6    2    1    2    0  503 -0.12152026418E+03 -0.48742550265E+01 -0.14888856903E+02  0.21103872124E+03  0.17182761953E+03 0.  0.
        -24    2    3    3    0    0 -0.12574269263E+03 -0.91146601946E+01  0.40959458943E+02  0.15467442118E+03  0.79700674461E+02 0.  0.
          6    2    1    2  501    0  0.12152026418E+03  0.48742550265E+01 -0.10142125059E+04  0.10355770776E+04  0.17029957014E+03 0.  0.
         24    2    5    5    0    0  0.11152792604E+03 -0.48854885764E+02 -0.85318884091E+03  0.86546717761E+03  0.79227262495E+02 0.  0.
          5    1    5    5  501    0  0.99923381397E+01  0.53729140790E+02 -0.16102366497E+03  0.17010989998E+03  0.47000000000E+01 0. -1.
        -11    1    6    6    0    0  0.14453446829E+02 -0.32395322808E+02 -0.40704867938E+03  0.40859146645E+03  0.00000000000E+00 0.  1.
         12    1    6    6    0    0  0.97074479214E+02 -0.16459562955E+02 -0.44614016152E+03  0.45687571117E+03  0.00000000000E+00 0. -1.
         -5    1    3    3    0  503  0.42224284482E+01  0.42404051682E+01 -0.55848315846E+02  0.56364300056E+02  0.47000000000E+01 0.  1.
         11    1    4    4    0    0 -0.75520194346E+02  0.10659322142E+02  0.60417091789E+02  0.97299259416E+02  0.00000000000E+00 0. -1.
        -12    1    4    4    0    0 -0.50222498285E+02 -0.19773982337E+02 -0.19457632846E+02  0.57375161763E+02  0.00000000000E+00 0.  1.
</event>
<event>
12    1  0.9873238E-001  0.3679180E+03  0.7818608E-02  0.1055529E+00
         21   -1    0    0  501  502  0.00000000000E+00  0.00000000000E+00  0.24414672735E+03  0.24414672735E+03  0.00000000000E+00 0. -1.
         21   -1    0    0  502  503 -0.00000000000E+00 -0.00000000000E+00 -0.57308095321E+03  0.57308095321E+03  0.00000000000E+00 0. -1.
         -6    2    1    2    0  503  0.27571014820E+03  0.17260933998E+03 -0.89715654400E+02  0.37869845160E+03  0.17191145550E+03 0.  0.
        -24    2    3    3    0    0  0.22567109455E+03  0.17694758373E+03 -0.11890914061E+03  0.32041400354E+03  0.79296025392E+02 0.  0.
          6    2    1    2  501    0 -0.27571014820E+03 -0.17260933998E+03 -0.23921857145E+03  0.43852922896E+03  0.17109146575E+03 0.  0.
         24    2    5    5    0    0 -0.10915305279E+03 -0.13375327991E+03 -0.85627480688E+02  0.20860886753E+03  0.79882822588E+02 0.  0.
          5    1    5    5  501    0 -0.16655709540E+03 -0.38856060077E+02 -0.15359109077E+03  0.22992036142E+03  0.47000000000E+01 0. -1.
        -13    1    6    6    0    0 -0.11485998627E+03 -0.12745794353E+03 -0.60250918987E+02  0.18184751044E+03  0.00000000000E+00 0.  1.
         14    1    6    6    0    0  0.57069334741E+01 -0.62953363781E+01 -0.25376561701E+02  0.26761357095E+02  0.00000000000E+00 0. -1.
         -5    1    3    3    0  503  0.50039053642E+02 -0.43382437423E+01  0.29193486212E+02  0.58284448057E+02  0.47000000000E+01 0.  1.
         13    1    4    4    0    0  0.41876947228E+01  0.32797017399E+02 -0.17054879630E+02  0.37202823233E+02  0.00000000000E+00 0. -1.
        -14    1    4    4    0    0  0.22148339983E+03  0.14415056633E+03 -0.10185426098E+03  0.28321118031E+03  0.00000000000E+00 0.  1.
</event>
<event>
12    1  0.9873238E-001  0.2883730E+03  0.7818608E-02  0.1091232E+00
         21   -1    0    0  503  502  0.00000000000E+00  0.00000000000E+00  0.87188998683E+02  0.87188998683E+02  0.00000000000E+00 0.  1.
         21   -1    0    0  501  503 -0.00000000000E+00 -0.00000000000E+00 -0.11631566579E+04  0.11631566579E+04  0.00000000000E+00 0.  1.
          6    2    1    2  501    0  0.11244842441E+03  0.20208490055E+03 -0.27207711155E+03  0.39629707726E+03  0.17187921233E+03 0.  0.
         24    2    3    3    0    0  0.12351960509E+03  0.16584278077E+03 -0.14815088267E+03  0.26662108684E+03  0.79857367418E+02 0.  0.
         -6    2    1    2    0  502 -0.11244842441E+03 -0.20208490055E+03 -0.80389054766E+03  0.85404857933E+03  0.17226725761E+03 0.  0.
        -24    2    5    5    0    0 -0.11533303418E+03 -0.89960975060E+02 -0.37202888523E+03  0.40783486246E+03  0.80802832784E+02 0.  0.
          5    1    3    3  501    0 -0.11071180684E+02  0.36242119774E+02 -0.12392622888E+03  0.12967599042E+03  0.47000000000E+01 0. -1.
        -13    1    4    4    0    0  0.56641290898E+02  0.13263615207E+03 -0.11700595020E+03  0.18571746567E+03  0.00000000000E+00 0.  1.
         14    1    4    4    0    0  0.66878314195E+02  0.33206628699E+02 -0.31144932471E+02  0.80903621166E+02  0.00000000000E+00 0. -1.
         -5    1    5    5    0  502  0.28846097678E+01 -0.11212392549E+03 -0.43186166244E+03  0.44621371687E+03  0.47000000000E+01 0.  1.
         13    1    6    6    0    0 -0.50597797086E+02 -0.88956462532E+02 -0.22467297192E+03  0.24688323881E+03  0.00000000000E+00 0. -1.
        -14    1    6    6    0    0 -0.64735237090E+02 -0.10045125277E+01 -0.14735591331E+03  0.16095162364E+03  0.00000000000E+00 0.  1.
</event>
<event>
12    1  0.9873238E-001  0.1971597E+03  0.7818608E-02  0.1152232E+00
         21   -1    0    0  503  502  0.00000000000E+00  0.00000000000E+00  0.19233344210E+03  0.19233344210E+03  0.00000000000E+00 0.  1.
         21   -1    0    0  501  503 -0.00000000000E+00 -0.00000000000E+00 -0.20439472257E+03  0.20439472257E+03  0.00000000000E+00 0.  1.
          6    2    1    2  501    0  0.53641866738E+02  0.79613061493E+02  0.16532224067E+02  0.19750582065E+03  0.17181252961E+03 0.  0.
         24    2    3    3    0    0  0.49903025117E+02 -0.15512030957E+02  0.25008042379E+02  0.10181521689E+03  0.83725749847E+02 0.  0.
         -6    2    1    2    0  502 -0.53641866738E+02 -0.79613061493E+02 -0.28593504533E+02  0.19922234402E+03  0.17220994288E+03 0.  0.
        -24    2    5    5    0    0 -0.78268070744E+02  0.17748823628E+01 -0.19737599930E+02  0.11360129302E+03  0.79916455242E+02 0.  0.
          5    1    3    3  501    0  0.37388416205E+01  0.95125092450E+02 -0.84758183120E+01  0.95690603752E+02  0.47000000000E+01 0. -1.
        -11    1    4    4    0    0 -0.16286731461E+02 -0.91027682030E+01  0.29783034733E+02  0.35144660598E+02  0.00000000000E+00 0.  1.
         12    1    4    4    0    0  0.66189756579E+02 -0.64092627541E+01 -0.47749923535E+01  0.66670556297E+02  0.00000000000E+00 0. -1.
         -5    1    5    5    0  502  0.24626204006E+02 -0.81387943856E+02 -0.88559046030E+01  0.85621051005E+02  0.47000000000E+01 0.  1.
         11    1    6    6    0    0 -0.18012940704E+02 -0.17092657940E+02  0.25757389349E+02  0.35778039275E+02  0.00000000000E+00 0. -1.
        -12    1    6    6    0    0 -0.60255130039E+02  0.18867540303E+02 -0.45494989280E+02  0.77823253740E+02  0.00000000000E+00 0.  1.
</event>
<event>
12    1  0.9873238E-001  0.2303948E+03  0.7818608E-02  0.1126840E+00
         21   -1    0    0  503  502  0.00000000000E+00  0.00000000000E+00  0.53306089510E+02  0.53306089510E+02  0.00000000000E+00 0. -1.
         21   -1    0    0  501  503 -0.00000000000E+00 -0.00000000000E+00 -0.12916184148E+04  0.12916184148E+04  0.00000000000E+00 0. -1.
          6    2    1    2  501    0  0.15321770812E+03  0.21117401458E+01 -0.29384586973E+03  0.37339946690E+03  0.17205127490E+03 0.  0.
         24    2    3    3    0    0  0.17669892484E+03  0.26893857609E+02 -0.25933258899E+03  0.32462675494E+03  0.78634271761E+02 0.  0.
         -6    2    1    2    0  502 -0.15321770812E+03 -0.21117401458E+01 -0.94446645557E+03  0.97152503742E+03  0.16841581607E+03 0.  0.
        -24    2    5    5    0    0 -0.73571088853E+02  0.62352354819E+02 -0.50480150060E+03  0.52005348114E+03  0.79564734450E+02 0.  0.
          5    1    3    3  501    0 -0.23481216716E+02 -0.24782117463E+02 -0.34513280742E+02  0.48772711961E+02  0.47000000000E+01 0. -1.
        -11    1    4    4    0    0  0.13440840481E+03  0.11337741222E+02 -0.12867556786E+03  0.18641771757E+03  0.00000000000E+00 0.  1.
         12    1    4    4    0    0  0.42290520033E+02  0.15556116387E+02 -0.13065702113E+03  0.13820903737E+03  0.00000000000E+00 0. -1.
         -5    1    5    5    0  502 -0.79646619272E+02 -0.64464094965E+02 -0.43966495497E+03  0.45147155628E+03  0.47000000000E+01 0.  1.
         13    1    6    6    0    0  0.11007179441E+02  0.20568645469E+02 -0.45144361352E+02  0.50815750881E+02  0.00000000000E+00 0. -1.
        -14    1    6    6    0    0 -0.84578268293E+02  0.41783709351E+02 -0.45965713925E+03  0.46923773026E+03  0.00000000000E+00 0.  1.
</event>
<event>
12    1  0.9873238E-001  0.4382635E+03  0.7818608E-02  0.1031420E+00
         21   -1    0    0  501  502  0.00000000000E+00  0.00000000000E+00  0.66069896191E+03  0.66069896191E+03  0.00000000000E+00 0. -1.
         21   -1    0    0  502  503 -0.00000000000E+00 -0.00000000000E+00 -0.29497281094E+03  0.29497281094E+03  0.00000000000E+00 0. -1.
         -6    2    1    2    0  503  0.40251513770E+03  0.77001330081E+00  0.24744957587E+03  0.50172882437E+03  0.16876460414E+03 0.  0.
        -24    2    3    3    0    0  0.18881131325E+03 -0.43338828968E+02  0.17038304302E+03  0.27026337331E+03  0.80522937696E+02 0.  0.
          6    2    1    2  501    0 -0.40251513770E+03 -0.77001330081E+00  0.11827657510E+03  0.45394294849E+03  0.17336615375E+03 0.  0.
         24    2    5    5    0    0 -0.13000563956E+03  0.34117895610E+02  0.17120855205E+01  0.15546688077E+03  0.78112244005E+02 0.  0.
          5    1    5    5  501    0 -0.27250949814E+03 -0.34887908911E+02  0.11656448958E+03  0.29847606771E+03  0.47000000000E+01 0. -1.
        -13    1    6    6    0    0 -0.40160135477E+02 -0.13010720894E+02  0.28004566959E+02  0.50659363500E+02  0.00000000000E+00 0.  1.
         14    1    6    6    0    0 -0.89845504079E+02  0.47128616504E+02 -0.26292481439E+02  0.10480751727E+03  0.00000000000E+00 0. -1.
         -5    1    3    3    0  503  0.21370382445E+03  0.44108842269E+02  0.77066532843E+02  0.23146545106E+03  0.47000000000E+01 0.  1.
         13    1    4    4    0    0  0.17618632210E+03 -0.55551869491E+02  0.12903530172E+03  0.22533916523E+03  0.00000000000E+00 0. -1.
        -14    1    4    4    0    0  0.12624991153E+02  0.12213040523E+02  0.41347741302E+02  0.44924208075E+02  0.00000000000E+00 0.  1.
</event>
<event>
12    1  0.9873238E-001  0.2913008E+03  0.7818608E-02  0.1091031E+00
         21   -1    0    0  501  502  0.00000000000E+00  0.00000000000E+00  0.86446236920E+02  0.86446236920E+02  0.00000000000E+00 0.  1.
         21   -1    0    0  502  503 -0.00000000000E+00 -0.00000000000E+00 -0.10256559670E+04  0.10256559670E+04  0.00000000000E+00 0. -1.
         -6    2    1    2    0  503  0.10833033173E+03  0.19624596726E+03 -0.32372016205E+03  0.43548923498E+03  0.18603276601E+03 0.  0.
        -24    2    3    3    0    0  0.14892192939E+03  0.12620900014E+03 -0.23229346068E+03  0.31328536317E+03  0.77980857449E+02 0.  0.
          6    2    1    2  501    0 -0.10833033173E+03 -0.19624596726E+03 -0.61548956807E+03  0.67661296897E+03  0.16949855735E+03 0.  0.
         24    2    5    5    0    0 -0.19992246173E+02 -0.77467332866E+02 -0.14684709424E+03  0.18512559413E+03  0.79413720155E+02 0.  0.
          5    1    5    5  501    0 -0.88338085562E+02 -0.11877863440E+03 -0.46864247383E+03  0.49148737484E+03  0.47000000000E+01 0. -1.
        -11    1    6    6    0    0  0.27610863902E+02 -0.39402672986E+02 -0.88585869318E+02  0.10080866375E+03  0.00000000000E+00 0.  1.
         12    1    6    6    0    0 -0.47603110074E+02 -0.38064659879E+02 -0.58261224921E+02  0.84316930386E+02  0.00000000000E+00 0. -1.
         -5    1    3    3    0  503 -0.40591597657E+02  0.70036967121E+02 -0.91426701366E+02  0.12220387181E+03  0.47000000000E+01 0.  1.
         11    1    4    4    0    0  0.10909062889E+03  0.10822082767E+03 -0.12724813007E+03  0.19951090060E+03  0.00000000000E+00 0. -1.
        -12    1    4    4    0    0  0.39831300502E+02  0.17988172475E+02 -0.10504533061E+03  0.11377446257E+03  0.00000000000E+00 0.  1.
</event>
<event>
12    1  0.9873238E-001  0.3874659E+03  0.7818608E-02  0.1048702E+00
         21   -1    0    0  503  502  0.00000000000E+00  0.00000000000E+00  0.59766498134E+03  0.59766498134E+03  0.00000000000E+00 0.  1.
         21   -1    0    0  501  503 -0.00000000000E+00 -0.00000000000E+00 -0.25922561423E+03  0.25922561423E+03  0.00000000000E+00 0.  1.
          6    2    1    2  501    0 -0.34050590328E+03  0.63239390445E+01  0.26077681342E+03  0.46704860792E+03  0.18478526285E+03 0.  0.
         24    2    3    3    0    0 -0.25191591484E+03  0.38821636536E+02  0.26008374854E+03  0.37256656342E+03  0.78699048988E+02 0.  0.
         -6    2    1    2    0  502  0.34050590328E+03 -0.63239390445E+01  0.77662553686E+02  0.38984198766E+03  0.17309257848E+03 0.  0.
        -24    2    5    5    0    0  0.35532775545E+03 -0.50089569329E+01  0.83144850328E+02  0.37330227617E+03  0.78476874395E+02 0.  0.
          5    1    3    3  501    0 -0.88589988436E+02 -0.32497697492E+02  0.69306488743E+00  0.94482044497E+02  0.47000000000E+01 0. -1.
        -11    1    4    4    0    0 -0.13007914883E+03  0.58763085223E+02  0.12729892143E+03  0.19125558957E+03  0.00000000000E+00 0.  1.
         12    1    4    4    0    0 -0.12183676601E+03 -0.19941448686E+02  0.13278482711E+03  0.18131097385E+03  0.00000000000E+00 0. -1.
         -5    1    5    5    0  502 -0.14821852170E+02 -0.13149821116E+01 -0.54822966417E+01  0.16539711490E+02  0.47000000000E+01 0.  1.
         13    1    6    6    0    0  0.22927970844E+03 -0.40465625762E+02  0.47860833379E+02  0.23769162994E+03  0.00000000000E+00 0. -1.
        -14    1    6    6    0    0  0.12604804701E+03  0.35456668829E+02  0.35284016949E+02  0.13561064623E+03  0.00000000000E+00 0.  1.
</event>
<event>
12    1  0.9873238E-001  0.1934945E+03  0.7818608E-02  0.1155555E+00
         21   -1    0    0  501  502  0.00000000000E+00  0.00000000000E+00  0.16410172835E+03  0.16410172835E+03  0.00000000000E+00 0.  1.
         21   -1    0    0  502  503 -0.00000000000E+00 -0.00000000000E+00 -0.34645099880E+03  0.34645099880E+03  0.00000000000E+00 0.  1.
         -6    2    1    2    0  503 -0.72774553641E+02 -0.51901211147E+02  0.58546165274E+02  0.20215780484E+03  0.17161076077E+03 0.  0.
        -24    2    3    3    0    0 -0.49061431786E+02 -0.51928342516E+02  0.10471354067E+03  0.15004418441E+03  0.80279230375E+02 0.  0.
          6    2    1    2  501    0  0.72774553641E+02  0.51901211147E+02 -0.24089543572E+03  0.30839492231E+03  0.17054895419E+03 0.  0.
         24    2    5    5    0    0  0.10513892081E+03  0.57370073608E+02 -0.23394545509E+03  0.27451641954E+03  0.79267084111E+02 0.  0.
          5    1    5    5  501    0 -0.32364367171E+02 -0.54688624614E+01 -0.69499806307E+01  0.33878502767E+02  0.47000000000E+01 0. -1.
        -13    1    6    6    0    0  0.10054741902E+02  0.43283029023E+02 -0.49443085423E+02  0.66476590859E+02  0.00000000000E+00 0.  1.
         14    1    6    6    0    0  0.95084178910E+02  0.14087044585E+02 -0.18450236967E+03  0.20803982868E+03  0.00000000000E+00 0. -1.
         -5    1    3    3    0  503 -0.23713121855E+02  0.27131369134E-01 -0.46167375392E+02  0.52113620435E+02  0.47000000000E+01 0.  1.
         11    1    4    4    0    0  0.13203151271E+02  0.59234620191E+01  0.41988135025E+02  0.44411868782E+02  0.00000000000E+00 0. -1.
        -12    1    4    4    0    0 -0.62264583057E+02 -0.57851804535E+02  0.62725405641E+02  0.10563231562E+03  0.00000000000E+00 0.  1.
</event>
<event>
12    1  0.9873238E-001  0.2218710E+03  0.7818608E-02  0.1132750E+00
         21   -1    0    0  503  502  0.00000000000E+00  0.00000000000E+00  0.63569684914E+03  0.63569684914E+03  0.00000000000E+00 0. -1.
         21   -1    0    0  501  503 -0.00000000000E+00 -0.00000000000E+00 -0.79527320747E+02  0.79527320747E+02  0.00000000000E+00 0. -1.
          6    2    1    2  501    0 -0.47994199124E+02 -0.12937602842E+03  0.21297365688E+03  0.30655541279E+03  0.17197919265E+03 0.  0.
         24    2    3    3    0    0 -0.91864100174E+02 -0.82040461858E+02  0.10285409359E+03  0.17883058240E+03  0.78941512209E+02 0.  0.
         -6    2    1    2    0  502  0.47994199124E+02  0.12937602842E+03  0.34319587152E+03  0.40866875710E+03  0.17373873178E+03 0.  0.
        -24    2    5    5    0    0  0.20673602056E+01  0.46767272734E+00  0.15702896512E+03  0.17756954520E+03  0.82875538011E+02 0.  0.
          5    1    3    3  501    0  0.43869901050E+02 -0.47335566567E+02  0.11011956328E+03  0.12772483039E+03  0.47000000000E+01 0. -1.
        -11    1    4    4    0    0 -0.52826297926E+02 -0.23344749198E+02  0.90358964490E+02  0.10723962668E+03  0.00000000000E+00 0.  1.
         12    1    4    4    0    0 -0.39037802249E+02 -0.58695712660E+02  0.12495129105E+02  0.71590955716E+02  0.00000000000E+00 0. -1.
         -5    1    5    5    0  502  0.45926838918E+02  0.12890835570E+03  0.18616690640E+03  0.23109921190E+03  0.47000000000E+01 0.  1.
         13    1    6    6    0    0  0.36241593749E+02 -0.10705156005E+02  0.12061544179E+03  0.12639674948E+03  0.00000000000E+00 0. -1.
        -14    1    6    6    0    0 -0.34174233543E+02  0.11172828732E+02  0.36413523334E+02  0.51172795719E+02  0.00000000000E+00 0.  1.
</event>
<event>
12    1  0.1115708E+000  0.2316479E+03  0.7818608E-02  0.1125738E+00
         21   -1    0    0  503  502  0.00000000000E+00  0.00000000000E+00  0.27461856449E+03  0.27461856449E+03  0.00000000000E+00 0.  1.
         21   -1    0    0  501  503 -0.00000000000E+00 -0.00000000000E+00 -0.61248470711E+03  0.61248470711E+03  0.00000000000E+00 0.  1.
          6    2    1    2  501    0  0.71385472902E+02 -0.13754413621E+03  0.19745491934E+03  0.30438329641E+03  0.17218150544E+03 0.  0.
         24    2    3    3    0    0  0.82231841462E+02 -0.25481964162E+02  0.11536359233E+03  0.16496790958E+03  0.80586887941E+02 0.  0.
         -6    2    1    2    0  502 -0.71385472902E+02  0.13754413621E+03 -0.53532106197E+03  0.58271997518E+03  0.17023411803E+03 0.  0.
        -24    2    5    5    0    0 -0.10740074597E+03  0.13918640895E+03 -0.46707874755E+03  0.50539662534E+03  0.79720861882E+02 0.  0.
          5    1    3    3  501    0 -0.10846368560E+02 -0.11206217205E+03  0.82091327008E+02  0.13941538683E+03  0.47000000000E+01 0. -1.
        -11    1    4    4    0    0 -0.80334473538E+01 -0.14455490551E+02 -0.18217973858E+01  0.16637801212E+02  0.00000000000E+00 0.  1.
         12    1    4    4    0    0  0.90265288815E+02 -0.11026473611E+02  0.11718538972E+03  0.14833010837E+03  0.00000000000E+00 0. -1.
         -5    1    5    5    0  502  0.36015273069E+02 -0.16422727384E+01 -0.68242314422E+02  0.77323349847E+02  0.47000000000E+01 0.  1.
         11    1    6    6    0    0 -0.40688457599E+02  0.88225862547E+02 -0.33578681729E+03  0.34955992344E+03  0.00000000000E+00 0. -1.
        -12    1    6    6    0    0 -0.66712288372E+02  0.50960546405E+02 -0.13129193025E+03  0.15583670190E+03  0.00000000000E+00 0.  1.
</event>
<event>
12    1  0.9873238E-001  0.2493319E+03  0.7818608E-02  0.1113978E+00
         21   -1    0    0  503  502  0.00000000000E+00  0.00000000000E+00  0.25109407316E+03  0.25109407316E+03  0.00000000000E+00 0. -1.
         21   -1    0    0  501  503 -0.00000000000E+00 -0.00000000000E+00 -0.24745538321E+03  0.24745538321E+03  0.00000000000E+00 0. -1.
          6    2    1    2  501    0 -0.11804213910E+03  0.13492446633E+03  0.20798580688E+02  0.25019786080E+03  0.17328540150E+03 0.  0.
         24    2    3    3    0    0 -0.10231333341E+03  0.10418256698E+03  0.78293161605E+02  0.18296560263E+03  0.77618085110E+02 0.  0.
         -6    2    1    2    0  502  0.11804213910E+03 -0.13492446633E+03 -0.17159890737E+02  0.24835159557E+03  0.17101314263E+03 0.  0.
        -24    2    5    5    0    0  0.86773910174E+01 -0.10647465663E+03  0.16472810902E+01  0.13369628820E+03  0.80373094525E+02 0.  0.
          5    1    3    3  501    0 -0.15728805693E+02  0.30741899346E+02 -0.57494580917E+02  0.67232258171E+02  0.47000000000E+01 0. -1.
        -13    1    4    4    0    0 -0.80416564001E+02  0.31035826247E+02  0.58219509731E+02  0.10401710239E+03  0.00000000000E+00 0.  1.
         14    1    4    4    0    0 -0.21896769408E+02  0.73146740735E+02  0.20073651874E+02  0.78948500241E+02  0.00000000000E+00 0. -1.
         -5    1    5    5    0  502  0.10936474808E+03 -0.28449809696E+02 -0.18807171827E+02  0.11465530737E+03  0.47000000000E+01 0.  1.
         11    1    6    6    0    0 -0.19844204655E+02 -0.36715256544E+02  0.31855136135E+02  0.52502878203E+02  0.00000000000E+00 0. -1.
        -12    1    6    6    0    0  0.28521595672E+02 -0.69759400089E+02 -0.30207855045E+02  0.81193409997E+02  0.00000000000E+00 0.  1.
</event>
<event>
12    1  0.9873238E-001  0.2603550E+03  0.7818608E-02  0.1106940E+00
         21   -1    0    0  503  502  0.00000000000E+00  0.00000000000E+00  0.96523665988E+02  0.96523665988E+02  0.00000000000E+00 0.  1.
         21   -1    0    0  501  503 -0.00000000000E+00 -0.00000000000E+00 -0.16438779024E+04  0.16438779024E+04  0.00000000000E+00 0. -1.
          6    2    1    2  501    0  0.85137471394E+02 -0.17579786136E+03 -0.14322982956E+04  0.14557568578E+04  0.17203588068E+03 0.  0.
         24    2    3    3    0    0  0.58211006523E+02 -0.18267406509E+03 -0.96809162355E+03  0.99069531230E+03  0.86703373013E+02 0.  0.
         -6    2    1    2    0  502 -0.85137471394E+02  0.17579786136E+03 -0.11505594082E+03  0.28464471063E+03  0.17213792343E+03 0.  0.
        -24    2    5    5    0    0 -0.12223473919E+03  0.15530046719E+03 -0.11664481430E+03  0.24197194456E+03  0.76712728250E+02 0.  0.
          5    1    3    3  501    0  0.26926464871E+02  0.68762037320E+01 -0.46420667205E+03  0.46506154545E+03  0.47000000000E+01 0. -1.
        -11    1    4    4    0    0  0.95544664838E+01 -0.78829473857E+02 -0.59784499404E+03  0.60309535786E+03  0.00000000000E+00 0.  1.
         12    1    4    4    0    0  0.48656540039E+02 -0.10384459123E+03 -0.37024662952E+03  0.38759995444E+03  0.00000000000E+00 0. -1.
         -5    1    5    5    0  502  0.37097267796E+02  0.20497394170E+02  0.15888734868E+01  0.42672766077E+02  0.47000000000E+01 0.  1.
         11    1    6    6    0    0  0.93231638501E+01  0.21813671593E+02 -0.65589148436E+01  0.24612537790E+02  0.00000000000E+00 0. -1.
        -12    1    6    6    0    0 -0.13155790304E+03  0.13348679559E+03 -0.11008589946E+03  0.21735940677E+03  0.00000000000E+00 0.  1.
</event>
<event>
12    1  0.9873238E-001  0.2335136E+03  0.7818608E-02  0.1124393E+00
         21   -1    0    0  503  502  0.00000000000E+00  0.00000000000E+00  0.14197594074E+03  0.14197594074E+03  0.00000000000E+00 0.  1.
         21   -1    0    0  501  503 -0.00000000000E+00 -0.00000000000E+00 -0.60649958713E+03  0.60649958713E+03  0.00000000000E+00 0. -1.
          6    2    1    2  501    0 -0.93202577957E+02 -0.12518579092E+03 -0.42827187908E+01  0.23238414442E+03  0.17212160268E+03 0.  0.
         24    2    3    3    0    0 -0.61432058798E+02 -0.15092141684E+03 -0.26852865496E+02  0.18544599521E+03  0.84368055836E+02 0.  0.
         -6    2    1    2    0  502  0.93202577957E+02  0.12518579092E+03 -0.46024092760E+03  0.51609138345E+03  0.17369629197E+03 0.  0.
        -24    2    5    5    0    0  0.41485243823E+02  0.12101984035E+03 -0.43209234323E+03  0.45687592435E+03  0.75266127564E+02 0.  0.
          5    1    3    3  501    0 -0.31770519159E+02  0.25735625916E+02  0.22570146705E+02  0.46938149209E+02  0.47000000000E+01 0. -1.
        -11    1    4    4    0    0 -0.14357976741E+02 -0.88259422817E+01  0.22245984843E+02  0.27909363929E+02  0.00000000000E+00 0.  1.
         12    1    4    4    0    0 -0.47074082057E+02 -0.14209547455E+03 -0.49098850339E+02  0.15753663128E+03  0.00000000000E+00 0. -1.
         -5    1    5    5    0  502  0.51717334134E+02  0.41659505733E+01 -0.28148584369E+02  0.59215459097E+02  0.47000000000E+01 0.  1.
         11    1    6    6    0    0  0.19914575888E+02 -0.23579076547E+01 -0.99070934076E+02  0.10108016640E+03  0.00000000000E+00 0. -1.
        -12    1    6    6    0    0  0.21570667934E+02  0.12337774800E+03 -0.33302140916E+03  0.35579575795E+03  0.00000000000E+00 0.  1.
</event>
<event>
12    1  0.9873238E-001  0.2058592E+03  0.7818608E-02  0.1145356E+00
         21   -1    0    0  501  502  0.00000000000E+00  0.00000000000E+00  0.40151552189E+02  0.40151552189E+02  0.00000000000E+00 0.  1.
         21   -1    0    0  502  503 -0.00000000000E+00 -0.00000000000E+00 -0.13897871080E+04  0.13897871080E+04  0.00000000000E+00 0.  1.
         -6    2    1    2    0  503 -0.95917601910E+02 -0.55407682209E+02 -0.32089212033E+03  0.38124766597E+03  0.17351608663E+03 0.  0.
        -24    2    3    3    0    0 -0.41878992477E+02 -0.94596290491E+02 -0.14582861852E+03  0.19383038291E+03  0.74845996363E+02 0.  0.
          6    2    1    2  501    0  0.95917601910E+02  0.55407682209E+02 -0.10287434354E+04  0.10486909942E+04  0.17079094733E+03 0.  0.
         24    2    5    5    0    0  0.80319791905E+01  0.21405181380E+02 -0.74410559890E+03  0.74882295531E+03  0.80746402997E+02 0.  0.
          5    1    5    5  501    0  0.87885622719E+02  0.34002500829E+02 -0.28463783653E+03  0.29986803886E+03  0.47000000000E+01 0. -1.
        -13    1    6    6    0    0 -0.20693870524E+02  0.36132339346E+02 -0.23244104813E+03  0.23614110841E+03  0.00000000000E+00 0.  1.
         14    1    6    6    0    0  0.28725849714E+02 -0.14727157966E+02 -0.51166455077E+03  0.51268184690E+03  0.00000000000E+00 0. -1.
         -5    1    3    3    0  503 -0.54038609433E+02  0.39188608282E+02 -0.17506350180E+03  0.18741728307E+03  0.47000000000E+01 0.  1.
         13    1    4    4    0    0  0.17357210683E+02 -0.40298862676E+02 -0.31191967425E+02  0.53835025100E+02  0.00000000000E+00 0. -1.
        -14    1    4    4    0    0 -0.59236203160E+02 -0.54297427815E+02 -0.11463665110E+03  0.13999535781E+03  0.00000000000E+00 0.  1.
</event>
<event>
12    1  0.9873238E-001  0.1825478E+03  0.7818608E-02  0.1165683E+00
         21   -1    0    0  501  502  0.00000000000E+00  0.00000000000E+00  0.16727832273E+02  0.16727832273E+02  0.00000000000E+00 0. -1.
         21   -1    0    0  502  503 -0.00000000000E+00 -0.00000000000E+00 -0.19796505770E+04  0.19796505770E+04  0.00000000000E+00 0. -1.
         -6    2    1    2    0  503 -0.60916606154E+02 -0.12404983813E+02 -0.10117883420E+04  0.10278845550E+04  0.17019486712E+03 0.  0.
        -24    2    3    3    0    0 -0.10127356024E+02  0.45423319240E+02 -0.73107325306E+03  0.73677167012E+03  0.78730878832E+02 0.  0.
          6    2    1    2  501    0  0.60916606154E+02  0.12404983813E+02 -0.95113440274E+03  0.96849385432E+03  0.17163617701E+03 0.  0.
         24    2    5    5    0    0  0.98137888783E+02  0.94807393365E+01 -0.86862238908E+03  0.87780594177E+03  0.79482620432E+02 0.  0.
          5    1    5    5  501    0 -0.37221282629E+02  0.29242444763E+01 -0.82512013657E+02  0.90687912557E+02  0.47000000000E+01 0. -1.
        -13    1    6    6    0    0  0.87254510259E+02  0.33628474032E+02 -0.77114872260E+03  0.77679764173E+03  0.00000000000E+00 0.  1.
         14    1    6    6    0    0  0.10883378524E+02 -0.24147734696E+02 -0.97473666486E+02  0.10100830004E+03  0.00000000000E+00 0. -1.
         -5    1    3    3    0  503 -0.50789250130E+02 -0.57828303052E+02 -0.28071508897E+03  0.29111288487E+03  0.47000000000E+01 0.  1.
         11    1    4    4    0    0 -0.27413931752E+02  0.47221393145E+01 -0.53718242530E+03  0.53790220329E+03  0.00000000000E+00 0. -1.
        -12    1    4    4    0    0  0.17286575728E+02  0.40701179925E+02 -0.19389082776E+03  0.19886946683E+03  0.00000000000E+00 0.  1.
</event>
<event>
12    1  0.9873238E-001  0.1967225E+03  0.7818608E-02  0.1153218E+00
         21   -1    0    0  503  502  0.00000000000E+00  0.00000000000E+00  0.68606441880E+02  0.68606441880E+02  0.00000000000E+00 0. -1.
         21   -1    0    0  501  503 -0.00000000000E+00 -0.00000000000E+00 -0.64430201844E+03  0.64430201844E+03  0.00000000000E+00 0. -1.
          6    2    1    2  501    0 -0.74185992053E+02 -0.54985111810E+02 -0.42248130107E+03  0.46603669806E+03  0.17370328220E+03 0.  0.
         24    2    3    3    0    0 -0.58020541777E+02 -0.21922571513E+02 -0.10367066856E+03  0.14507445299E+03  0.80324385976E+02 0.  0.
         -6    2    1    2    0  502  0.74185992053E+02  0.54985111810E+02 -0.15321427548E+03  0.24687176226E+03  0.17012974123E+03 0.  0.
        -24    2    5    5    0    0 -0.48319673690E+01 -0.14362476269E+02 -0.10121424319E+03  0.12948769501E+03  0.79329134010E+02 0.  0.
          5    1    3    3  501    0 -0.16165450276E+02 -0.33062540297E+02 -0.31881063251E+03  0.32096224507E+03  0.47000000000E+01 0. -1.
        -13    1    4    4    0    0 -0.64971119380E+02 -0.36553193808E+02 -0.51915563889E+02  0.90843866634E+02  0.00000000000E+00 0.  1.
         14    1    4    4    0    0  0.69505776023E+01  0.14630622295E+02 -0.51755104669E+02  0.54230586361E+02  0.00000000000E+00 0. -1.
         -5    1    5    5    0  502  0.79017959422E+02  0.69347588079E+02 -0.52000032297E+02  0.11738406724E+03  0.47000000000E+01 0.  1.
         13    1    6    6    0    0 -0.15656645462E+02 -0.34395816309E+01  0.88795674826E+01  0.18325064464E+02  0.00000000000E+00 0. -1.
        -14    1    6    6    0    0  0.10824678093E+02 -0.10922894638E+02 -0.11009381067E+03  0.11116263055E+03  0.00000000000E+00 0.  1.
</event>
<event>
12    1  0.1019325E+000  0.2724973E+03  0.7818608E-02  0.1099934E+00
         21   -1    0    0  501  502  0.00000000000E+00  0.00000000000E+00  0.58661294499E+03  0.58661294499E+03  0.00000000000E+00 0.  1.
         21   -1    0    0  502  503 -0.00000000000E+00 -0.00000000000E+00 -0.22088602328E+03  0.22088602328E+03  0.00000000000E+00 0.  1.
         -6    2    1    2    0  503  0.20908906852E+03 -0.29694732101E+02  0.44712148114E+03  0.52361471682E+03  0.17220550827E+03 0.  0.
        -24    2    3    3    0    0  0.10527164219E+03 -0.83896307164E+02  0.25008143484E+03  0.29434906610E+03  0.77330069569E+02 0.  0.
          6    2    1    2  501    0 -0.20908906852E+03  0.29694732101E+02 -0.81394559440E+02  0.28388425146E+03  0.17136270956E+03 0.  0.
         24    2    5    5    0    0 -0.14966947007E+03  0.75652941417E+02 -0.95604850038E+02  0.20728876828E+03  0.75525017636E+02 0.  0.
          5    1    5    5  501    0 -0.59419598454E+02 -0.45958209316E+02  0.14210290598E+02  0.76595483175E+02  0.47000000000E+01 0. -1.
        -13    1    6    6    0    0 -0.20485376072E+02  0.16302995033E+02  0.12187641384E+02  0.28878657904E+02  0.00000000000E+00 0.  1.
         14    1    6    6    0    0 -0.12918409400E+03  0.59349946384E+02 -0.10779249142E+03  0.17841011038E+03  0.00000000000E+00 0. -1.
         -5    1    3    3    0  503  0.10381742634E+03  0.54201575062E+02  0.19704004630E+03  0.22926565072E+03  0.47000000000E+01 0.  1.
         13    1    4    4    0    0  0.83710739457E+02 -0.22280341766E+02  0.17193695110E+03  0.19252588575E+03  0.00000000000E+00 0. -1.
        -14    1    4    4    0    0  0.21560902730E+02 -0.61615965398E+02  0.78144483737E+02  0.10182318035E+03  0.00000000000E+00 0.  1.
</event>
<event>
12    1  0.9873238E-001  0.2165228E+03  0.7818608E-02  0.1136845E+00
         21   -1    0    0  501  502  0.00000000000E+00  0.00000000000E+00  0.51202742571E+03  0.51202742571E+03  0.00000000000E+00 0.  1.
         21   -1    0    0  502  503 -0.00000000000E+00 -0.00000000000E+00 -0.18384928746E+03  0.18384928746E+03  0.00000000000E+00 0.  1.
         -6    2    1    2    0  503 -0.26599181129E+02  0.12778278960E+03  0.41194638391E+03  0.46538363539E+03  0.17276037483E+03 0.  0.
        -24    2    3    3    0    0 -0.30053837150E+01  0.12788716035E+03  0.41705138003E+03  0.44079036080E+03  0.63246584667E+02 0.  0.
          6    2    1    2  501    0  0.26599181129E+02 -0.12778278960E+03 -0.83768245666E+02  0.23049307778E+03  0.17051094443E+03 0.  0.
         24    2    5    5    0    0 -0.44662990357E+02 -0.87299252365E+02 -0.22834059458E+02  0.12825669032E+03  0.79450878976E+02 0.  0.
          5    1    5    5  501    0  0.71262171485E+02 -0.40483537234E+02 -0.60934186208E+02  0.10223638746E+03  0.47000000000E+01 0. -1.
        -11    1    6    6    0    0 -0.35450763743E+01 -0.43875472685E+02  0.25934304179E+02  0.51090241760E+02  0.00000000000E+00 0.  1.
         12    1    6    6    0    0 -0.41117913982E+02 -0.43423779680E+02 -0.48768363637E+02  0.77166448563E+02  0.00000000000E+00 0. -1.
         -5    1    3    3    0  503 -0.23593797414E+02 -0.10437075349E+00 -0.51049961158E+01  0.24593274589E+02  0.47000000000E+01 0.  1.
         11    1    4    4    0    0 -0.23966743896E+02  0.11574086655E+03  0.33516520808E+03  0.35539565235E+03  0.00000000000E+00 0. -1.
        -12    1    4    4    0    0  0.20961360181E+02  0.12146293799E+02  0.81886171951E+02  0.85394708446E+02  0.00000000000E+00 0.  1.
</event>
<event>
12    1  0.9873238E-001  0.1779100E+03  0.7818608E-02  0.1170385E+00
         21   -1    0    0  503  502  0.00000000000E+00  0.00000000000E+00  0.15045060471E+04  0.15045060471E+04  0.00000000000E+00 0.  1.
         21   -1    0    0  501  503 -0.00000000000E+00 -0.00000000000E+00 -0.24591077118E+02  0.24591077118E+02  0.00000000000E+00 0.  1.
          6    2    1    2  501    0  0.37926737308E+02  0.20282356084E+01  0.10370916194E+04  0.10518713072E+04  0.17155660550E+03 0.  0.
         24    2    3    3    0    0 -0.28081009343E+02  0.28229487380E+01  0.83485894857E+03  0.83908550573E+03  0.79237048109E+02 0.  0.
         -6    2    1    2    0  502 -0.37926737308E+02 -0.20282356084E+01  0.44282335063E+03  0.47722581700E+03  0.17380854236E+03 0.  0.
        -24    2    5    5    0    0 -0.25556242142E+02  0.26768597383E+02  0.43622919958E+03  0.44485515792E+03  0.78933628089E+02 0.  0.
          5    1    3    3  501    0  0.66007746651E+02 -0.79471312961E+00  0.20223267081E+03  0.21278580152E+03  0.47000000000E+01 0. -1.
        -13    1    4    4    0    0 -0.32164681289E+02 -0.32665931996E+02  0.36442552687E+03  0.36729769189E+03  0.00000000000E+00 0.  1.
         14    1    4    4    0    0  0.40836719459E+01  0.35488880734E+02  0.47043342170E+03  0.47178781384E+03  0.00000000000E+00 0. -1.
         -5    1    5    5    0  502 -0.12370495165E+02 -0.28796832991E+02  0.65941510549E+01  0.32370659077E+02  0.47000000000E+01 0.  1.
         13    1    6    6    0    0 -0.11764666123E+02  0.12276934136E+02  0.41619731856E+03  0.41654452158E+03  0.00000000000E+00 0. -1.
        -14    1    6    6    0    0 -0.13791576020E+02  0.14491663247E+02  0.20031881016E+02  0.28310636337E+02  0.00000000000E+00 0.  1.
</event>
<event>
12    1  0.9873238E-001  0.1746227E+03  0.7818608E-02  0.1178838E+00
         21   -1    0    0  501  502  0.00000000000E+00  0.00000000000E+00  0.30638101919E+03  0.30638101919E+03  0.00000000000E+00 0. -1.
         21   -1    0    0  502  503 -0.00000000000E+00 -0.00000000000E+00 -0.15533556813E+03  0.15533556813E+03  0.00000000000E+00 0. -1.
         -6    2    1    2    0  503  0.25724809529E+02 -0.85223743432E+01  0.23033407104E+03  0.28904473385E+03  0.17250703522E+03 0.  0.
        -24    2    3    3    0    0  0.16086820310E+02  0.47544103241E+02  0.20572314490E+03  0.22688261975E+03  0.81452337320E+02 0.  0.
          6    2    1    2  501    0 -0.25724809529E+02  0.85223743432E+01 -0.79288619977E+02  0.17267185347E+03  0.15097843235E+03 0.  0.
         24    2    5    5    0    0 -0.32839999819E+02 -0.39629209229E+02 -0.79652817267E+02  0.12376966975E+03  0.79532509324E+02 0.  0.
          5    1    5    5  501    0  0.71151902896E+01  0.48151583572E+02  0.36419729036E+00  0.48902183724E+02  0.47000000000E+01 0. -1.
        -13    1    6    6    0    0 -0.22686175463E+02  0.20461092491E+02 -0.42686274018E+02  0.52492255168E+02  0.00000000000E+00 0.  1.
         14    1    6    6    0    0 -0.10153824356E+02 -0.60090301720E+02 -0.36966543249E+02  0.71277414583E+02  0.00000000000E+00 0. -1.
         -5    1    3    3    0  503  0.96379892195E+01 -0.56066477585E+02  0.24610926135E+02  0.62162114106E+02  0.47000000000E+01 0.  1.
         11    1    4    4    0    0 -0.16752430886E+02  0.34189463786E+02  0.32466731421E+02  0.50036506910E+02  0.00000000000E+00 0. -1.
        -12    1    4    4    0    0  0.32839251195E+02  0.13354639455E+02  0.17325641348E+03  0.17684611284E+03  0.00000000000E+00 0.  1.
</event>
<event>
12    1  0.9873238E-001  0.2088132E+03  0.7818608E-02  0.1142858E+00
         21   -1    0    0  501  502  0.00000000000E+00  0.00000000000E+00  0.20702496139E+03  0.20702496139E+03  0.00000000000E+00 0.  1.
         21   -1    0    0  502  503 -0.00000000000E+00 -0.00000000000E+00 -0.57184185828E+03  0.57184185828E+03  0.00000000000E+00 0.  1.
         -6    2    1    2    0  503 -0.86270587994E+02 -0.76416941932E+02  0.12813547376E+03  0.24351179495E+03  0.17203816808E+03 0.  0.
        -24    2    3    3    0    0 -0.11167421353E+03 -0.20858919334E+02  0.55385132910E+02  0.14839744189E+03  0.77769295531E+02 0.  0.
          6    2    1    2  501    0  0.86270587994E+02  0.76416941932E+02 -0.49295237065E+03  0.53535502472E+03  0.17412868633E+03 0.  0.
         24    2    5    5    0    0  0.81897595272E+01 -0.18231969411E+02 -0.21792214754E+03  0.23415949718E+03  0.83313449447E+02 0.  0.
          5    1    5    5  501    0  0.78080828467E+02  0.94648911343E+02 -0.27503022311E+03  0.30119552755E+03  0.47000000000E+01 0. -1.
        -13    1    6    6    0    0  0.24055730181E+01  0.20273195126E+01 -0.21234055867E+03  0.21236386147E+03  0.00000000000E+00 0.  1.
         14    1    6    6    0    0  0.57841865091E+01 -0.20259288924E+02 -0.55815888773E+01  0.21795635702E+02  0.00000000000E+00 0. -1.
         -5    1    3    3    0  503  0.25403625537E+02 -0.55558022598E+02  0.72750340847E+02  0.95114353064E+02  0.47000000000E+01 0.  1.
         11    1    4    4    0    0 -0.45296003070E+02 -0.11182168418E+02  0.65646636393E+02  0.80537256313E+02  0.00000000000E+00 0. -1.
        -12    1    4    4    0    0 -0.66378210461E+02 -0.96767509155E+01 -0.10261503483E+02  0.67860185573E+02  0.00000000000E+00 0.  1.
</event>
<event>
12    1  0.9873238E-001  0.2049705E+03  0.7818608E-02  0.1146099E+00
         21   -1    0    0  501  502  0.00000000000E+00  0.00000000000E+00  0.30406849173E+03  0.30406849173E+03  0.00000000000E+00 0.  1.
         21   -1    0    0  502  503 -0.00000000000E+00 -0.00000000000E+00 -0.15314838938E+03  0.15314838938E+03  0.00000000000E+00 0.  1.
         -6    2    1    2    0  503  0.57850159174E+01  0.10508690720E+03  0.15105091951E+03  0.25461599313E+03  0.17588689320E+03 0.  0.
        -24    2    3    3    0    0  0.12367848565E+02  0.14354250557E+03  0.13180898985E+03  0.21086089527E+03  0.79569421040E+02 0.  0.
          6    2    1    2  501    0 -0.57850159174E+01 -0.10508690720E+03 -0.13081716311E+00  0.20260088798E+03  0.17311954893E+03 0.  0.
         24    2    5    5    0    0 -0.63582958977E+02 -0.33540534636E+02  0.76803580054E+01  0.11017475473E+03  0.83136806201E+02 0.  0.
          5    1    5    5  501    0  0.57797943060E+02 -0.71546372563E+02 -0.78111751686E+01  0.92426133244E+02  0.47000000000E+01 0. -1.
        -13    1    6    6    0    0 -0.56589313110E+02 -0.53351708687E+02  0.26301721152E+02  0.82100765610E+02  0.00000000000E+00 0.  1.
         14    1    6    6    0    0 -0.69936458669E+01  0.19811174051E+02 -0.18621363147E+02  0.28073989123E+02  0.00000000000E+00 0. -1.
         -5    1    3    3    0  503 -0.65828326474E+01 -0.38455598371E+02  0.19241929657E+02  0.43755097859E+02  0.47000000000E+01 0.  1.
         11    1    4    4    0    0  0.31293204489E+02  0.77858614550E+02  0.11150839915E+03  0.13955411706E+03  0.00000000000E+00 0. -1.
        -12    1    4    4    0    0 -0.18925355924E+02  0.65683891020E+02  0.20300590707E+02  0.71306778216E+02  0.00000000000E+00 0.  1.
</event>
<event>
12    1  0.9873238E-001  0.1763788E+03  0.7818608E-02  0.1171881E+00
         21   -1    0    0  501  502  0.00000000000E+00  0.00000000000E+00  0.13837930001E+03  0.13837930001E+03  0.00000000000E+00 0. -1.
         21   -1    0    0  502  503 -0.00000000000E+00 -0.00000000000E+00 -0.22596109983E+03  0.22596109983E+03  0.00000000000E+00 0. -1.
         -6    2    1    2    0  503  0.27633582414E+02  0.10182190894E+00 -0.19838434639E+02  0.17539956178E+03  0.17206922310E+03 0.  0.
        -24    2    3    3    0    0  0.19955498303E+01 -0.65115356496E+02 -0.49665485895E+01  0.10360922769E+03  0.80412770051E+02 0.  0.
          6    2    1    2  501    0 -0.27633582414E+02 -0.10182190894E+00 -0.67743365178E+02  0.18894083806E+03  0.17420060711E+03 0.  0.
         24    2    5    5    0    0 -0.76493994354E+01 -0.47577387264E+02  0.12722792172E+02  0.93284215950E+02  0.78854006964E+02 0.  0.
          5    1    5    5  501    0 -0.19984182978E+02  0.47475565355E+02 -0.80466157350E+02  0.95656622111E+02  0.47000000000E+01 0. -1.
        -13    1    6    6    0    0  0.23211373708E+02 -0.18035999542E+02  0.34506875884E+02  0.45329787471E+02  0.00000000000E+00 0.  1.
         14    1    6    6    0    0 -0.30860773144E+02 -0.29541387722E+02 -0.21784083712E+02  0.47954428479E+02  0.00000000000E+00 0. -1.
         -5    1    3    3    0  503  0.25638032583E+02  0.65217178405E+02 -0.14871886049E+02  0.71790334089E+02  0.47000000000E+01 0.  1.
         13    1    4    4    0    0  0.18623905776E+02 -0.56748653604E+02  0.27834765126E+02  0.65894109766E+02  0.00000000000E+00 0. -1.
        -14    1    4    4    0    0 -0.16628355945E+02 -0.83667028925E+01 -0.32801313716E+02  0.37715117926E+02  0.00000000000E+00 0.  1.
</event>
<event>
12    1  0.9873238E-001  0.1839157E+03  0.7818608E-02  0.1164930E+00
         21   -1    0    0  503  502  0.00000000000E+00  0.00000000000E+00  0.28129962162E+03  0.28129962162E+03  0.00000000000E+00 0.  1.
         21   -1    0    0  501  503 -0.00000000000E+00 -0.00000000000E+00 -0.13480377241E+03  0.13480377241E+03  0.00000000000E+00 0.  1.
          6    2    1    2  501    0 -0.31981691249E+02 -0.46227772935E+02  0.14759660317E+03  0.23581714113E+03  0.17511462309E+03 0.  0.
         24    2    3    3    0    0  0.40660194560E+02 -0.10740732745E+02  0.60500551918E+02  0.11688865111E+03  0.90741529716E+02 0.  0.
         -6    2    1    2    0  502  0.31981691249E+02  0.46227772935E+02 -0.11007539504E+01  0.18028625290E+03  0.17129531739E+03 0.  0.
        -24    2    5    5    0    0  0.69273738269E+01 -0.34661624794E+02 -0.25006448688E+02  0.92170501030E+02  0.81367450756E+02 0.  0.
          5    1    3    3  501    0 -0.72641885809E+02 -0.35487040190E+02  0.87096051250E+02  0.11892849002E+03  0.47000000000E+01 0. -1.
        -11    1    4    4    0    0  0.31104005588E+02 -0.49854630507E+02  0.43839487595E+02  0.73313327705E+02  0.00000000000E+00 0.  1.
         12    1    4    4    0    0  0.95561889717E+01  0.39113897762E+02  0.16661064323E+02  0.43575323409E+02  0.00000000000E+00 0. -1.
         -5    1    5    5    0  502  0.25054317422E+02  0.80889397729E+02  0.23905694737E+02  0.88115751868E+02  0.47000000000E+01 0.  1.
         11    1    6    6    0    0  0.22503868914E+02 -0.26083900053E+02  0.22700950859E+02  0.41256843408E+02  0.00000000000E+00 0. -1.
        -12    1    6    6    0    0 -0.15576495087E+02 -0.85777247414E+01 -0.47707399546E+02  0.50913657622E+02  0.00000000000E+00 0.  1.
</event>
<event>
12    1  0.9873238E-001  0.1962433E+03  0.7818608E-02  0.1153054E+00
         21   -1    0    0  503  502  0.00000000000E+00  0.00000000000E+00  0.67070119787E+02  0.67070119787E+02  0.00000000000E+00 0. -1.
         21   -1    0    0  501  503 -0.00000000000E+00 -0.00000000000E+00 -0.70300438324E+03  0.70300438324E+03  0.00000000000E+00 0. -1.
          6    2    1    2  501    0  0.90363916983E+02 -0.21732894165E+02 -0.48337255549E+03  0.52150558310E+03  0.17228200609E+03 0.  0.
         24    2    3    3    0    0  0.19849646879E+02  0.48545521951E+02 -0.26005467157E+03  0.27695643602E+03  0.79534640651E+02 0.  0.
         -6    2    1    2    0  502 -0.90363916983E+02  0.21732894165E+02 -0.15256170796E+03  0.24856891993E+03  0.17283945451E+03 0.  0.
        -24    2    5    5    0    0 -0.37902505772E+02  0.73279798233E+01 -0.16958021915E+03  0.19137258310E+03  0.79848078275E+02 0.  0.
          5    1    3    3  501    0  0.70514270103E+02 -0.70278416116E+02 -0.22331788393E+03  0.24454914709E+03  0.47000000000E+01 0. -1.
        -11    1    4    4    0    0  0.45531457766E+02  0.66184351822E+01 -0.13183366974E+03  0.13963177936E+03  0.00000000000E+00 0.  1.
         12    1    4    4    0    0 -0.25681810887E+02  0.41927086768E+02 -0.12822100183E+03  0.13732465665E+03  0.00000000000E+00 0. -1.
         -5    1    5    5    0  502 -0.52461411210E+02  0.14404914342E+02  0.17018511186E+02  0.57196336827E+02  0.47000000000E+01 0.  1.
         13    1    6    6    0    0 -0.37550890610E+02 -0.29133715619E+02 -0.64311644523E+02  0.79967683426E+02  0.00000000000E+00 0. -1.
        -14    1    6    6    0    0 -0.35161516226E+00  0.36461695442E+02 -0.10526857462E+03  0.11140489967E+03  0.00000000000E+00 0.  1.
</event>
<event>
12    1  0.9873238E-001  0.2162667E+03  0.7818608E-02  0.1137256E+00
         21   -1    0    0  501  502  0.00000000000E+00  0.00000000000E+00  0.11038204369E+04  0.11038204369E+04  0.00000000000E+00 0.  1.
         21   -1    0    0  502  503 -0.00000000000E+00 -0.00000000000E+00 -0.47319684610E+02  0.47319684610E+02  0.00000000000E+00 0.  1.
         -6    2    1    2    0  503  0.15324477055E+01  0.12982825577E+03  0.72791787688E+03  0.75936534652E+03  0.17295539778E+03 0.  0.
        -24    2    3    3    0    0 -0.45375254083E+02  0.37379761262E+02  0.48548214814E+03  0.49565294788E+03  0.80763657347E+02 0.  0.
          6    2    1    2  501    0 -0.15324477055E+01 -0.12982825577E+03  0.32858287542E+03  0.39177477500E+03  0.16930163589E+03 0.  0.
         24    2    5    5    0    0  0.30500957664E+02 -0.10066106909E+03  0.32150365364E+03  0.34762651094E+03  0.80103886046E+02 0.  0.
          5    1    5    5  501    0 -0.32033405369E+02 -0.29167186685E+02  0.70792217870E+01  0.44148264063E+02  0.47000000000E+01 0. -1.
        -11    1    6    6    0    0  0.55807687084E+02 -0.54651926097E+02  0.21786946777E+03  0.23144856005E+03  0.00000000000E+00 0.  1.
         12    1    6    6    0    0 -0.25306729421E+02 -0.46009142990E+02  0.10363418587E+03  0.11617795089E+03  0.00000000000E+00 0. -1.
         -5    1    3    3    0  503  0.46907701789E+02  0.92448494510E+02  0.24243572874E+03  0.26371239863E+03  0.47000000000E+01 0.  1.
         11    1    4    4    0    0 -0.19038160471E+02 -0.10259688880E+02  0.30294042416E+02  0.37221523020E+02  0.00000000000E+00 0. -1.
        -12    1    4    4    0    0 -0.26337093612E+02  0.47639450142E+02  0.45518810572E+03  0.45843142486E+03  0.00000000000E+00 0.  1.
</event>
<event>
12    1  0.9873238E-001  0.2901018E+03  0.7818608E-02  0.1090474E+00
         21   -1    0    0  501  502  0.00000000000E+00  0.00000000000E+00  0.43437559496E+03  0.43437559496E+03  0.00000000000E+00 0. -1.
         21   -1    0    0  502  503 -0.00000000000E+00 -0.00000000000E+00 -0.19284658348E+03  0.19284658348E+03  0.00000000000E+00 0. -1.
         -6    2    1    2    0  503 -0.13057511684E+03  0.19341998818E+03  0.11943965649E+03  0.31372736727E+03  0.17233071828E+03 0.  0.
        -24    2    3    3    0    0 -0.93864769531E+02  0.13008600605E+03  0.15046960952E+03  0.23407944905E+03  0.80119418053E+02 0.  0.
          6    2    1    2  501    0  0.13057511684E+03 -0.19341998818E+03  0.12208935499E+03  0.31349481117E+03  0.17003538769E+03 0.  0.
         24    2    5    5    0    0  0.10152183675E+03 -0.11486104666E+03  0.17727714021E+02  0.17959543671E+03  0.91872224663E+02 0.  0.
          5    1    5    5  501    0  0.29053280081E+02 -0.78558941525E+02  0.10436164097E+03  0.13389937446E+03  0.47000000000E+01 0. -1.
        -11    1    6    6    0    0  0.93701073971E+02 -0.42649091196E+02  0.26840057915E+02  0.10639184627E+03  0.00000000000E+00 0.  1.
         12    1    6    6    0    0  0.78207627831E+01 -0.72211955463E+02 -0.91123438944E+01  0.73203590441E+02  0.00000000000E+00 0. -1.
         -5    1    3    3    0  503 -0.36710347305E+02  0.63333982131E+02 -0.31029953025E+02  0.79647918218E+02  0.47000000000E+01 0.  1.
         13    1    4    4    0    0  0.30960566279E+01  0.20780796776E+02 -0.40718172652E+01  0.21401092895E+02  0.00000000000E+00 0. -1.
        -14    1    4    4    0    0 -0.96960826159E+02  0.10930520928E+03  0.15454142678E+03  0.21267835615E+03  0.00000000000E+00 0.  1.
</event>
<event>
12    1  0.9873238E-001  0.2660425E+03  0.7818608E-02  0.1103824E+00
         21   -1    0    0  501  502  0.00000000000E+00  0.00000000000E+00  0.35676996546E+03  0.35676996546E+03  0.00000000000E+00 0.  1.
         21   -1    0    0  502  503 -0.00000000000E+00 -0.00000000000E+00 -0.23116297089E+03  0.23116297089E+03  0.00000000000E+00 0. -1.
         -6    2    1    2    0  503 -0.60058147773E+01 -0.20165073661E+03  0.17586834384E+03  0.31891739471E+03  0.17343454356E+03 0.  0.
        -24    2    3    3    0    0 -0.51919184879E+02 -0.10574798592E+03  0.42191158475E+02  0.14804593709E+03  0.79115531659E+02 0.  0.
          6    2    1    2  501    0  0.60058147773E+01  0.20165073661E+03 -0.50261349264E+02  0.26901554164E+03  0.17071634083E+03 0.  0.
         24    2    5    5    0    0 -0.57201864071E+02  0.84566069236E+02 -0.37207789770E+02  0.13523768318E+03  0.80506757558E+02 0.  0.
          5    1    5    5  501    0  0.63207678849E+02  0.11708466737E+03 -0.13053559493E+02  0.13377785846E+03  0.47000000000E+01 0. -1.
        -13    1    6    6    0    0 -0.32300533949E+02 -0.43055014078E+01  0.63210122425E+01  0.33193629382E+02  0.00000000000E+00 0.  1.
         14    1    6    6    0    0 -0.24901330122E+02  0.88871570643E+02 -0.43528802013E+02  0.10204405380E+03  0.00000000000E+00 0. -1.
         -5    1    3    3    0  503  0.45913370102E+02 -0.95902750685E+02  0.13367718536E+03  0.17087145762E+03  0.47000000000E+01 0.  1.
         13    1    4    4    0    0  0.13327538295E+02 -0.31378750126E+02  0.34986855806E+02  0.48850069761E+02  0.00000000000E+00 0. -1.
        -14    1    4    4    0    0 -0.65246723174E+02 -0.74369235796E+02  0.72043026689E+01  0.99195867326E+02  0.00000000000E+00 0.  1.
</event>
<event>
12    1  0.9873238E-001  0.2626749E+03  0.7818608E-02  0.1105598E+00
         21   -1    0    0  501  502  0.00000000000E+00  0.00000000000E+00  0.59113104772E+03  0.59113104772E+03  0.00000000000E+00 0. -1.
         21   -1    0    0  502  503 -0.00000000000E+00 -0.00000000000E+00 -0.15543716890E+03  0.15543716890E+03  0.00000000000E+00 0. -1.
         -6    2    1    2    0  503 -0.12735607554E+02 -0.19816671348E+03  0.40440304101E+03  0.48203614191E+03  0.17141989528E+03 0.  0.
        -24    2    3    3    0    0  0.27054078456E+02 -0.15071103271E+03  0.17895835381E+03  0.24819290866E+03  0.78280833985E+02 0.  0.
          6    2    1    2  501    0  0.12735607554E+02  0.19816671348E+03  0.31290837805E+02  0.26453207471E+03  0.17194725933E+03 0.  0.
         24    2    5    5    0    0  0.72484400340E+02  0.15616916805E+03  0.21820336909E+02  0.19073849472E+03  0.79134372575E+02 0.  0.
          5    1    5    5  501    0 -0.59748792786E+02  0.41997545429E+02  0.94705008964E+01  0.73793579996E+02  0.47000000000E+01 0. -1.
        -11    1    6    6    0    0  0.25728297295E+02  0.12652568330E+03 -0.50227969408E+01  0.12921270179E+03  0.00000000000E+00 0.  1.
         12    1    6    6    0    0  0.46756103045E+02  0.29643484751E+02  0.26843133850E+02  0.61525792924E+02  0.00000000000E+00 0. -1.
         -5    1    3    3    0  503 -0.39789686009E+02 -0.47455680770E+02  0.22544468720E+03  0.23384323325E+03  0.47000000000E+01 0.  1.
         11    1    4    4    0    0 -0.19152696360E+02 -0.94742520869E+02  0.79991033570E+02  0.12546528002E+03  0.00000000000E+00 0. -1.
        -12    1    4    4    0    0  0.46206774816E+02 -0.55968511839E+02  0.98967320241E+02  0.12272762864E+03  0.00000000000E+00 0.  1.
</event>
<event>
12    1  0.9873238E-001  0.2417597E+03  0.7818608E-02  0.1119303E+00
         21   -1    0    0  501  502  0.00000000000E+00  0.00000000000E+00  0.96920045668E+02  0.96920045668E+02  0.00000000000E+00 0. -1.
         21   -1    0    0  502  503 -0.00000000000E+00 -0.00000000000E+00 -0.60997848809E+03  0.60997848809E+03  0.00000000000E+00 0. -1.
         -6    2    1    2    0  503  0.69449175203E+01  0.16907639992E+03 -0.31346966726E+03  0.39339665656E+03  0.16692104783E+03 0.  0.
        -24    2    3    3    0    0  0.37339123385E+02  0.38399874451E+02 -0.17656656034E+03  0.20165539145E+03  0.81365755566E+02 0.  0.
          6    2    1    2  501    0 -0.69449175203E+01 -0.16907639992E+03 -0.19958877516E+03  0.31350187720E+03  0.17266350786E+03 0.  0.
         24    2    5    5    0    0 -0.89596115344E+01 -0.12776349492E+03 -0.51375755722E+02  0.15955382024E+03  0.80088501059E+02 0.  0.
          5    1    5    5  501    0  0.20146940141E+01 -0.41312904998E+02 -0.14821301944E+03  0.15394805696E+03  0.47000000000E+01 0. -1.
        -13    1    6    6    0    0 -0.10190797137E+02 -0.12551411234E+03 -0.67739411920E+02  0.14299046357E+03  0.00000000000E+00 0.  1.
         14    1    6    6    0    0  0.12311856026E+01 -0.22493825804E+01  0.16363656198E+02  0.16563356670E+02  0.00000000000E+00 0. -1.
         -5    1    3    3    0  503 -0.30394205865E+02  0.13067652547E+03 -0.13690310692E+03  0.19174126510E+03  0.47000000000E+01 0.  1.
         13    1    4    4    0    0  0.15734786671E+02  0.60628206572E+01 -0.15739671381E+03  0.15829739993E+03  0.00000000000E+00 0. -1.
        -14    1    4    4    0    0  0.21604336714E+02  0.32337053794E+02 -0.19169846527E+02  0.43357991521E+02  0.00000000000E+00 0.  1.
</event>
<event>
12    1  0.9873238E-001  0.7361311E+03  0.7818608E-02  0.9657612E-01
         21   -1    0    0  501  502  0.00000000000E+00  0.00000000000E+00  0.37030694461E+03  0.37030694461E+03  0.00000000000E+00 0.  1.
         21   -1    0    0  502  503 -0.00000000000E+00 -0.00000000000E+00 -0.16313390641E+04  0.16313390641E+04  0.00000000000E+00 0.  1.
         -6    2    1    2    0  503 -0.58942068298E+03  0.40528943632E+03 -0.95261597054E+03  0.12035172037E+04  0.17117302218E+03 0.  0.
        -24    2    3    3    0    0 -0.53296503690E+03  0.40427261836E+03 -0.91166187280E+03  0.11336058168E+04  0.80291326281E+02 0.  0.
          6    2    1    2  501    0  0.58942068298E+03 -0.40528943632E+03 -0.30841614899E+03  0.79812880506E+03  0.17381829533E+03 0.  0.
         24    2    5    5    0    0  0.22345128724E+03 -0.17201191067E+03 -0.62658213977E+02  0.29935926387E+03  0.78557888893E+02 0.  0.
          5    1    5    5  501    0  0.36596939575E+03 -0.23327752565E+03 -0.24575793502E+03  0.49876954119E+03  0.47000000000E+01 0. -1.
        -11    1    6    6    0    0  0.20859178789E+03 -0.17688735874E+03 -0.69655912282E+02  0.28222618195E+03  0.00000000000E+00 0.  1.
         12    1    6    6    0    0  0.14859499344E+02  0.48754480765E+01  0.69976983049E+01  0.17133081925E+02  0.00000000000E+00 0. -1.
         -5    1    3    3    0  503 -0.56455646083E+02  0.10168179577E+01 -0.40954097746E+02  0.69911386881E+02  0.47000000000E+01 0.  1.
         13    1    4    4    0    0 -0.25705241987E+03  0.16917368520E+03 -0.47672570002E+03  0.56741790188E+03  0.00000000000E+00 0. -1.
        -14    1    4    4    0    0 -0.27591261703E+03  0.23509893317E+03 -0.43493617278E+03  0.56618791492E+03  0.00000000000E+00 0.  1.
</event>
<event>
12    1  0.9873238E-001  0.1984968E+03  0.7818608E-02  0.1151348E+00
         21   -1    0    0  503  502  0.00000000000E+00  0.00000000000E+00  0.14252706086E+04  0.14252706086E+04  0.00000000000E+00 0. -1.
         21   -1    0    0  501  503 -0.00000000000E+00 -0.00000000000E+00 -0.27537700778E+02  0.27537700778E+02  0.00000000000E+00 0. -1.
          6    2    1    2  501    0 -0.19384222260E+02  0.92076238301E+02  0.74217381286E+03  0.76785670093E+03  0.17299758073E+03 0.  0.
         24    2    3    3    0    0 -0.20222913439E+02  0.94545456357E+02  0.74891067717E+03  0.75923836110E+03  0.78916899586E+02 0.  0.
         -6    2    1    2    0  502  0.19384222260E+02 -0.92076238301E+02  0.65555909499E+03  0.68495160848E+03  0.17477756491E+03 0.  0.
        -24    2    5    5    0    0  0.36742717467E+02 -0.12652876020E+03  0.57353738336E+03  0.59418848381E+03  0.82190447915E+02 0.  0.
          5    1    3    3  501    0  0.83869117940E+00 -0.24692180552E+01 -0.67368643106E+01  0.86183398307E+01  0.47000000000E+01 0. -1.
        -11    1    4    4    0    0  0.10133343177E+02  0.87694502236E+02  0.63676075645E+03  0.64285089354E+03  0.00000000000E+00 0.  1.
         12    1    4    4    0    0 -0.30356256617E+02  0.68509541211E+01  0.11214992072E+03  0.11638746756E+03  0.00000000000E+00 0. -1.
         -5    1    5    5    0  502 -0.17358495207E+02  0.34452521903E+02  0.82021711629E+02  0.90763124670E+02  0.47000000000E+01 0.  1.
         11    1    6    6    0    0 -0.12091659412E+02 -0.84025107758E+01  0.17581564057E+03  0.17643114772E+03  0.00000000000E+00 0. -1.
        -12    1    6    6    0    0  0.48834376879E+02 -0.11812624943E+03  0.39772174279E+03  0.41775733609E+03  0.00000000000E+00 0.  1.
</event>
<event>
12    1  0.9873238E-001  0.1802246E+03  0.7818608E-02  0.1167695E+00
         21   -1    0    0  501  502  0.00000000000E+00  0.00000000000E+00  0.36588422610E+03  0.36588422610E+03  0.00000000000E+00 0.  1.
         21   -1    0    0  502  503 -0.00000000000E+00 -0.00000000000E+00 -0.52560816229E+03  0.52560816229E+03  0.00000000000E+00 0.  1.
         -6    2    1    2    0  503 -0.22698032160E+02  0.48240404099E+02  0.32658842677E+03  0.37301597880E+03  0.17215859748E+03 0.  0.
        -24    2    3    3    0    0 -0.48860044379E+01  0.99473357666E+02  0.24058994301E+03  0.27123232062E+03  0.75925154904E+02 0.  0.
          6    2    1    2  501    0  0.22698032160E+02 -0.48240404099E+02 -0.48631236296E+03  0.51847640959E+03  0.17168498968E+03 0.  0.
         24    2    5    5    0    0  0.44175687638E+02  0.78999773812E+01 -0.13958567562E+03  0.16654670378E+03  0.78992041880E+02 0.  0.
          5    1    5    5  501    0 -0.21477655478E+02 -0.56140381480E+02 -0.34672668734E+03  0.35192970581E+03  0.47000000000E+01 0. -1.
        -11    1    6    6    0    0 -0.12832767822E+02 -0.63175477733E+01  0.83666675739E+00  0.14327991873E+02  0.00000000000E+00 0.  1.
         12    1    6    6    0    0  0.57008455460E+02  0.14217525154E+02 -0.14042234238E+03  0.15221871191E+03  0.00000000000E+00 0. -1.
         -5    1    3    3    0  503 -0.17812027722E+02 -0.51232953567E+02  0.85998483758E+02  0.10178365817E+03  0.47000000000E+01 0.  1.
         11    1    4    4    0    0  0.24336062270E+02  0.90447520112E+02  0.19507638498E+03  0.21639730544E+03  0.00000000000E+00 0. -1.
        -12    1    4    4    0    0 -0.29222066708E+02  0.90258375543E+01  0.45513558027E+02  0.54835015187E+02  0.00000000000E+00 0.  1.
</event>
<event>
12    1  0.9873238E-001  0.1747796E+03  0.7818608E-02  0.1173046E+00
         21   -1    0    0  501  502  0.00000000000E+00  0.00000000000E+00  0.79481567433E+02  0.79481567433E+02  0.00000000000E+00 0.  1.
         21   -1    0    0  502  503 -0.00000000000E+00 -0.00000000000E+00 -0.56600044750E+03  0.56600044750E+03  0.00000000000E+00 0.  1.
         -6    2    1    2    0  503 -0.51564273471E+01  0.32537708876E+02 -0.59832844268E+02  0.18438672069E+03  0.17126938510E+03 0.  0.
        -24    2    3    3    0    0 -0.37191339288E+02 -0.36506724492E+02 -0.10727679817E+02  0.93685141117E+02  0.77109570746E+02 0.  0.
          6    2    1    2  501    0  0.51564273471E+01 -0.32537708876E+02 -0.42668603580E+03  0.46109529423E+03  0.17164674765E+03 0.  0.
         24    2    5    5    0    0 -0.11831639453E+02 -0.51610355804E+01 -0.80103552228E+02  0.11298671265E+03  0.78630745745E+02 0.  0.
          5    1    5    5  501    0  0.16988066800E+02 -0.27376673295E+02 -0.34658248357E+03  0.34810858158E+03  0.47000000000E+01 0. -1.
        -13    1    6    6    0    0 -0.20845813850E+02 -0.34403283575E+02 -0.18656288708E+02  0.44341752155E+02  0.00000000000E+00 0.  1.
         14    1    6    6    0    0  0.90141743973E+01  0.29242247994E+02 -0.61447263520E+02  0.68644960499E+02  0.00000000000E+00 0. -1.
         -5    1    3    3    0  503  0.32034911941E+02  0.69044433368E+02 -0.49105164451E+02  0.90701579578E+02  0.47000000000E+01 0.  1.
         11    1    4    4    0    0  0.12861347227E+02 -0.22464664533E+02  0.20519092970E+02  0.33031932753E+02  0.00000000000E+00 0. -1.
        -12    1    4    4    0    0 -0.50052686515E+02 -0.14042059959E+02 -0.31246772787E+02  0.60653208365E+02  0.00000000000E+00 0.  1.
</event>
<event>
12    1  0.9873238E-001  0.1747835E+03  0.7818608E-02  0.1173160E+00
         21   -1    0    0  501  502  0.00000000000E+00  0.00000000000E+00  0.48630682146E+03  0.48630682146E+03  0.00000000000E+00 0. -1.
         21   -1    0    0  502  503 -0.00000000000E+00 -0.00000000000E+00 -0.62788348791E+02  0.62788348791E+02  0.00000000000E+00 0. -1.
         -6    2    1    2    0  503 -0.13081068265E+02 -0.20185214174E+02  0.19428869607E+03  0.26133763004E+03  0.17312048474E+03 0.  0.
        -24    2    3    3    0    0 -0.37806615690E+02  0.43344840439E+02  0.73184936949E+02  0.12228501048E+03  0.79306200319E+02 0.  0.
          6    2    1    2  501    0  0.13081068265E+02  0.20185214174E+02  0.22922977660E+03  0.28775754021E+03  0.17227755004E+03 0.  0.
         24    2    5    5    0    0  0.36775332846E+02  0.31260443149E+01  0.24055187266E+03  0.25609189148E+03  0.79722369395E+02 0.  0.
          5    1    5    5  501    0 -0.23694264581E+02  0.17059169859E+02 -0.11322096060E+02  0.31665648730E+02  0.47000000000E+01 0. -1.
        -11    1    6    6    0    0  0.35784931991E+02  0.20997986977E+02  0.51222511217E+02  0.65918301481E+02  0.00000000000E+00 0.  1.
         12    1    6    6    0    0  0.99040085479E+00 -0.17871942662E+02  0.18932936144E+03  0.19017359000E+03  0.00000000000E+00 0. -1.
         -5    1    3    3    0  503  0.24725547425E+02 -0.63530054613E+02  0.12110375912E+03  0.13905261957E+03  0.47000000000E+01 0.  1.
         13    1    4    4    0    0  0.63533317977E+01  0.21192134519E+02  0.69279108044E+02  0.72725966489E+02  0.00000000000E+00 0. -1.
        -14    1    4    4    0    0 -0.44159947488E+02  0.22152705920E+02  0.39058289045E+01  0.49559043989E+02  0.00000000000E+00 0.  1.
</event>
<event>
12    1  0.9873238E-001  0.2442655E+03  0.7818608E-02  0.1117025E+00
         21   -1    0    0  503  502  0.00000000000E+00  0.00000000000E+00  0.33519040837E+03  0.33519040837E+03  0.00000000000E+00 0.  1.
         21   -1    0    0  501  503 -0.00000000000E+00 -0.00000000000E+00 -0.19323134057E+03  0.19323134057E+03  0.00000000000E+00 0.  1.
          6    2    1    2  501    0  0.12261310893E+03  0.12175337156E+03  0.14556407680E+03  0.28412963807E+03  0.17228723925E+03 0.  0.
         24    2    3    3    0    0  0.31747747011E+02  0.12188516577E+03  0.11627089063E+03  0.18854348780E+03  0.78522695500E+02 0.  0.
         -6    2    1    2    0  502 -0.12261310893E+03 -0.12175337156E+03 -0.36050090004E+01  0.24429211087E+03  0.17264930169E+03 0.  0.
        -24    2    5    5    0    0 -0.15842308930E+03 -0.94060047396E+02 -0.56616965174E+01  0.19873341400E+03  0.74281540729E+02 0.  0.
          5    1    3    3  501    0  0.90865361923E+02 -0.13179421669E+00  0.29293186169E+02  0.95586150268E+02  0.47000000000E+01 0. -1.
        -13    1    4    4    0    0  0.19425496397E+02  0.55482674586E+02  0.10462784073E+03  0.12001109176E+03  0.00000000000E+00 0.  1.
         14    1    4    4    0    0  0.12322250614E+02  0.66402491186E+02  0.11643049898E+02  0.68532396039E+02  0.00000000000E+00 0. -1.
         -5    1    5    5    0  502  0.35809980364E+02 -0.27693324160E+02  0.20566875170E+01  0.45558696868E+02  0.47000000000E+01 0.  1.
         11    1    6    6    0    0 -0.69164569829E+02 -0.83959889552E+02 -0.52061735793E+01  0.10890410927E+03  0.00000000000E+00 0. -1.
        -12    1    6    6    0    0 -0.89258519469E+02 -0.10100157844E+02 -0.45552293804E+00  0.89829304726E+02  0.00000000000E+00 0.  1.
</event>
<event>
12    1  0.9873238E-001  0.1766519E+03  0.7818608E-02  0.1171307E+00
         21   -1    0    0  503  502  0.00000000000E+00  0.00000000000E+00  0.41953946085E+03  0.41953946085E+03  0.00000000000E+00 0. -1.
         21   -1    0    0  501  503 -0.00000000000E+00 -0.00000000000E+00 -0.89675733848E+02  0.89675733848E+02  0.00000000000E+00 0. -1.
          6    2    1    2  501    0 -0.10156732361E+02 -0.39705586708E+02  0.27102334637E+03  0.32302148732E+03  0.17090796986E+03 0.  0.
         24    2    3    3    0    0  0.13068026205E+02  0.21140570899E+02  0.10012167758E+03  0.14007036078E+03  0.94750507125E+02 0.  0.
         -6    2    1    2    0  502  0.10156732361E+02  0.39705586708E+02  0.58840380626E+02  0.18619370738E+03  0.17183193372E+03 0.  0.
        -24    2    5    5    0    0 -0.42116595503E+02 -0.22110431215E+02  0.47217227356E+02  0.10427357206E+03  0.79880113209E+02 0.  0.
          5    1    3    3  501    0 -0.23224758565E+02 -0.60846157608E+02  0.17090166879E+03  0.18295112654E+03  0.47000000000E+01 0. -1.
        -11    1    4    4    0    0  0.14944652361E+02 -0.36568651014E+02  0.49088598065E+02  0.63010311308E+02  0.00000000000E+00 0.  1.
         12    1    4    4    0    0 -0.18766261563E+01  0.57709221914E+02  0.51033079513E+02  0.77060049469E+02  0.00000000000E+00 0. -1.
         -5    1    5    5    0  502  0.52273327864E+02  0.61816017923E+02  0.11623153270E+02  0.81920135313E+02  0.47000000000E+01 0.  1.
         13    1    6    6    0    0 -0.13268110299E+02 -0.42371576836E+02  0.52356422485E+02  0.68648293860E+02  0.00000000000E+00 0. -1.
        -14    1    6    6    0    0 -0.28848485204E+02  0.20261145621E+02 -0.51391951288E+01  0.35625278202E+02  0.00000000000E+00 0.  1.
</event>
<event>
12    1  0.9873238E-001  0.2016842E+03  0.7818608E-02  0.1148342E+00
         21   -1    0    0  503  502  0.00000000000E+00  0.00000000000E+00  0.15681131638E+04  0.15681131638E+04  0.00000000000E+00 0. -1.
         21   -1    0    0  501  503 -0.00000000000E+00 -0.00000000000E+00 -0.31549821672E+02  0.31549821672E+02  0.00000000000E+00 0. -1.
          6    2    1    2  501    0  0.10288819275E+03  0.82444209018E+01  0.43083159903E+03  0.47570197828E+03  0.17327017842E+03 0.  0.
         24    2    3    3    0    0  0.41613485711E+02  0.54400815892E+02  0.34256265899E+03  0.35866139430E+03  0.81226162446E+02 0.  0.
         -6    2    1    2    0  502 -0.10288819275E+03 -0.82444209018E+01  0.11057317431E+04  0.11239610072E+04  0.17318114020E+03 0.  0.
        -24    2    5    5    0    0 -0.34923508921E+02 -0.85612498430E+01  0.92846886690E+03  0.93405704225E+03  0.95473425002E+02 0.  0.
          5    1    3    3  501    0  0.61274707039E+02 -0.46156394990E+02  0.88268940041E+02  0.11704058397E+03  0.47000000000E+01 0. -1.
        -13    1    4    4    0    0  0.46631461767E+02  0.46981609407E+02  0.12974667414E+03  0.14565700910E+03  0.00000000000E+00 0.  1.
         14    1    4    4    0    0 -0.50179760558E+01  0.74192064848E+01  0.21281598485E+03  0.21300438520E+03  0.00000000000E+00 0. -1.
         -5    1    5    5    0  502 -0.67964683829E+02  0.31682894122E+00  0.17726287622E+03  0.18990396498E+03  0.47000000000E+01 0.  1.
         11    1    6    6    0    0  0.69079949422E+01  0.24582856736E+02  0.81460895283E+02  0.85369284287E+02  0.00000000000E+00 0. -1.
        -12    1    6    6    0    0 -0.41831503863E+02 -0.33144106579E+02  0.84700797162E+03  0.84868775796E+03  0.00000000000E+00 0.  1.
</event>
<event>
12    1  0.9873238E-001  0.2783861E+03  0.7818608E-02  0.1096642E+00
         21   -1    0    0  501  502  0.00000000000E+00  0.00000000000E+00  0.26623722965E+03  0.26623722965E+03  0.00000000000E+00 0. -1.
         21   -1    0    0  502  503 -0.00000000000E+00 -0.00000000000E+00 -0.89600201267E+03  0.89600201267E+03  0.00000000000E+00 0. -1.
         -6    2    1    2    0  503 -0.20480940426E+03  0.76925863757E+02  0.16289685939E+03  0.32211348498E+03  0.17133951623E+03 0.  0.
        -24    2    3    3    0    0 -0.20740544560E+02  0.24983828795E+02  0.47352106926E+02  0.98614044428E+02  0.80175718508E+02 0.  0.
          6    2    1    2  501    0  0.20480940426E+03 -0.76925863757E+02 -0.79266164240E+03  0.84012575734E+03  0.17214624079E+03 0.  0.
         24    2    5    5    0    0  0.42021218023E+02  0.26908573306E+01 -0.34253686091E+03  0.35486992299E+03  0.82632546153E+02 0.  0.
          5    1    5    5  501    0  0.16278818623E+03 -0.79616721087E+02 -0.45012478149E+03  0.48525583435E+03  0.47000000000E+01 0. -1.
        -11    1    6    6    0    0  0.74310019137E+01 -0.27031154439E+02 -0.25140916200E+03  0.25296732958E+03  0.00000000000E+00 0.  1.
         12    1    6    6    0    0  0.34590216110E+02  0.29722011770E+02 -0.91127698909E+02  0.10190259340E+03  0.00000000000E+00 0. -1.
         -5    1    3    3    0  503 -0.18406885970E+03  0.51942034962E+02  0.11554475246E+03  0.22349944055E+03  0.47000000000E+01 0.  1.
         11    1    4    4    0    0 -0.74560721265E+00  0.35597456552E+02  0.62109466653E+02  0.71591345085E+02  0.00000000000E+00 0. -1.
        -12    1    4    4    0    0 -0.19994937347E+02 -0.10613627758E+02 -0.14757359727E+02  0.27022699343E+02  0.00000000000E+00 0.  1.
</event>
<event>
12    1  0.9873238E-001  0.2753787E+03  0.7818608E-02  0.1098241E+00
         21   -1    0    0  501  502  0.00000000000E+00  0.00000000000E+00  0.20538336177E+03  0.20538336177E+03  0.00000000000E+00 0. -1.
         21   -1    0    0  502  503 -0.00000000000E+00 -0.00000000000E+00 -0.36950325232E+03  0.36950325232E+03  0.00000000000E+00 0. -1.
         -6    2    1    2    0  503 -0.58342241274E+02 -0.20666160333E+03 -0.90066864267E+02  0.28973342615E+03  0.17239658577E+03 0.  0.
        -24    2    3    3    0    0  0.15108475655E+02 -0.17065977689E+03 -0.34589127378E+02  0.19078390056E+03  0.76479170343E+02 0.  0.
          6    2    1    2  501    0  0.58342241274E+02  0.20666160333E+03 -0.74053026283E+02  0.28515318794E+03  0.17238229167E+03 0.  0.
         24    2    5    5    0    0  0.49325326650E+02  0.16772352202E+03 -0.11769161180E+03  0.22579078341E+03  0.81030825600E+02 0.  0.
          5    1    5    5  501    0  0.90169146236E+01  0.38938081308E+02  0.43638585517E+02  0.59362404527E+02  0.47000000000E+01 0. -1.
        -13    1    6    6    0    0  0.64127716031E+02  0.14118988454E+03 -0.11886262418E+03  0.19538493004E+03  0.00000000000E+00 0.  1.
         14    1    6    6    0    0 -0.14802389381E+02  0.26533637481E+02  0.11710123782E+01  0.30405853373E+02  0.00000000000E+00 0. -1.
         -5    1    3    3    0  503 -0.73450716929E+02 -0.36001826438E+02 -0.55477736889E+02  0.98949525590E+02  0.47000000000E+01 0. -1.
         13    1    4    4    0    0  0.36242668245E+02 -0.38276469519E+02 -0.16574693356E+01  0.52738660629E+02  0.00000000000E+00 0. -1.
        -14    1    4    4    0    0 -0.21134192589E+02 -0.13238330737E+03 -0.32931658043E+02  0.13804523993E+03  0.00000000000E+00 0.  1.
</event>
<event>
12    1  0.9873238E-001  0.2221913E+03  0.7818608E-02  0.1132736E+00
         21   -1    0    0  501  502  0.00000000000E+00  0.00000000000E+00  0.12373976829E+03  0.12373976829E+03  0.00000000000E+00 0.  1.
         21   -1    0    0  502  503 -0.00000000000E+00 -0.00000000000E+00 -0.70597116413E+03  0.70597116413E+03  0.00000000000E+00 0.  1.
         -6    2    1    2    0  503  0.13851520475E+03  0.28032433083E+02 -0.16450667912E+02  0.22279946396E+03  0.17145465119E+03 0.  0.
        -24    2    3    3    0    0  0.13545285287E+03 -0.58645531803E+01  0.33206935442E+02  0.16241443893E+03  0.83029398880E+02 0.  0.
          6    2    1    2  501    0 -0.13851520475E+03 -0.28032433083E+02 -0.56578072792E+03  0.60691146847E+03  0.16811132982E+03 0.  0.
         24    2    5    5    0    0 -0.16410974184E+03 -0.47558347717E+02 -0.49029647557E+03  0.52471472872E+03  0.75770104765E+02 0.  0.
          5    1    5    5  501    0  0.25594537089E+02  0.19525914635E+02 -0.75484252351E+02  0.82196739742E+02  0.47000000000E+01 0. -1.
        -11    1    6    6    0    0 -0.16603820834E+02 -0.17555196772E+01 -0.15096340545E+03  0.15188389810E+03  0.00000000000E+00 0.  1.
         12    1    6    6    0    0 -0.14750592100E+03 -0.45802828040E+02 -0.33933307012E+03  0.37283083063E+03  0.00000000000E+00 0. -1.
         -5    1    3    3    0  503  0.30623518817E+01  0.33896986263E+02 -0.49657603355E+02  0.60385025028E+02  0.47000000000E+01 0.  1.
         13    1    4    4    0    0  0.10221397016E+03 -0.19248798253E+02 -0.12031448079E+02  0.10470419129E+03  0.00000000000E+00 0. -1.
        -14    1    4    4    0    0  0.33238882707E+02  0.13384245073E+02  0.45238383521E+02  0.57710247646E+02  0.00000000000E+00 0.  1.
</event>
<event>
12    1  0.9873238E-001  0.1953479E+03  0.7818608E-02  0.1154053E+00
         21   -1    0    0  503  502  0.00000000000E+00  0.00000000000E+00  0.23754633508E+03  0.23754633508E+03  0.00000000000E+00 0. -1.
         21   -1    0    0  501  503 -0.00000000000E+00 -0.00000000000E+00 -0.16000762845E+03  0.16000762845E+03  0.00000000000E+00 0. -1.
          6    2    1    2  501    0  0.37606725888E+02 -0.83897000250E+02  0.26759832850E+02  0.19717227546E+03  0.17235963876E+03 0.  0.
         24    2    3    3    0    0  0.36124444724E+02 -0.47680396353E+02  0.85302737281E+02  0.12815632648E+03  0.74626344716E+02 0.  0.
         -6    2    1    2    0  502 -0.37606725888E+02  0.83897000250E+02  0.50778873786E+02  0.20038168807E+03  0.17064980049E+03 0.  0.
        -24    2    5    5    0    0  0.29370821829E+02  0.53177071646E+02 -0.13757839952E+02  0.10231648868E+03  0.81172283273E+02 0.  0.
          5    1    3    3  501    0  0.14822811637E+01 -0.36216603897E+02 -0.58542904431E+02  0.69015948987E+02  0.47000000000E+01 0. -1.
        -11    1    4    4    0    0 -0.49246793982E+01 -0.47181093154E+02  0.69546158173E+02  0.84184179838E+02  0.00000000000E+00 0.  1.
         12    1    4    4    0    0  0.41049124122E+02 -0.49930319849E+00  0.15756579108E+02  0.43972146639E+02  0.00000000000E+00 0. -1.
         -5    1    5    5    0  502 -0.66977547716E+02  0.30719928604E+02  0.64536713737E+02  0.98065199391E+02  0.47000000000E+01 0.  1.
         11    1    6    6    0    0  0.23724008083E+02  0.25120665115E+02  0.32815847758E+02  0.47652452606E+02  0.00000000000E+00 0. -1.
        -12    1    6    6    0    0  0.56468137454E+01  0.28056406531E+02 -0.46573687709E+02  0.54664036073E+02  0.00000000000E+00 0.  1.
</event>
<event>
12    1  0.9873238E-001  0.1982292E+03  0.7818608E-02  0.1151365E+00
         21   -1    0    0  503  502  0.00000000000E+00  0.00000000000E+00  0.62151577738E+03  0.62151577738E+03  0.00000000000E+00 0.  1.
         21   -1    0    0  501  503 -0.00000000000E+00 -0.00000000000E+00 -0.64996332716E+02  0.64996332716E+02  0.00000000000E+00 0.  1.
          6    2    1    2  501    0  0.54002494342E+02 -0.83958478516E+02  0.21830854392E+03  0.29448986809E+03  0.17058829546E+03 0.  0.
         24    2    3    3    0    0 -0.32796040051E+02 -0.34787527455E+02  0.72579178415E+02  0.11782378201E+03  0.79554724292E+02 0.  0.
         -6    2    1    2    0  502 -0.54002494342E+02  0.83958478516E+02  0.33821090075E+03  0.39202224201E+03  0.17125866208E+03 0.  0.
        -24    2    5    5    0    0 -0.10183233677E+03  0.61805906963E+02  0.23571439801E+03  0.27667037455E+03  0.82434360412E+02 0.  0.
          5    1    3    3  501    0  0.86798534393E+02 -0.49170951060E+02  0.14572936550E+03  0.17666608608E+03  0.47000000000E+01 0. -1.
        -11    1    4    4    0    0 -0.42364827327E+02 -0.21463358538E+01  0.72279546560E+02  0.83807626162E+02  0.00000000000E+00 0.  1.
         12    1    4    4    0    0  0.95687872760E+01 -0.32641191601E+02  0.29963185547E+00  0.34016155843E+02  0.00000000000E+00 0. -1.
         -5    1    5    5    0  502  0.47829842431E+02  0.22152571552E+02  0.10249650273E+03  0.11535186746E+03  0.47000000000E+01 0.  1.
         11    1    6    6    0    0 -0.32200427770E+02  0.26031144830E+02  0.17707278029E+02  0.45033717867E+02  0.00000000000E+00 0. -1.
        -12    1    6    6    0    0 -0.69631909004E+02  0.35774762133E+02  0.21800711998E+03  0.23163665669E+03  0.00000000000E+00 0.  1.
</event>
<event>
12    1  0.9873238E-001  0.1816330E+03  0.7818608E-02  0.1166279E+00
         21   -1    0    0  501  502  0.00000000000E+00  0.00000000000E+00  0.38911557936E+02  0.38911557936E+02  0.00000000000E+00 0.  1.
         21   -1    0    0  502  503 -0.00000000000E+00 -0.00000000000E+00 -0.92942911076E+03  0.92942911076E+03  0.00000000000E+00 0.  1.
         -6    2    1    2    0  503 -0.43043521046E+02 -0.39218806884E+02 -0.30077993457E+03  0.35126610409E+03  0.17183843380E+03 0.  0.
        -24    2    3    3    0    0  0.39555956363E+02 -0.25961555225E+02 -0.11392424048E+03  0.14648434514E+03  0.78995283196E+02 0.  0.
          6    2    1    2  501    0  0.43043521046E+02  0.39218806884E+02 -0.58973761826E+03  0.61707456460E+03  0.17204563457E+03 0.  0.
         24    2    5    5    0    0  0.84229412715E+02  0.59514018951E+02 -0.49083725455E+03  0.50793453873E+03  0.80248194778E+02 0.  0.
          5    1    5    5  501    0 -0.41185891669E+02 -0.20295212068E+02 -0.98900363705E+02  0.10914002587E+03  0.47000000000E+01 0. -1.
        -13    1    6    6    0    0  0.84315371312E+02  0.21762186802E+02 -0.26435877298E+03  0.27833116151E+03  0.00000000000E+00 0.  1.
         14    1    6    6    0    0 -0.85958597039E-01  0.37751832150E+02 -0.22647848157E+03  0.22960337723E+03  0.00000000000E+00 0. -1.
         -5    1    3    3    0  503 -0.82599477409E+02 -0.13257251659E+02 -0.18685569408E+03  0.20478175896E+03  0.47000000000E+01 0.  1.
         13    1    4    4    0    0  0.30306251776E+02  0.16035930854E+02 -0.12804692271E+02  0.36600274851E+02  0.00000000000E+00 0. -1.
        -14    1    4    4    0    0  0.92497045871E+01 -0.41997486079E+02 -0.10111954821E+03  0.10988407029E+03  0.00000000000E+00 0.  1.
</event>
<event>
12    1  0.9873238E-001  0.1767689E+03  0.7818608E-02  0.1171306E+00
         21   -1    0    0  503  502  0.00000000000E+00  0.00000000000E+00  0.56104749178E+03  0.56104749178E+03  0.00000000000E+00 0.  1.
         21   -1    0    0  501  503 -0.00000000000E+00 -0.00000000000E+00 -0.56313259416E+02  0.56313259416E+02  0.00000000000E+00 0.  1.
          6    2    1    2  501    0  0.25341153885E+02  0.26180992963E+02  0.20930981634E+03  0.27308929469E+03  0.17157955935E+03 0.  0.
         24    2    3    3    0    0  0.14485374050E+02 -0.48583819234E+02  0.79161295363E+02  0.12252916514E+03  0.78591806655E+02 0.  0.
         -6    2    1    2    0  502 -0.25341153885E+02 -0.26180992963E+02  0.29542441603E+03  0.34427145651E+03  0.17297292189E+03 0.  0.
        -24    2    5    5    0    0 -0.58389317704E+02 -0.49030171987E+02  0.27970858638E+03  0.30087395179E+03  0.80467206886E+02 0.  0.
          5    1    3    3  501    0  0.10855779834E+02  0.74764812196E+02  0.13014852097E+03  0.15056012955E+03  0.47000000000E+01 0. -1.
        -13    1    4    4    0    0  0.26131070133E+02 -0.24282101072E+02  0.87359474853E+02  0.94361703595E+02  0.00000000000E+00 0.  1.
         14    1    4    4    0    0 -0.11645696082E+02 -0.24301718162E+02 -0.81981794903E+01  0.28167461544E+02  0.00000000000E+00 0. -1.
         -5    1    5    5    0  502  0.33048163819E+02  0.22849179025E+02  0.15715829643E+02  0.43397504712E+02  0.47000000000E+01 0.  1.
         11    1    6    6    0    0 -0.16949745890E+02 -0.64323888260E+02  0.17594868878E+03  0.18810315673E+03  0.00000000000E+00 0. -1.
        -12    1    6    6    0    0 -0.41439571814E+02  0.15293716272E+02  0.10375989760E+03  0.11277079507E+03  0.00000000000E+00 0.  1.
</event>
<event>
12    1  0.9873238E-001  0.2485513E+03  0.7818608E-02  0.1114400E+00
         21   -1    0    0  501  502  0.00000000000E+00  0.00000000000E+00  0.12479688751E+04  0.12479688751E+04  0.00000000000E+00 0.  1.
         21   -1    0    0  502  503 -0.00000000000E+00 -0.00000000000E+00 -0.62697072999E+02  0.62697072999E+02  0.00000000000E+00 0.  1.
         -6    2    1    2    0  503  0.54348389407E+01 -0.17869175590E+03  0.28846616044E+03  0.38005426324E+03  0.17107961944E+03 0.  0.
        -24    2    3    3    0    0 -0.72429678879E+01 -0.13029798758E+03  0.94756115809E+02  0.17993341228E+03  0.79795270669E+02 0.  0.
          6    2    1    2  501    0 -0.54348389407E+01  0.17869175590E+03  0.89680564162E+03  0.93061168482E+03  0.17267735224E+03 0.  0.
         24    2    5    5    0    0  0.27813459150E+02  0.86477806778E+02  0.70443953769E+03  0.71465875087E+03  0.79057373868E+02 0.  0.
          5    1    5    5  501    0 -0.33248298091E+02  0.92213949121E+02  0.19236610393E+03  0.21595293395E+03  0.47000000000E+01 0. -1.
        -11    1    6    6    0    0  0.28242085186E+02  0.60574186086E+02  0.23003595328E+03  0.23954829826E+03  0.00000000000E+00 0.  1.
         12    1    6    6    0    0 -0.42862603537E+00  0.25903620692E+02  0.47440358440E+03  0.47511045261E+03  0.00000000000E+00 0. -1.
         -5    1    3    3    0  503  0.12677806829E+02 -0.48393768322E+02  0.19371004463E+03  0.20012085096E+03  0.47000000000E+01 0.  1.
         11    1    4    4    0    0 -0.24385484943E+02 -0.68416245597E+02  0.89847811931E+02  0.11553382122E+03  0.00000000000E+00 0. -1.
        -12    1    4    4    0    0  0.17142517056E+02 -0.61881741979E+02  0.49083038786E+01  0.64399591058E+02  0.00000000000E+00 0.  1.
</event>
<event>
12    1  0.9873238E-001  0.2221851E+03  0.7818608E-02  0.1132266E+00
         21   -1    0    0  501  502  0.00000000000E+00  0.00000000000E+00  0.24295495372E+03  0.24295495372E+03  0.00000000000E+00 0.  1.
         21   -1    0    0  502  503 -0.00000000000E+00 -0.00000000000E+00 -0.32880822744E+03  0.32880822744E+03  0.00000000000E+00 0.  1.
         -6    2    1    2    0  503  0.14069533848E+03 -0.42823703997E+01  0.13378060108E+03  0.25935204251E+03  0.17190903339E+03 0.  0.
        -24    2    3    3    0    0  0.15786967095E+03 -0.24561583021E+02  0.69735448207E+02  0.18985329599E+03  0.75200644266E+02 0.  0.
          6    2    1    2  501    0 -0.14069533848E+03  0.42823703997E+01 -0.21963387480E+03  0.31241113865E+03  0.17189579292E+03 0.  0.
         24    2    5    5    0    0 -0.92786545053E+02 -0.45313621209E+02 -0.65383968260E+02  0.14338410371E+03  0.74975133753E+02 0.  0.
          5    1    5    5  501    0 -0.47908793426E+02  0.49595991609E+02 -0.15424990654E+03  0.16902703494E+03  0.47000000000E+01 0. -1.
        -13    1    6    6    0    0  0.73081268279E+01 -0.23445272787E+02 -0.18305420215E+02  0.30629690547E+02  0.00000000000E+00 0.  1.
         14    1    6    6    0    0 -0.10009467188E+03 -0.21868348422E+02 -0.47078548045E+02  0.11275441316E+03  0.00000000000E+00 0. -1.
         -5    1    3    3    0  503 -0.17174332468E+02  0.20279212621E+02  0.64045152877E+02  0.69498746516E+02  0.47000000000E+01 0.  1.
         11    1    4    4    0    0  0.11304290512E+03  0.18171075500E+02  0.41422944866E+02  0.12175691662E+03  0.00000000000E+00 0. -1.
        -12    1    4    4    0    0  0.44826765826E+02 -0.42732658521E+02  0.28312503340E+02  0.68096379376E+02  0.00000000000E+00 0.  1.
</event>
<event>
12    1  0.9873238E-001  0.2485297E+03  0.7818608E-02  0.1115598E+00
         21   -1    0    0  503  502  0.00000000000E+00  0.00000000000E+00  0.11920238971E+04  0.11920238971E+04  0.00000000000E+00 0.  1.
         21   -1    0    0  501  503 -0.00000000000E+00 -0.00000000000E+00 -0.56260465221E+02  0.56260465221E+02  0.00000000000E+00 0.  1.
          6    2    1    2  501    0  0.13902260874E+03 -0.91443730373E+02  0.78336400917E+03  0.82184315724E+03  0.18460163236E+03 0.  0.
         24    2    3    3    0    0  0.31628009192E+02 -0.36919397701E+01  0.14451089897E+03  0.16809292727E+03  0.79736258337E+02 0.  0.
         -6    2    1    2    0  502 -0.13902260874E+03  0.91443730373E+02  0.35239942266E+03  0.42644120504E+03  0.17314013600E+03 0.  0.
        -24    2    5    5    0    0 -0.95780827869E+02 -0.14574771162E+02  0.17115428106E+03  0.21200784561E+03  0.79165319004E+02 0.  0.
          5    1    3    3  501    0  0.10739459955E+03 -0.87751790603E+02  0.63885311020E+03  0.65375022996E+03  0.47000000000E+01 0. -1.
        -13    1    4    4    0    0  0.95841452973E+01  0.24903987934E+02  0.12343323761E+03  0.12628471247E+03  0.00000000000E+00 0.  1.
         14    1    4    4    0    0  0.22043863895E+02 -0.28595927704E+02  0.21077661354E+02  0.41808214801E+02  0.00000000000E+00 0. -1.
         -5    1    5    5    0  502 -0.43241780872E+02  0.10601850153E+03  0.18124514160E+03  0.21443335943E+03  0.47000000000E+01 0.  1.
         13    1    6    6    0    0 -0.99773573131E+02  0.32126605938E+01  0.16484907799E+03  0.19271820256E+03  0.00000000000E+00 0. -1.
        -14    1    6    6    0    0  0.39927452621E+01 -0.17787431756E+02  0.63052030671E+01  0.19289643048E+02  0.00000000000E+00 0.  1.
</event>
<event>
12    1  0.9873238E-001  0.1845439E+03  0.7818608E-02  0.1167427E+00
         21   -1    0    0  503  502  0.00000000000E+00  0.00000000000E+00  0.36291290364E+02  0.36291290364E+02  0.00000000000E+00 0.  1.
         21   -1    0    0  501  503 -0.00000000000E+00 -0.00000000000E+00 -0.86355728693E+03  0.86355728693E+03  0.00000000000E+00 0.  1.
          6    2    1    2  501    0  0.59256317951E+02  0.24644307020E+01 -0.39797429473E+03  0.43867982532E+03  0.17475429964E+03 0.  0.
         24    2    3    3    0    0 -0.51648155311E+01  0.16467823391E+02 -0.81267539785E+02  0.11515017278E+03  0.79732582684E+02 0.  0.
         -6    2    1    2    0  502 -0.59256317951E+02 -0.24644307020E+01 -0.42929170183E+03  0.46116875197E+03  0.15769549105E+03 0.  0.
        -24    2    5    5    0    0 -0.69719144890E+02 -0.82395631624E+01 -0.43335171414E+03  0.44770039637E+03  0.87825322058E+02 0.  0.
          5    1    3    3  501    0  0.64421133482E+02 -0.14003392689E+02 -0.31670675495E+03  0.32352965254E+03  0.47000000000E+01 0. -1.
        -11    1    4    4    0    0  0.29671847277E+02  0.31660433583E+02 -0.47150641357E+02  0.64077956864E+02  0.00000000000E+00 0.  1.
         12    1    4    4    0    0 -0.34836662808E+02 -0.15192610192E+02 -0.34116898428E+02  0.51072215914E+02  0.00000000000E+00 0. -1.
         -5    1    5    5    0  502  0.10462826939E+02  0.57751324604E+01  0.40600123138E+01  0.13468355597E+02  0.47000000000E+01 0.  1.
         13    1    6    6    0    0 -0.50728937279E+02  0.37383990846E+02 -0.24136437755E+03  0.24945490695E+03  0.00000000000E+00 0. -1.
        -14    1    6    6    0    0 -0.18990207611E+02 -0.45623554008E+02 -0.19198733659E+03  0.19824548942E+03  0.00000000000E+00 0.  1.
</event>
<event>
12    1  0.9873238E-001  0.1931954E+03  0.7818608E-02  0.1155859E+00
         21   -1    0    0  503  502  0.00000000000E+00  0.00000000000E+00  0.46252048768E+03  0.46252048768E+03  0.00000000000E+00 0. -1.
         21   -1    0    0  501  503 -0.00000000000E+00 -0.00000000000E+00 -0.83119268997E+02  0.83119268997E+02  0.00000000000E+00 0. -1.
          6    2    1    2  501    0  0.36851525694E+01 -0.84023217567E+02  0.24004186904E+03  0.30742660677E+03  0.17267755564E+03 0.  0.
         24    2    3    3    0    0  0.25039740211E+02  0.18697875908E+02  0.11971743669E+03  0.14771530324E+03  0.80690439393E+02 0.  0.
         -6    2    1    2    0  502 -0.36851525694E+01  0.84023217567E+02  0.13935934965E+03  0.23821314990E+03  0.17392813175E+03 0.  0.
        -24    2    5    5    0    0 -0.62086072449E+02  0.43340154051E+02  0.12137748842E+03  0.16465217905E+03  0.81515618288E+02 0.  0.
          5    1    3    3  501    0 -0.21354587641E+02 -0.10272109347E+03  0.12032443234E+03  0.15971130353E+03  0.47000000000E+01 0. -1.
        -11    1    4    4    0    0  0.42569878430E+02  0.97566940311E+01  0.12034704261E+03  0.12802655308E+03  0.00000000000E+00 0.  1.
         12    1    4    4    0    0 -0.17530138220E+02  0.89411818768E+01 -0.62960591582E+00  0.19688750163E+02  0.00000000000E+00 0. -1.
         -5    1    5    5    0  502  0.58400919879E+02  0.40683063516E+02  0.17981861226E+02  0.73560970854E+02  0.47000000000E+01 0.  1.
         13    1    6    6    0    0 -0.62717279302E+02  0.61706259345E+02  0.78146937912E+02  0.11767779515E+03  0.00000000000E+00 0. -1.
        -14    1    6    6    0    0  0.63120685305E+00 -0.18366105294E+02  0.43230550508E+02  0.46974383902E+02  0.00000000000E+00 0.  1.
</event>
<event>
12    1  0.9873238E-001  0.1749417E+03  0.7818608E-02  0.1173276E+00
         21   -1    0    0  503  502  0.00000000000E+00  0.00000000000E+00  0.13071127962E+03  0.13071127962E+03  0.00000000000E+00 0. -1.
         21   -1    0    0  501  503 -0.00000000000E+00 -0.00000000000E+00 -0.33987205869E+03  0.33987205869E+03  0.00000000000E+00 0. -1.
          6    2    1    2  501    0 -0.32596851971E+02  0.52465315520E+01  0.27843912254E+02  0.17714369385E+03  0.17179791608E+03 0.  0.
         24    2    3    3    0    0 -0.59256742220E+02  0.16911459010E+02 -0.36647474197E+02  0.10623495527E+03  0.78393044404E+02 0.  0.
         -6    2    1    2    0  502  0.32596851971E+02 -0.52465315520E+01 -0.23700469133E+03  0.29343964446E+03  0.16983969023E+03 0.  0.
        -24    2    5    5    0    0 -0.19609381219E+02 -0.56443177183E+02 -0.13525972935E+03  0.16805737061E+03  0.79860662095E+02 0.  0.
          5    1    3    3  501    0  0.26659890249E+02 -0.11664927458E+02  0.64491386451E+02  0.70908738581E+02  0.47000000000E+01 0. -1.
        -11    1    4    4    0    0 -0.89895845314E+01  0.34347683287E+02 -0.39300826596E+02  0.52963486936E+02  0.00000000000E+00 0.  1.
         12    1    4    4    0    0 -0.50267157688E+02 -0.17436224277E+02  0.26533523989E+01  0.53271468330E+02  0.00000000000E+00 0. -1.
         -5    1    5    5    0  502  0.52206233190E+02  0.51196645631E+02 -0.10174496198E+03  0.12538227385E+03  0.47000000000E+01 0.  1.
         11    1    6    6    0    0  0.26607881805E+02 -0.28346077775E+02 -0.88101223310E+02  0.96298001267E+02  0.00000000000E+00 0. -1.
        -12    1    6    6    0    0 -0.46217263024E+02 -0.28097099409E+02 -0.47158506040E+02  0.71759369343E+02  0.00000000000E+00 0.  1.
</event>
<event>
12    1  0.9873238E-001  0.1991863E+03  0.7818608E-02  0.1150888E+00
         21   -1    0    0  501  502  0.00000000000E+00  0.00000000000E+00  0.62071795862E+03  0.62071795862E+03  0.00000000000E+00 0. -1.
         21   -1    0    0  502  503 -0.00000000000E+00 -0.00000000000E+00 -0.63401642405E+02  0.63401642405E+02  0.00000000000E+00 0. -1.
         -6    2    1    2    0  503 -0.94509531164E+02 -0.20423087988E+02  0.29815285663E+03  0.35856699949E+03  0.17414365681E+03 0.  0.
        -24    2    3    3    0    0 -0.41559622708E+02 -0.78487374465E+02  0.16816622410E+03  0.20660065846E+03  0.80724735737E+02 0.  0.
          6    2    1    2  501    0  0.94509531164E+02  0.20423087988E+02  0.25916345959E+03  0.32555260153E+03  0.17166724666E+03 0.  0.
         24    2    5    5    0    0  0.13248017013E+03  0.35352365407E+02  0.22333339619E+03  0.27104997599E+03  0.69206202120E+02 0.  0.
          5    1    5    5  501    0 -0.37970638968E+02 -0.14929277419E+02  0.35830063393E+02  0.54502625539E+02  0.47000000000E+01 0. -1.
        -13    1    6    6    0    0  0.87117555403E+02  0.32716589671E+02  0.87184052560E+02  0.12751824465E+03  0.00000000000E+00 0.  1.
         14    1    6    6    0    0  0.45362614729E+02  0.26357757359E+01  0.13614934363E+03  0.14353173134E+03  0.00000000000E+00 0. -1.
         -5    1    3    3    0  503 -0.52949908457E+02  0.58064286477E+02  0.12998663253E+03  0.15196634103E+03  0.47000000000E+01 0.  1.
         13    1    4    4    0    0 -0.40533113061E+02  0.33513784921E+00  0.47202948187E+02  0.62218677978E+02  0.00000000000E+00 0. -1.
        -14    1    4    4    0    0 -0.10265096467E+01 -0.78822512314E+02  0.12096327591E+03  0.14438198049E+03  0.00000000000E+00 0.  1.
</event>
<event>
12    1  0.9873238E-001  0.2408979E+03  0.7818608E-02  0.1119384E+00
         21   -1    0    0  503  502  0.00000000000E+00  0.00000000000E+00  0.16288991155E+03  0.16288991155E+03  0.00000000000E+00 0.  1.
         21   -1    0    0  501  503 -0.00000000000E+00 -0.00000000000E+00 -0.50596455038E+03  0.50596455038E+03  0.00000000000E+00 0.  1.
          6    2    1    2  501    0 -0.13347862485E+03  0.10392341467E+03  0.11663668152E+02  0.24005254446E+03  0.16991928536E+03 0.  0.
         24    2    3    3    0    0 -0.31266763825E+02  0.45496717303E+01  0.50384291282E+02  0.92256123746E+02  0.70528756743E+02 0.  0.
         -6    2    1    2    0  502  0.13347862485E+03 -0.10392341467E+03 -0.35473830698E+03  0.42880191748E+03  0.17150859625E+03 0.  0.
        -24    2    5    5    0    0  0.95648481645E+02 -0.36423096983E+02 -0.84250680695E+02  0.14742484202E+03  0.64502967461E+02 0.  0.
          5    1    3    3  501    0 -0.10221186102E+03  0.99373742940E+02 -0.38720623130E+02  0.14779642071E+03  0.47000000000E+01 0. -1.
        -13    1    4    4    0    0 -0.13789859278E+01  0.10972471969E+01 -0.17717248546E+02  0.17804674937E+02  0.00000000000E+00 0.  1.
         14    1    4    4    0    0 -0.29887777897E+02  0.34524245334E+01  0.68101539828E+02  0.74451448809E+02  0.00000000000E+00 0. -1.
         -5    1    5    5    0  502  0.37830143204E+02 -0.67500317687E+02 -0.27048762628E+03  0.28137707546E+03  0.47000000000E+01 0.  1.
         13    1    6    6    0    0  0.87008872394E+02 -0.26187764398E+02 -0.94092020814E+02  0.13080386562E+03  0.00000000000E+00 0. -1.
        -14    1    6    6    0    0  0.86396092505E+01 -0.10235332585E+02  0.98413401195E+01  0.16620976399E+02  0.00000000000E+00 0.  1.
</event>
<event>
12    1  0.9873238E-001  0.2138948E+03  0.7818608E-02  0.1138813E+00
         21   -1    0    0  503  502  0.00000000000E+00  0.00000000000E+00  0.25574865108E+03  0.25574865108E+03  0.00000000000E+00 0. -1.
         21   -1    0    0  501  503 -0.00000000000E+00 -0.00000000000E+00 -0.38889278705E+03  0.38889278705E+03  0.00000000000E+00 0. -1.
          6    2    1    2  501    0 -0.82833193581E+02  0.92961561562E+02 -0.30403401201E+03  0.37086358030E+03  0.17204628693E+03 0.  0.
         24    2    3    3    0    0 -0.53988627901E+02 -0.15643817538E+02 -0.11536202462E+03  0.15121307116E+03  0.79984343443E+02 0.  0.
         -6    2    1    2    0  502  0.82833193581E+02 -0.92961561562E+02  0.17088987605E+03  0.27377785783E+03  0.17391887710E+03 0.  0.
        -24    2    5    5    0    0  0.10235128311E+03 -0.11706815834E+03  0.12329346902E+03  0.21677266692E+03  0.87225975327E+02 0.  0.
          5    1    3    3  501    0 -0.28844565680E+02  0.10860537910E+03 -0.18867198740E+03  0.21965050914E+03  0.47000000000E+01 0. -1.
        -11    1    4    4    0    0 -0.60080284346E+02  0.10787529448E+02 -0.10636478008E+03  0.12263554868E+03  0.00000000000E+00 0.  1.
         12    1    4    4    0    0  0.60916564450E+01 -0.26431346985E+02 -0.89972445344E+01  0.28577522477E+02  0.00000000000E+00 0. -1.
         -5    1    5    5    0  502 -0.19518089531E+02  0.24106596778E+02  0.47596407033E+02  0.57005190901E+02  0.47000000000E+01 0.  1.
         11    1    6    6    0    0  0.49975895383E+02 -0.97356970657E+00  0.24982252990E+02  0.55880684693E+02  0.00000000000E+00 0. -1.
        -12    1    6    6    0    0  0.52375387729E+02 -0.11609458863E+03  0.98311216026E+02  0.16089198223E+03  0.00000000000E+00 0.  1.
</event>
<event>
12    1  0.9873238E-001  0.2898996E+03  0.7818608E-02  0.1090590E+00
         21   -1    0    0  501  502  0.00000000000E+00  0.00000000000E+00  0.27979758828E+03  0.27979758828E+03  0.00000000000E+00 0.  1.
         21   -1    0    0  502  503 -0.00000000000E+00 -0.00000000000E+00 -0.36376709627E+03  0.36376709627E+03  0.00000000000E+00 0.  1.
         -6    2    1    2    0  503 -0.34029939463E+02 -0.22864457717E+03  0.93833341480E+02  0.30470718627E+03  0.17494397373E+03 0.  0.
        -24    2    3    3    0    0  0.18886246052E+02 -0.15558325041E+03  0.26050509095E+01  0.17632194118E+03  0.80745294300E+02 0.  0.
          6    2    1    2  501    0  0.34029939463E+02  0.22864457717E+03 -0.17780284947E+03  0.33885749827E+03  0.17255193829E+03 0.  0.
         24    2    5    5    0    0  0.15074021135E+02  0.91683207568E+02 -0.15592161582E+03  0.19879100696E+03  0.81075751650E+02 0.  0.
          5    1    5    5  501    0  0.18955918328E+02  0.13696136960E+03 -0.21881233657E+02  0.14006649131E+03  0.47000000000E+01 0. -1.
        -11    1    6    6    0    0  0.77847935867E+01  0.10232486310E+03 -0.15495661047E+03  0.18585621256E+03  0.00000000000E+00 0.  1.
         12    1    6    6    0    0  0.72892275487E+01 -0.10641655535E+02 -0.96500535074E+00  0.12934794398E+02  0.00000000000E+00 0. -1.
         -5    1    3    3    0  503 -0.52916185515E+02 -0.73061326756E+02  0.91228290571E+02  0.12838524509E+03  0.47000000000E+01 0.  1.
         13    1    4    4    0    0  0.20130846660E+02 -0.14951475417E+03  0.25146037773E+02  0.15294520561E+03  0.00000000000E+00 0. -1.
        -14    1    4    4    0    0 -0.12446006073E+01 -0.60684962436E+01 -0.22540986863E+02  0.23376735574E+02  0.00000000000E+00 0.  1.
</event>
<event>
12    1  0.9873238E-001  0.1030427E+04  0.7818608E-02  0.9275816E-01
         21   -1    0    0  503  502  0.00000000000E+00  0.00000000000E+00  0.23673171230E+04  0.23673171230E+04  0.00000000000E+00 0. -1.
         21   -1    0    0  501  503 -0.00000000000E+00 -0.00000000000E+00 -0.56735808072E+03  0.56735808072E+03  0.00000000000E+00 0.  1.
          6    2    1    2  501    0 -0.47126147317E+03  0.89999574864E+03  0.15717051916E+04  0.18793711986E+04  0.17233446855E+03 0.  0.
         24    2    3    3    0    0 -0.17421932115E+03  0.45287267198E+03  0.69726271712E+03  0.85329867827E+03  0.80605885331E+02 0.  0.
         -6    2    1    2    0  502  0.47126147317E+03 -0.89999574864E+03  0.22825385073E+03  0.10553040052E+04  0.17171778987E+03 0.  0.
        -24    2    5    5    0    0  0.41529821658E+03 -0.66011493674E+03  0.17086976120E+03  0.80234212322E+03  0.79574298578E+02 0.  0.
          5    1    3    3  501    0 -0.29704215203E+03  0.44712307666E+03  0.87444247446E+03  0.10260725203E+04  0.47000000000E+01 0. -1.
        -13    1    4    4    0    0 -0.11536798286E+03  0.28660380497E+03  0.37452933514E+03  0.48551388793E+03  0.00000000000E+00 0.  1.
         14    1    4    4    0    0 -0.58851338289E+02  0.16626886701E+03  0.32273338199E+03  0.36778479034E+03  0.00000000000E+00 0. -1.
         -5    1    5    5    0  502  0.55963256589E+02 -0.23988081190E+03  0.57384089531E+02  0.25296188198E+03  0.47000000000E+01 0.  1.
         13    1    6    6    0    0  0.21649570677E+03 -0.31065521939E+03  0.46507045509E+02  0.38149700086E+03  0.00000000000E+00 0. -1.
        -14    1    6    6    0    0  0.19880250982E+03 -0.34945971735E+03  0.12436271569E+03  0.42084512236E+03  0.00000000000E+00 0.  1.
</event>
<event>
12    1  0.9873238E-001  0.1979890E+03  0.7818608E-02  0.1151558E+00
         21   -1    0    0  503  502  0.00000000000E+00  0.00000000000E+00  0.28270225503E+03  0.28270225503E+03  0.00000000000E+00 0. -1.
         21   -1    0    0  501  503 -0.00000000000E+00 -0.00000000000E+00 -0.17140999959E+03  0.17140999959E+03  0.00000000000E+00 0. -1.
          6    2    1    2  501    0 -0.44730804056E+02 -0.87388794147E+02  0.15538294213E+03  0.25127336604E+03  0.17133826076E+03 0.  0.
         24    2    3    3    0    0  0.31055043102E+02 -0.85932414675E+02  0.92608243888E+02  0.15274231301E+03  0.80032067041E+02 0.  0.
         -6    2    1    2    0  502  0.44730804056E+02  0.87388794147E+02 -0.44090686681E+02  0.20283888858E+03  0.17193597615E+03 0.  0.
        -24    2    5    5    0    0 -0.17742063542E+02  0.39642763848E+02  0.28628350548E+02  0.95634919577E+02  0.80250394661E+02 0.  0.
          5    1    3    3  501    0 -0.75785847159E+02 -0.14563794720E+01  0.62774698237E+02  0.98531053021E+02  0.47000000000E+01 0. -1.
        -13    1    4    4    0    0 -0.11211316056E+02 -0.42403223448E+02  0.79308250008E+02  0.90628502612E+02  0.00000000000E+00 0.  1.
         14    1    4    4    0    0  0.42266359159E+02 -0.43529191227E+02  0.13299993880E+02  0.62113810402E+02  0.00000000000E+00 0. -1.
         -5    1    5    5    0  502  0.62472867598E+02  0.47746030299E+02 -0.72719037229E+02  0.10720396901E+03  0.47000000000E+01 0.  1.
         13    1    6    6    0    0 -0.10093680177E+02  0.27175435514E+02  0.56868880391E+02  0.63831467411E+02  0.00000000000E+00 0. -1.
        -14    1    6    6    0    0 -0.76483833649E+01  0.12467328334E+02 -0.28240529843E+02  0.31803452167E+02  0.00000000000E+00 0.  1.
</event>
<event>
12    1  0.9873238E-001  0.1824249E+03  0.7818608E-02  0.1166595E+00
         21   -1    0    0  501  502  0.00000000000E+00  0.00000000000E+00  0.15576558691E+03  0.15576558691E+03  0.00000000000E+00 0. -1.
         21   -1    0    0  502  503 -0.00000000000E+00 -0.00000000000E+00 -0.23314248807E+03  0.23314248807E+03  0.00000000000E+00 0. -1.
         -6    2    1    2    0  503  0.15632696396E+02  0.53862405741E+02  0.24405465196E+02  0.18405022181E+03  0.17358950852E+03 0.  0.
        -24    2    3    3    0    0  0.34281944733E+02 -0.13879884156E+02 -0.32232817633E+02  0.93679887158E+02  0.79806414571E+02 0.  0.
          6    2    1    2  501    0 -0.15632696396E+02 -0.53862405741E+02 -0.10178236636E+03  0.20485785316E+03  0.16870551251E+03 0.  0.
         24    2    5    5    0    0 -0.33162958415E+02 -0.85874392778E+02 -0.42880665444E+02  0.13540587140E+03  0.89564532010E+02 0.  0.
          5    1    5    5  501    0  0.17530262019E+02  0.32011987038E+02 -0.58901700912E+02  0.69451981763E+02  0.47000000000E+01 0. -1.
        -11    1    6    6    0    0  0.30439066379E+02 -0.38304398786E+02 -0.18772407354E+02  0.52403883503E+02  0.00000000000E+00 0.  1.
         12    1    6    6    0    0 -0.63602024794E+02 -0.47569993993E+02 -0.24108258090E+02  0.83001987895E+02  0.00000000000E+00 0. -1.
         -5    1    3    3    0  503 -0.18649248337E+02  0.67742289897E+02  0.56638282829E+02  0.90370334656E+02  0.47000000000E+01 0.  1.
         11    1    4    4    0    0  0.43384495042E+01  0.21295643694E+02 -0.41239374283E+02  0.46615582971E+02  0.00000000000E+00 0. -1.
        -12    1    4    4    0    0  0.29943495228E+02 -0.35175527850E+02  0.90065566502E+01  0.47064304188E+02  0.00000000000E+00 0.  1.
</event>
<event>
12    1  0.9873238E-001  0.2678238E+03  0.7818608E-02  0.1102553E+00
         21   -1    0    0  501  502  0.00000000000E+00  0.00000000000E+00  0.15030920091E+04  0.15030920091E+04  0.00000000000E+00 0. -1.
         21   -1    0    0  502  503 -0.00000000000E+00 -0.00000000000E+00 -0.53507921591E+02  0.53507921591E+02  0.00000000000E+00 0.  1.
         -6    2    1    2    0  503  0.16350454827E+03 -0.12424526898E+03  0.46806957427E+03  0.53920111666E+03  0.17169185676E+03 0.  0.
        -24    2    3    3    0    0  0.85953310280E+02 -0.17291688010E+02  0.31714901162E+03  0.33857118562E+03  0.79749471095E+02 0.  0.
          6    2    1    2  501    0 -0.16350454827E+03  0.12424526898E+03  0.98151451321E+03  0.10173988140E+04  0.17192726056E+03 0.  0.
         24    2    5    5    0    0 -0.65970157265E+02  0.62519590736E+02  0.24633612516E+03  0.27319966792E+03  0.75470597683E+02 0.  0.
          5    1    5    5  501    0 -0.97534391007E+02  0.61725678247E+02  0.73517838805E+03  0.74419914609E+03  0.47000000000E+01 0. -1.
        -11    1    6    6    0    0  0.63958088290E+01 -0.57492402562E+01  0.12488156521E+01  0.86902056727E+01  0.00000000000E+00 0.  1.
         12    1    6    6    0    0 -0.72365966094E+02  0.68268830992E+02  0.24508730951E+03  0.26450946224E+03  0.00000000000E+00 0. -1.
         -5    1    3    3    0  503  0.77551237992E+02 -0.10695358097E+03  0.15092056266E+03  0.20062993104E+03  0.47000000000E+01 0.  1.
         13    1    4    4    0    0  0.81167838303E+02 -0.36677543601E+02  0.29753713920E+03  0.31058301529E+03  0.00000000000E+00 0. -1.
        -14    1    4    4    0    0  0.47854719779E+01  0.19385855590E+02  0.19611872413E+02  0.27988170332E+02  0.00000000000E+00 0.  1.
</event>
<event>
12    1  0.9873238E-001  0.1745904E+03  0.7818608E-02  0.1173276E+00
         21   -1    0    0  501  502  0.00000000000E+00  0.00000000000E+00  0.16344821930E+03  0.16344821930E+03  0.00000000000E+00 0.  1.
         21   -1    0    0  502  503 -0.00000000000E+00 -0.00000000000E+00 -0.19174709585E+03  0.19174709585E+03  0.00000000000E+00 0.  1.
         -6    2    1    2    0  503 -0.31968512036E+02 -0.11547557440E+02  0.16757628577E+02  0.17539276271E+03  0.17124973358E+03 0.  0.
        -24    2    3    3    0    0 -0.31313559980E+02 -0.76789975287E+01 -0.60108360526E+02  0.98283327498E+02  0.70760804245E+02 0.  0.
          6    2    1    2  501    0  0.31968512036E+02  0.11547557440E+02 -0.45056505120E+02  0.17980255244E+03  0.17071478368E+03 0.  0.
         24    2    5    5    0    0 -0.63447919664E+01  0.17765581551E+02 -0.90647745148E+02  0.11974238049E+03  0.75929913159E+02 0.  0.
          5    1    5    5  501    0  0.38313304002E+02 -0.62180241112E+01  0.45591240028E+02  0.60060171950E+02  0.47000000000E+01 0. -1.
        -13    1    6    6    0    0  0.20689260406E+02 -0.85177427521E+01 -0.76112481268E+02  0.79332888782E+02  0.00000000000E+00 0.  1.
         14    1    6    6    0    0 -0.27034052373E+02  0.26283324303E+02 -0.14535263880E+02  0.40409491709E+02  0.00000000000E+00 0. -1.
         -5    1    3    3    0  503 -0.65495205515E+00 -0.38685599111E+01  0.76865989102E+02  0.77109435212E+02  0.47000000000E+01 0.  1.
         11    1    4    4    0    0 -0.94339850561E+01 -0.30784488007E+02 -0.58067762782E+02  0.66396911452E+02  0.00000000000E+00 0. -1.
        -12    1    4    4    0    0 -0.21879574924E+02  0.23105490478E+02 -0.20405977434E+01  0.31886416046E+02  0.00000000000E+00 0.  1.
</event>
<event>
12    1  0.1202751E+000  0.2873890E+03  0.7818608E-02  0.1091737E+00
         21   -1    0    0  501  502  0.00000000000E+00  0.00000000000E+00  0.18272283695E+03  0.18272283695E+03  0.00000000000E+00 0.  1.
         21   -1    0    0  502  503 -0.00000000000E+00 -0.00000000000E+00 -0.70694375805E+03  0.70694375805E+03  0.00000000000E+00 0.  1.
         -6    2    1    2    0  503 -0.21772766928E+03 -0.75775775727E+02  0.50833561744E+01  0.28743392134E+03  0.17159578220E+03 0.  0.
        -24    2    3    3    0    0 -0.10632629249E+03 -0.10751865223E+03 -0.25744209231E+01  0.17125040913E+03  0.80340114085E+02 0.  0.
          6    2    1    2  501    0  0.21772766928E+03  0.75775775727E+02 -0.52930427727E+03  0.60223267366E+03  0.17138806589E+03 0.  0.
         24    2    5    5    0    0  0.15775036283E+03  0.30764509752E+02 -0.22080440811E+03  0.28471487790E+03  0.80475729396E+02 0.  0.
          5    1    5    5  501    0  0.59977306449E+02  0.45011265976E+02 -0.30849986916E+03  0.31751779576E+03  0.47000000000E+01 0. -1.
        -13    1    6    6    0    0  0.87462060764E+01 -0.15717057681E+02 -0.55464036628E+01  0.18822449800E+02  0.00000000000E+00 0.  1.
         14    1    6    6    0    0  0.14900415675E+03  0.46481567432E+02 -0.21525800445E+03  0.26589242810E+03  0.00000000000E+00 0. -1.
         -5    1    3    3    0  503 -0.11140137679E+03  0.31742876503E+02  0.76577770975E+01  0.11618351221E+03  0.47000000000E+01 0.  1.
         11    1    4    4    0    0 -0.67619844590E+02 -0.28626807264E+02  0.27441579304E+02  0.78389908478E+02  0.00000000000E+00 0. -1.
        -12    1    4    4    0    0 -0.38706447897E+02 -0.78891844967E+02 -0.30016000227E+02  0.92860500648E+02  0.00000000000E+00 0.  1.
</event>
<event>
12    1  0.9873238E-001  0.3191126E+03  0.7818608E-02  0.1076076E+00
         21   -1    0    0  501  502  0.00000000000E+00  0.00000000000E+00  0.15686757361E+03  0.15686757361E+03  0.00000000000E+00 0.  1.
         21   -1    0    0  502  503 -0.00000000000E+00 -0.00000000000E+00 -0.71012894392E+03  0.71012894392E+03  0.00000000000E+00 0.  1.
         -6    2    1    2    0  503  0.19956145908E+03 -0.17877957016E+03 -0.40402700677E+03  0.51485016425E+03  0.17333770153E+03 0.  0.
        -24    2    3    3    0    0  0.24941430272E+02 -0.82519372906E+02 -0.17894907272E+03  0.21411714905E+03  0.79949115315E+02 0.  0.
          6    2    1    2  501    0 -0.19956145908E+03  0.17877957016E+03 -0.14923436355E+03  0.35214635328E+03  0.17305851094E+03 0.  0.
         24    2    5    5    0    0 -0.71892105678E+02  0.11128804329E+02 -0.35872082475E+02  0.11281532760E+03  0.78410246118E+02 0.  0.
          5    1    5    5  501    0 -0.12766935341E+03  0.16765076583E+03 -0.11336228107E+03  0.23933102568E+03  0.47000000000E+01 0. -1.
        -13    1    6    6    0    0 -0.10981142940E+02  0.38436103184E+02 -0.17067568002E+02  0.43465174632E+02  0.00000000000E+00 0.  1.
         14    1    6    6    0    0 -0.60910962738E+02 -0.27307298855E+02 -0.18804514473E+02  0.69350152970E+02  0.00000000000E+00 0. -1.
         -5    1    3    3    0  503  0.17462002881E+03 -0.96260197251E+02 -0.22507793405E+03  0.30073301520E+03  0.47000000000E+01 0.  1.
         13    1    4    4    0    0  0.20276821510E+02 -0.92348795116E+02 -0.11327935529E+03  0.14755223409E+03  0.00000000000E+00 0. -1.
        -14    1    4    4    0    0  0.46646087624E+01  0.98294222098E+01 -0.65669717432E+02  0.66564914959E+02  0.00000000000E+00 0.  1.
</event>
<event>
12    1  0.9873238E-001  0.1816849E+03  0.7818608E-02  0.1166468E+00
         21   -1    0    0  501  502  0.00000000000E+00  0.00000000000E+00  0.37844596748E+03  0.37844596748E+03  0.00000000000E+00 0. -1.
         21   -1    0    0  502  503 -0.00000000000E+00 -0.00000000000E+00 -0.87120963166E+02  0.87120963166E+02  0.00000000000E+00 0. -1.
         -6    2    1    2    0  503 -0.38313769870E+01  0.54284393132E+02  0.16224870147E+03  0.24269902450E+03  0.17209503357E+03 0.  0.
        -24    2    3    3    0    0  0.63201756749E+02  0.48698176644E+02  0.10893120847E+03  0.15673687066E+03  0.79589345908E+02 0.  0.
          6    2    1    2  501    0  0.38313769870E+01 -0.54284393132E+02  0.12907630284E+03  0.22286790614E+03  0.17334340727E+03 0.  0.
         24    2    5    5    0    0  0.35258743663E+02 -0.24131453325E+02  0.46598869387E+01  0.90964859543E+02  0.80170974057E+02 0.  0.
          5    1    5    5  501    0 -0.31427366676E+02 -0.30152939808E+02  0.12441641590E+03  0.13190304660E+03  0.47000000000E+01 0. -1.
        -11    1    6    6    0    0  0.25841711865E+02  0.84438473260E-02  0.39709201515E+02  0.47377366203E+02  0.00000000000E+00 0.  1.
         12    1    6    6    0    0  0.94170317983E+01 -0.24139897172E+02 -0.35049314577E+02  0.43587493340E+02  0.00000000000E+00 0. -1.
         -5    1    3    3    0  503 -0.67033133736E+02  0.55862164883E+01  0.53317493004E+02  0.85962153843E+02  0.47000000000E+01 0.  1.
         13    1    4    4    0    0 -0.81978058011E+00  0.38511119632E+02  0.12416514875E+02  0.40471572951E+02  0.00000000000E+00 0. -1.
        -14    1    4    4    0    0  0.64021537329E+02  0.10187057012E+02  0.96514693590E+02  0.11626529771E+03  0.00000000000E+00 0.  1.
</event>
<event>
12    1  0.9873238E-001  0.1926860E+03  0.7818608E-02  0.1156990E+00
         21   -1    0    0  501  502  0.00000000000E+00  0.00000000000E+00  0.16041887242E+02  0.16041887242E+02  0.00000000000E+00 0.  1.
         21   -1    0    0  502  503 -0.00000000000E+00 -0.00000000000E+00 -0.28409610354E+04  0.28409610354E+04  0.00000000000E+00 0.  1.
         -6    2    1    2    0  503 -0.53718293360E+02 -0.54534360265E+02 -0.78147546343E+03  0.80487998867E+03  0.17682829165E+03 0.  0.
        -24    2    3    3    0    0  0.65493903447E+01  0.39517338858E+02 -0.28241664224E+03  0.29345089993E+03  0.68918475527E+02 0.  0.
          6    2    1    2  501    0  0.53718293360E+02  0.54534360265E+02 -0.20434436848E+04  0.20521229340E+04  0.17229855480E+03 0.  0.
         24    2    5    5    0    0  0.46384250830E+02  0.30493628744E+02 -0.19938736191E+04  0.19963463587E+04  0.82373627450E+02 0.  0.
          5    1    5    5  501    0  0.73340425296E+01  0.24040731521E+02 -0.49570065623E+02  0.55776575350E+02  0.47000000000E+01 0. -1.
        -13    1    6    6    0    0  0.63137861780E+02 -0.15474900832E+01 -0.12861481650E+04  0.12876979019E+04  0.00000000000E+00 0.  1.
         14    1    6    6    0    0 -0.16753610950E+02  0.32041118827E+02 -0.70772545419E+03  0.70864845677E+03  0.00000000000E+00 0. -1.
         -5    1    3    3    0  503 -0.60267683704E+02 -0.94051699123E+02 -0.49905882119E+03  0.51142908874E+03  0.47000000000E+01 0.  1.
         13    1    4    4    0    0  0.55267465876E+01 -0.14553413053E+02 -0.14408713214E+03  0.14492566511E+03  0.00000000000E+00 0. -1.
        -14    1    4    4    0    0  0.10226437571E+01  0.54070751911E+02 -0.13832951010E+03  0.14852523482E+03  0.00000000000E+00 0.  1.
</event>
<event>
12    1  0.9873238E-001  0.3114385E+03  0.7818608E-02  0.1079718E+00
         21   -1    0    0  503  502  0.00000000000E+00  0.00000000000E+00  0.16280784040E+03  0.16280784040E+03  0.00000000000E+00 0. -1.
         21   -1    0    0  501  503 -0.00000000000E+00 -0.00000000000E+00 -0.59487993755E+03  0.59487993755E+03  0.00000000000E+00 0. -1.
          6    2    1    2  501    0  0.17340809345E+03  0.19321868118E+03 -0.22047985854E+03  0.38158265754E+03  0.17201782142E+03 0.  0.
         24    2    3    3    0    0  0.19751591269E+03  0.14626513161E+03 -0.17711301747E+03  0.31310933668E+03  0.79135398314E+02 0.  0.
         -6    2    1    2    0  502 -0.17340809345E+03 -0.19321868118E+03 -0.21159223861E+03  0.37610512041E+03  0.17111388177E+03 0.  0.
        -24    2    5    5    0    0 -0.11481668937E+03 -0.58850208859E+02 -0.54342448219E+02  0.16107622570E+03  0.79663225938E+02 0.  0.
          5    1    3    3  501    0 -0.24107819243E+02  0.46953549566E+02 -0.43366841068E+02  0.68473320861E+02  0.47000000000E+01 0. -1.
        -13    1    4    4    0    0  0.97113753774E+01  0.38759474939E+02 -0.14828278082E+02  0.42620248006E+02  0.00000000000E+00 0.  1.
         14    1    4    4    0    0  0.18780453732E+03  0.10750565667E+03 -0.16228473939E+03  0.27048908867E+03  0.00000000000E+00 0. -1.
         -5    1    5    5    0  502 -0.58591404084E+02 -0.13436847232E+03 -0.15724979039E+03  0.21502889472E+03  0.47000000000E+01 0.  1.
         11    1    6    6    0    0  0.11591046157E+02  0.12241789475E+01 -0.48898455055E+01  0.12639681728E+02  0.00000000000E+00 0. -1.
        -12    1    6    6    0    0 -0.12640773552E+03 -0.60074387807E+02 -0.49452602714E+02  0.14843654397E+03  0.00000000000E+00 0.  1.
</event>
<event>
12    1  0.9873238E-001  0.1959948E+03  0.7818608E-02  0.1153208E+00
         21   -1    0    0  501  502  0.00000000000E+00  0.00000000000E+00  0.26953661733E+03  0.26953661733E+03  0.00000000000E+00 0.  1.
         21   -1    0    0  502  503 -0.00000000000E+00 -0.00000000000E+00 -0.14859593088E+03  0.14859593088E+03  0.00000000000E+00 0.  1.
         -6    2    1    2    0  503  0.65567822878E+02  0.67391764495E+02  0.17701491290E+02  0.19679257041E+03  0.17196855426E+03 0.  0.
        -24    2    3    3    0    0  0.10775628134E+03  0.56436719589E+02  0.34745577052E+02  0.14975567111E+03  0.80143536354E+02 0.  0.
          6    2    1    2  501    0 -0.65567822878E+02 -0.67391764495E+02  0.10323919516E+03  0.22133997780E+03  0.17173312155E+03 0.  0.
         24    2    5    5    0    0  0.54701721418E+01 -0.86902690654E+02  0.78128503804E+02  0.14336748396E+03  0.82874434679E+02 0.  0.
          5    1    5    5  501    0 -0.71037995020E+02  0.19510926159E+02  0.25110691351E+02  0.77972493844E+02  0.47000000000E+01 0. -1.
        -11    1    6    6    0    0 -0.26478300111E+02 -0.69235890601E+02  0.76942605223E+02  0.10684041100E+03  0.00000000000E+00 0.  1.
         12    1    6    6    0    0  0.31948472252E+02 -0.17666800053E+02  0.11858985809E+01  0.36527072957E+02  0.00000000000E+00 0. -1.
         -5    1    3    3    0  503 -0.42188458460E+02  0.10955044906E+02 -0.17044085762E+02  0.47036899298E+02  0.47000000000E+01 0.  1.
         13    1    4    4    0    0  0.30409607491E+02  0.48772749439E+02  0.42732180097E+02  0.71620978291E+02  0.00000000000E+00 0. -1.
        -14    1    4    4    0    0  0.77346673848E+02  0.76639701501E+01 -0.79866030455E+01  0.78134692819E+02  0.00000000000E+00 0.  1.
</event>
<event>
12    1  0.9873238E-001  0.1842481E+03  0.7818608E-02  0.1163836E+00
         21   -1    0    0  501  502  0.00000000000E+00  0.00000000000E+00  0.18911597923E+03  0.18911597923E+03  0.00000000000E+00 0.  1.
         21   -1    0    0  502  503 -0.00000000000E+00 -0.00000000000E+00 -0.19807203785E+03  0.19807203785E+03  0.00000000000E+00 0.  1.
         -6    2    1    2    0  503  0.29141773592E+02 -0.57169147611E+02 -0.64292317500E+02  0.19514317551E+03  0.17271306393E+03 0.  0.
        -24    2    3    3    0    0  0.51262862922E+02 -0.98788578384E+02 -0.49335528540E+02  0.14547109938E+03  0.79629027658E+02 0.  0.
          6    2    1    2  501    0 -0.29141773592E+02  0.57169147611E+02  0.55336258884E+02  0.19204484156E+03  0.17234142049E+03 0.  0.
         24    2    5    5    0    0 -0.73433353901E+02  0.15788816102E+00  0.52268504671E+02  0.11963262639E+03  0.78660576675E+02 0.  0.
          5    1    5    5  501    0  0.44291580309E+02  0.57011259450E+02  0.30677542127E+01  0.72412215173E+02  0.47000000000E+01 0. -1.
        -13    1    6    6    0    0 -0.31138889200E+02 -0.39044518226E+02  0.24027936376E+02  0.55420632896E+02  0.00000000000E+00 0.  1.
         14    1    6    6    0    0 -0.42294464701E+02  0.39202406387E+02  0.28240568295E+02  0.64211993495E+02  0.00000000000E+00 0. -1.
         -5    1    3    3    0  503 -0.22121089330E+02  0.41619430772E+02 -0.14956788961E+02  0.49672076129E+02  0.47000000000E+01 0.  1.
         11    1    4    4    0    0  0.69452100891E+01 -0.36199081932E+02 -0.57549591221E+02  0.68341531484E+02  0.00000000000E+00 0. -1.
        -12    1    4    4    0    0  0.44317652833E+02 -0.62589496452E+02  0.82140626812E+01  0.77129567900E+02  0.00000000000E+00 0.  1.
</event>
<event>
12    1  0.9873238E-001  0.1876140E+03  0.7818608E-02  0.1160955E+00
         21   -1    0    0  501  502  0.00000000000E+00  0.00000000000E+00  0.15278232165E+04  0.15278232165E+04  0.00000000000E+00 0.  1.
         21   -1    0    0  502  503 -0.00000000000E+00 -0.00000000000E+00 -0.23660947011E+02  0.23660947011E+02  0.00000000000E+00 0.  1.
         -6    2    1    2    0  503  0.24771533698E+01 -0.70796319827E+02  0.89701312366E+03  0.91642324162E+03  0.17372610219E+03 0.  0.
        -24    2    3    3    0    0 -0.41875445935E+02  0.11106625355E+02  0.53382767512E+03  0.54145523562E+03  0.79529084991E+02 0.  0.
          6    2    1    2  501    0 -0.24771533698E+01  0.70796319827E+02  0.60714914587E+03  0.63506092192E+03  0.17220346697E+03 0.  0.
         24    2    5    5    0    0  0.43836713184E+02  0.31754214400E+02  0.51810712108E+03  0.52726559545E+03  0.81510929800E+02 0.  0.
          5    1    5    5  501    0 -0.46313866554E+02  0.39042105427E+02  0.89042024787E+02  0.10779532647E+03  0.47000000000E+01 0. -1.
        -11    1    6    6    0    0  0.31321174583E+02 -0.20280419574E+02  0.12255936287E+03  0.12811365588E+03  0.00000000000E+00 0.  1.
         12    1    6    6    0    0  0.12515538601E+02  0.52034633974E+02  0.39554775821E+03  0.39915193957E+03  0.00000000000E+00 0. -1.
         -5    1    3    3    0  503  0.44352599305E+02 -0.81902945182E+02  0.36318544853E+03  0.37496800600E+03  0.47000000000E+01 0.  1.
         11    1    4    4    0    0 -0.16297751237E+02 -0.34342182555E+02  0.25049164620E+03  0.25335956073E+03  0.00000000000E+00 0. -1.
        -12    1    4    4    0    0 -0.25577694698E+02  0.45448807910E+02  0.28333602892E+03  0.28809567489E+03  0.00000000000E+00 0.  1.
</event>
<event>
12    1  0.9873238E-001  0.2710285E+03  0.7818608E-02  0.1101291E+00
         21   -1    0    0  503  502  0.00000000000E+00  0.00000000000E+00  0.13070130431E+03  0.13070130431E+03  0.00000000000E+00 0.  1.
         21   -1    0    0  501  503 -0.00000000000E+00 -0.00000000000E+00 -0.55341262058E+03  0.55341262058E+03  0.00000000000E+00 0.  1.
          6    2    1    2  501    0 -0.19256957555E+03 -0.70813194637E+02 -0.20816113743E+03  0.33844321318E+03  0.17063176566E+03 0.  0.
         24    2    3    3    0    0 -0.40580842328E+02 -0.54397116830E+02 -0.43216668309E+02  0.11350137508E+03  0.80056421612E+02 0.  0.
         -6    2    1    2    0  502  0.19256957555E+03  0.70813194637E+02 -0.21455017885E+03  0.34567071170E+03  0.17708447624E+03 0.  0.
        -24    2    5    5    0    0  0.18372433873E+03  0.71481046843E+02 -0.23889702507E+03  0.31933550405E+03  0.77712308318E+02 0.  0.
          5    1    3    3  501    0 -0.15198873322E+03 -0.16416077808E+02 -0.16494446912E+03  0.22494183811E+03  0.47000000000E+01 0. -1.
        -11    1    4    4    0    0 -0.51708004150E+02 -0.40508303825E+02  0.11526644390E+01  0.65696034943E+02  0.00000000000E+00 0.  1.
         12    1    4    4    0    0  0.11127161821E+02 -0.13888813004E+02 -0.44369332748E+02  0.47805340135E+02  0.00000000000E+00 0. -1.
         -5    1    5    5    0  502  0.88452368180E+01 -0.66785220559E+00  0.24346846222E+02  0.26335207648E+02  0.47000000000E+01 0.  1.
         11    1    6    6    0    0  0.58811301181E+02  0.27577639174E+02 -0.28928435279E+02  0.71106607968E+02  0.00000000000E+00 0. -1.
        -12    1    6    6    0    0  0.12491303755E+03  0.43903407669E+02 -0.20996858979E+03  0.24822889609E+03  0.00000000000E+00 0.  1.
</event>
<event>
12    1  0.9906561E-001  0.2021761E+03  0.7818608E-02  0.1151314E+00
         21   -1    0    0  501  502  0.00000000000E+00  0.00000000000E+00  0.25537960485E+03  0.25537960485E+03  0.00000000000E+00 0. -1.
         21   -1    0    0  502  503 -0.00000000000E+00 -0.00000000000E+00 -0.42303963386E+03  0.42303963386E+03  0.00000000000E+00 0. -1.
         -6    2    1    2    0  503  0.39019808406E+02 -0.60038559806E+02  0.19082975757E+03  0.26684896477E+03  0.17223588335E+03 0.  0.
        -24    2    3    3    0    0  0.36531539707E+02 -0.10245439860E+03  0.10254986312E+03  0.16876367216E+03  0.78315039614E+02 0.  0.
          6    2    1    2  501    0 -0.39019808406E+02  0.60038559806E+02 -0.35848978658E+03  0.41157027394E+03  0.18907138651E+03 0.  0.
         24    2    5    5    0    0  0.49760628425E+02  0.78512538854E+01 -0.13004981473E+03  0.16094626950E+03  0.80330473830E+02 0.  0.
          5    1    5    5  501    0 -0.88780436831E+02  0.52187305921E+02 -0.22843997185E+03  0.25062400444E+03  0.47000000000E+01 0. -1.
        -11    1    6    6    0    0  0.45422305017E+02 -0.16758355380E+02 -0.12682247048E+03  0.13574964930E+03  0.00000000000E+00 0.  1.
         12    1    6    6    0    0  0.43383234076E+01  0.24609609265E+02 -0.32273442471E+01  0.25196620191E+02  0.00000000000E+00 0. -1.
         -5    1    3    3    0  503  0.24882686990E+01  0.42415838796E+02  0.88279894453E+02  0.98085292611E+02  0.47000000000E+01 0.  1.
         11    1    4    4    0    0  0.46769875058E+02 -0.82515710006E+02  0.10990537472E+03  0.14517387851E+03  0.00000000000E+00 0. -1.
        -12    1    4    4    0    0 -0.10238335351E+02 -0.19938688596E+02 -0.73555115956E+01  0.23589793652E+02  0.00000000000E+00 0.  1.
</event>
<event>
12    1  0.9873238E-001  0.2500158E+03  0.7818608E-02  0.1115289E+00
         21   -1    0    0  503  502  0.00000000000E+00  0.00000000000E+00  0.35806640201E+03  0.35806640201E+03  0.00000000000E+00 0.  1.
         21   -1    0    0  501  503 -0.00000000000E+00 -0.00000000000E+00 -0.18417650190E+03  0.18417650190E+03  0.00000000000E+00 0. -1.
          6    2    1    2  501    0  0.13780262501E+03  0.11828492386E+03  0.16989020719E+03  0.29219508717E+03  0.15340925589E+03 0.  0.
         24    2    3    3    0    0  0.64195991785E+02  0.72414972416E+02  0.29824177207E+02  0.12738437254E+03  0.77280290049E+02 0.  0.
         -6    2    1    2    0  502 -0.13780262501E+03 -0.11828492386E+03  0.39996929251E+01  0.25004781674E+03  0.17183429937E+03 0.  0.
        -24    2    5    5    0    0 -0.15706247807E+03 -0.13056203402E+03 -0.13513947706E+02  0.22088470680E+03  0.83020239515E+02 0.  0.
          5    1    3    3  501    0  0.73606633230E+02  0.45869951448E+02  0.14006602999E+03  0.16481071463E+03  0.47000000000E+01 0. -1.
        -13    1    4    4    0    0 -0.97359868613E+01  0.42485499990E+02  0.51235465771E+01  0.43886875932E+02  0.00000000000E+00 0.  1.
         14    1    4    4    0    0  0.73931978646E+02  0.29929472426E+02  0.24700630630E+02  0.83497496607E+02  0.00000000000E+00 0. -1.
         -5    1    5    5    0  502  0.19259853055E+02  0.12277110155E+02  0.17513640631E+02  0.29163109944E+02  0.47000000000E+01 0.  1.
         11    1    6    6    0    0 -0.19027240008E+01  0.68914512424E+01 -0.11555364307E+02  0.13588189840E+02  0.00000000000E+00 0. -1.
        -12    1    6    6    0    0 -0.15515975407E+03 -0.13745348526E+03 -0.19585833986E+01  0.20729651696E+03  0.00000000000E+00 0.  1.
</event>
<event>
12    1  0.9873238E-001  0.2109746E+03  0.7818608E-02  0.1140820E+00
         21   -1    0    0  501  502  0.00000000000E+00  0.00000000000E+00  0.65667176619E+03  0.65667176619E+03  0.00000000000E+00 0. -1.
         21   -1    0    0  502  503 -0.00000000000E+00 -0.00000000000E+00 -0.74389069106E+02  0.74389069106E+02  0.00000000000E+00 0. -1.
         -6    2    1    2    0  503 -0.16901695228E+02  0.11926599673E+03  0.40031945317E+03  0.45245558566E+03  0.17306168592E+03 0.  0.
        -24    2    3    3    0    0 -0.37320117555E+02  0.95527376281E+01  0.26151539132E+03  0.27429114258E+03  0.73220796433E+02 0.  0.
          6    2    1    2  501    0  0.16901695228E+02 -0.11926599673E+03  0.18196324392E+03  0.27860524963E+03  0.17320570923E+03 0.  0.
         24    2    5    5    0    0 -0.43644802676E+02 -0.20147129398E+02  0.54879840390E+02  0.10637659429E+03  0.77417099582E+02 0.  0.
          5    1    5    5  501    0  0.60546497904E+02 -0.99118867334E+02  0.12708340353E+03  0.17222865534E+03  0.47000000000E+01 0. -1.
        -11    1    6    6    0    0 -0.21156050853E+02 -0.48700984224E+02  0.22388844057E+02  0.57624861738E+02  0.00000000000E+00 0.  1.
         12    1    6    6    0    0 -0.22488751823E+02  0.28553854827E+02  0.32490996333E+02  0.48751732551E+02  0.00000000000E+00 0. -1.
         -5    1    3    3    0  503  0.20418422326E+02  0.10971325910E+03  0.13880406185E+03  0.17816444308E+03  0.47000000000E+01 0.  1.
         13    1    4    4    0    0 -0.58720625451E+02  0.14171904646E+02  0.20375648513E+03  0.21252213995E+03  0.00000000000E+00 0. -1.
        -14    1    4    4    0    0  0.21400507897E+02 -0.46191670175E+01  0.57758906187E+02  0.61769002632E+02  0.00000000000E+00 0.  1.
</event>
<event>
12    1  0.9873238E-001  0.2067068E+03  0.7818608E-02  0.1145110E+00
         21   -1    0    0  501  502  0.00000000000E+00  0.00000000000E+00  0.16468472581E+03  0.16468472581E+03  0.00000000000E+00 0.  1.
         21   -1    0    0  502  503 -0.00000000000E+00 -0.00000000000E+00 -0.25724768075E+03  0.25724768075E+03  0.00000000000E+00 0.  1.
         -6    2    1    2    0  503 -0.73423137031E+00  0.10776713286E+03 -0.70842105988E+02  0.21850927402E+03  0.17638992270E+03 0.  0.
        -24    2    3    3    0    0 -0.12661514065E+02  0.16274712231E+02  0.24595447626E+02  0.85680287173E+02  0.79441773454E+02 0.  0.
          6    2    1    2  501    0  0.73423137031E+00 -0.10776713286E+03 -0.21720848952E+02  0.20342313254E+03  0.17115747589E+03 0.  0.
         24    2    5    5    0    0  0.29431337990E+02 -0.60807755260E+02  0.46129573763E+02  0.11593326492E+03  0.82151065632E+02 0.  0.
          5    1    5    5  501    0 -0.28697106620E+02 -0.46959377604E+02 -0.67850422715E+02  0.87489867619E+02  0.47000000000E+01 0. -1.
        -11    1    6    6    0    0  0.12085727547E+02  0.19892396879E+02  0.54274698333E+01  0.23900411978E+02  0.00000000000E+00 0.  1.
         12    1    6    6    0    0  0.17345610443E+02 -0.80700152139E+02  0.40702103930E+02  0.92032852945E+02  0.00000000000E+00 0. -1.
         -5    1    3    3    0  503  0.11927282694E+02  0.91492420633E+02 -0.95437553614E+02  0.13282898684E+03  0.47000000000E+01 0.  1.
         13    1    4    4    0    0  0.33874429681E+01  0.47140998441E+02  0.13178267410E+02  0.49065417922E+02  0.00000000000E+00 0. -1.
        -14    1    4    4    0    0 -0.16048957033E+02 -0.30866286210E+02  0.11417180216E+02  0.36614869252E+02  0.00000000000E+00 0.  1.
</event>
<event>
12    1  0.9873238E-001  0.1911487E+03  0.7818608E-02  0.1157677E+00
         21   -1    0    0  503  502  0.00000000000E+00  0.00000000000E+00  0.51684311457E+02  0.51684311457E+02  0.00000000000E+00 0. -1.
         21   -1    0    0  501  503 -0.00000000000E+00 -0.00000000000E+00 -0.73355288364E+03  0.73355288364E+03  0.00000000000E+00 0. -1.
          6    2    1    2  501    0 -0.83850990715E+02 -0.12786763969E+02 -0.26158326161E+03  0.32398090386E+03  0.17129895895E+03 0.  0.
         24    2    3    3    0    0 -0.65461930224E+02  0.35039681382E+02 -0.82317394662E+02  0.13747656753E+03  0.81305655244E+02 0.  0.
         -6    2    1    2    0  502  0.83850990715E+02  0.12786763969E+02 -0.42028531057E+03  0.46125629123E+03  0.17006802739E+03 0.  0.
        -24    2    5    5    0    0  0.83035635494E+02 -0.11390596805E+02 -0.42120594325E+03  0.43659565169E+03  0.78591691591E+02 0.  0.
          5    1    3    3  501    0 -0.18389060492E+02 -0.47826445351E+02 -0.17926586694E+03  0.18650433634E+03  0.47000000000E+01 0. -1.
        -13    1    4    4    0    0 -0.70063391823E+02  0.12817017750E+02 -0.24429391176E+02  0.75299070187E+02  0.00000000000E+00 0.  1.
         14    1    4    4    0    0  0.46014615992E+01  0.22222663633E+02 -0.57888003485E+02  0.62177497339E+02  0.00000000000E+00 0. -1.
         -5    1    5    5    0  502  0.81535522184E+00  0.24177360774E+02  0.92063267781E+00  0.24660639543E+02  0.47000000000E+01 0.  1.
         13    1    6    6    0    0 -0.13438989252E+02 -0.11721238220E+02 -0.51092728297E+02  0.54115254249E+02  0.00000000000E+00 0. -1.
        -14    1    6    6    0    0  0.96474624745E+02  0.33064141488E+00 -0.37011321495E+03  0.38248039744E+03  0.00000000000E+00 0.  1.
</event>
<event>
12    1  0.9873238E-001  0.2716660E+03  0.7818608E-02  0.1100362E+00
         21   -1    0    0  501  502  0.00000000000E+00  0.00000000000E+00  0.92147269291E+02  0.92147269291E+02  0.00000000000E+00 0.  1.
         21   -1    0    0  502  503 -0.00000000000E+00 -0.00000000000E+00 -0.10391531173E+04  0.10391531173E+04  0.00000000000E+00 0.  1.
         -6    2    1    2    0  503  0.15775795739E+03 -0.14015456173E+03 -0.74456885963E+03  0.79250377703E+03  0.17072953929E+03 0.  0.
        -24    2    3    3    0    0  0.33660935732E+02 -0.64323077376E+02 -0.18313312095E+03  0.21251872251E+03  0.79724215585E+02 0.  0.
          6    2    1    2  501    0 -0.15775795739E+03  0.14015456173E+03 -0.20243698843E+03  0.33879660961E+03  0.17108925771E+03 0.  0.
         24    2    5    5    0    0 -0.70627459154E+02  0.14954703464E+03 -0.14317422321E+03  0.23289992594E+03  0.79943503528E+02 0.  0.
          5    1    5    5  501    0 -0.87130498237E+02 -0.93924729031E+01 -0.59262765215E+02  0.10589668366E+03  0.47000000000E+01 0. -1.
        -11    1    6    6    0    0  0.14151284552E+02  0.10427258769E+02 -0.26998370853E+01  0.17784141818E+02  0.00000000000E+00 0.  1.
         12    1    6    6    0    0 -0.84778743706E+02  0.13911977587E+03 -0.14047438613E+03  0.21511578412E+03  0.00000000000E+00 0. -1.
         -5    1    3    3    0  503  0.12409702166E+03 -0.75831484357E+02 -0.56143573868E+03  0.57998505452E+03  0.47000000000E+01 0.  1.
         13    1    4    4    0    0  0.15737629051E+02 -0.52625049716E+02 -0.18305214766E+03  0.19111556082E+03  0.00000000000E+00 0. -1.
        -14    1    4    4    0    0  0.17923306681E+02 -0.11698027660E+02 -0.80973290228E-01  0.21403161687E+02  0.00000000000E+00 0.  1.
</event>
<event>
12    1  0.9873238E-001  0.4317498E+03  0.7818608E-02  0.1033533E+00
         21   -1    0    0  501  502  0.00000000000E+00  0.00000000000E+00  0.11950445677E+04  0.11950445677E+04  0.00000000000E+00 0.  1.
         21   -1    0    0  502  503 -0.00000000000E+00 -0.00000000000E+00 -0.15566274635E+03  0.15566274635E+03  0.00000000000E+00 0.  1.
         -6    2    1    2    0  503  0.11185509194E+03 -0.37651816012E+03  0.47599464055E+03  0.64263423412E+03  0.17924947572E+03 0.  0.
        -24    2    3    3    0    0 -0.31646916147E+01 -0.15457903603E+03  0.25791069765E+03  0.31086741607E+03  0.78841161583E+02 0.  0.
          6    2    1    2  501    0 -0.11185509194E+03  0.37651816012E+03  0.56338718080E+03  0.70807307993E+03  0.17229301942E+03 0.  0.
         24    2    5    5    0    0 -0.10862898703E+03  0.27144444988E+03  0.50178184273E+03  0.58613785116E+03  0.79310886242E+02 0.  0.
          5    1    5    5  501    0 -0.32261049120E+01  0.10507371024E+03  0.61605338069E+02  0.12193522877E+03  0.47000000000E+01 0. -1.
        -11    1    6    6    0    0 -0.16705206790E+02  0.13930725633E+03  0.20323292894E+03  0.24695991376E+03  0.00000000000E+00 0.  1.
         12    1    6    6    0    0 -0.91923780236E+02  0.13213719355E+03  0.29854891379E+03  0.33917793740E+03  0.00000000000E+00 0. -1.
         -5    1    3    3    0  503  0.11501978355E+03 -0.22193912409E+03  0.21808394290E+03  0.33176681805E+03  0.47000000000E+01 0.  1.
         13    1    4    4    0    0  0.17226952897E+02 -0.14335049484E+03  0.18711865659E+03  0.23634619506E+03  0.00000000000E+00 0. -1.
        -14    1    4    4    0    0 -0.20391644512E+02 -0.11228541190E+02  0.70792041057E+02  0.74521221006E+02  0.00000000000E+00 0.  1.
</event>
<event>
12    1  0.9873238E-001  0.1852340E+03  0.7818608E-02  0.1163101E+00
         21   -1    0    0  503  502  0.00000000000E+00  0.00000000000E+00  0.35521343276E+03  0.35521343276E+03  0.00000000000E+00 0. -1.
         21   -1    0    0  501  503 -0.00000000000E+00 -0.00000000000E+00 -0.96117013300E+02  0.96117013300E+02  0.00000000000E+00 0. -1.
          6    2    1    2  501    0  0.64976953161E+02  0.56684828675E+01  0.12109759087E+03  0.22034278968E+03  0.17214000786E+03 0.  0.
         24    2    3    3    0    0  0.77069588453E+02  0.35582117526E+02  0.26202464300E+02  0.12000220759E+03  0.80673119058E+02 0.  0.
         -6    2    1    2    0  502 -0.64976953161E+02 -0.56684828675E+01  0.13799882858E+03  0.23098765638E+03  0.17337094499E+03 0.  0.
        -24    2    5    5    0    0 -0.17007667167E+02 -0.17267700526E+02  0.11059885297E+01  0.85394614282E+02  0.81875409701E+02 0.  0.
          5    1    3    3  501    0 -0.12092635292E+02 -0.29913634658E+02  0.94895126575E+02  0.10034058209E+03  0.47000000000E+01 0. -1.
        -13    1    4    4    0    0  0.11658335064E+02  0.27298272061E+02  0.42730073525E+02  0.52028565399E+02  0.00000000000E+00 0.  1.
         14    1    4    4    0    0  0.65411253390E+02  0.82838454647E+01 -0.16527609226E+02  0.67973642189E+02  0.00000000000E+00 0. -1.
         -5    1    5    5    0  502 -0.47969285994E+02  0.11599217659E+02  0.13689284005E+03  0.14559304209E+03  0.47000000000E+01 0.  1.
         13    1    6    6    0    0 -0.16703562126E+02  0.31219741620E+02  0.83220473895E+01  0.36372210921E+02  0.00000000000E+00 0. -1.
        -14    1    6    6    0    0 -0.30410504111E+00 -0.48487442146E+02 -0.72160588598E+01  0.49022403361E+02  0.00000000000E+00 0.  1.
</event>
<event>
12    1  0.9873238E-001  0.1874958E+03  0.7818608E-02  0.1160833E+00
         21   -1    0    0  501  502  0.00000000000E+00  0.00000000000E+00  0.73653265422E+03  0.73653265422E+03  0.00000000000E+00 0. -1.
         21   -1    0    0  502  503 -0.00000000000E+00 -0.00000000000E+00 -0.49521816779E+02  0.49521816779E+02  0.00000000000E+00 0. -1.
         -6    2    1    2    0  503  0.53941306319E+02 -0.51152921508E+02  0.26626794118E+03  0.32542528061E+03  0.17168782965E+03 0.  0.
        -24    2    3    3    0    0  0.41937099008E+02 -0.54372013413E+02  0.28423006200E+03  0.30308269056E+03  0.79733011062E+02 0.  0.
          6    2    1    2  501    0 -0.53941306319E+02  0.51152921508E+02  0.42074289626E+03  0.46062919040E+03  0.17212896440E+03 0.  0.
         24    2    5    5    0    0 -0.97286609439E+02  0.90348228324E+01  0.27379332845E+03  0.30166688349E+03  0.80584176421E+02 0.  0.
          5    1    5    5  501    0  0.43345303120E+02  0.42118098675E+02  0.14694956781E+03  0.15896230691E+03  0.47000000000E+01 0. -1.
        -11    1    6    6    0    0 -0.78776796141E+02  0.58229977726E+01  0.27148005473E+03  0.28273859134E+03  0.00000000000E+00 0.  1.
         12    1    6    6    0    0 -0.18509813298E+02  0.32118250598E+01  0.23132737200E+01  0.18928292153E+02  0.00000000000E+00 0. -1.
         -5    1    3    3    0  503  0.12004207310E+02  0.32190919054E+01 -0.17962120818E+02  0.22342590050E+02  0.47000000000E+01 0.  1.
         11    1    4    4    0    0  0.14118731112E+02 -0.48207463019E+02  0.26246232163E+03  0.26722606223E+03  0.00000000000E+00 0. -1.
        -12    1    4    4    0    0  0.27818367896E+02 -0.61645503943E+01  0.21767740368E+02  0.35856628323E+02  0.00000000000E+00 0.  1.
</event>
<event>
12    1  0.9873238E-001  0.2258899E+03  0.7818608E-02  0.1130511E+00
         21   -1    0    0  501  502  0.00000000000E+00  0.00000000000E+00  0.69649744980E+02  0.69649744980E+02  0.00000000000E+00 0. -1.
         21   -1    0    0  502  503 -0.00000000000E+00 -0.00000000000E+00 -0.71741747632E+03  0.71741747632E+03  0.00000000000E+00 0. -1.
         -6    2    1    2    0  503 -0.52912920237E+02  0.13096561066E+03 -0.30215974914E+03  0.37418571177E+03  0.16959559129E+03 0.  0.
        -24    2    3    3    0    0 -0.61090430718E+02  0.11411770909E+03 -0.31589704072E+03  0.35048915832E+03  0.79352488982E+02 0.  0.
          6    2    1    2  501    0  0.52912920237E+02 -0.13096561066E+03 -0.34560798220E+03  0.41288150954E+03  0.17627959397E+03 0.  0.
         24    2    5    5    0    0  0.11331285114E+02 -0.15923085474E+03 -0.25960546623E+03  0.31314947278E+03  0.72005076773E+02 0.  0.
          5    1    5    5  501    0  0.41581635123E+02  0.28265244079E+02 -0.86002515975E+02  0.99732036761E+02  0.47000000000E+01 0. -1.
        -11    1    6    6    0    0 -0.20730999042E+02 -0.67928062927E+02 -0.67173394976E+02  0.97756130483E+02  0.00000000000E+00 0.  1.
         12    1    6    6    0    0  0.32062284156E+02 -0.91302791816E+02 -0.19243207125E+03  0.21539334230E+03  0.00000000000E+00 0. -1.
         -5    1    3    3    0  503  0.81775104814E+01  0.16847901578E+02  0.13737291584E+02  0.23696553448E+02  0.47000000000E+01 0.  1.
         11    1    4    4    0    0  0.17299951473E+02  0.12826198888E+02 -0.27497423176E+02  0.34927181108E+02  0.00000000000E+00 0. -1.
        -12    1    4    4    0    0 -0.78390382191E+02  0.10129151020E+03 -0.28839961755E+03  0.31556197721E+03  0.00000000000E+00 0.  1.
</event>
<event>
12    1  0.9873238E-001  0.1965270E+03  0.7818608E-02  0.1152984E+00
         21   -1    0    0  501  502  0.00000000000E+00  0.00000000000E+00  0.18879775611E+03  0.18879775611E+03  0.00000000000E+00 0. -1.
         21   -1    0    0  502  503 -0.00000000000E+00 -0.00000000000E+00 -0.23956957471E+03  0.23956957471E+03  0.00000000000E+00 0. -1.
         -6    2    1    2    0  503 -0.76934861787E+02  0.52181615979E+02  0.58110856448E+02  0.20369359100E+03  0.17167502256E+03 0.  0.
        -24    2    3    3    0    0 -0.11864827113E+03  0.38502838059E+02  0.28876040188E+02  0.15074189635E+03  0.79557607023E+02 0.  0.
          6    2    1    2  501    0  0.76934861787E+02 -0.52181615979E+02 -0.10888267505E+03  0.22467373982E+03  0.17315010376E+03 0.  0.
         24    2    5    5    0    0  0.24984008258E+01 -0.78279283566E+01  0.84538688242E+01  0.78735428002E+02  0.77847808290E+02 0.  0.
          5    1    5    5  501    0  0.74436460961E+02 -0.44353687622E+02 -0.11733654388E+03  0.14593831181E+03  0.47000000000E+01 0. -1.
        -11    1    6    6    0    0 -0.20365085609E+02 -0.36239892672E+02  0.75841000284E+01  0.42256184233E+02  0.00000000000E+00 0.  1.
         12    1    6    6    0    0  0.22863486435E+02  0.28411964315E+02  0.86976879581E+00  0.36479243769E+02  0.00000000000E+00 0. -1.
         -5    1    3    3    0  503  0.41713409348E+02  0.13678777920E+02  0.29234816260E+02  0.52951694653E+02  0.47000000000E+01 0.  1.
         11    1    4    4    0    0 -0.76544452986E+02  0.16930132257E+02  0.55877149206E+02  0.96270132775E+02  0.00000000000E+00 0. -1.
        -12    1    4    4    0    0 -0.42103818149E+02  0.21572705802E+02 -0.27001109018E+02  0.54471763571E+02  0.00000000000E+00 0.  1.
</event>
<event>
12    1  0.9873238E-001  0.3555317E+03  0.7818608E-02  0.1061456E+00
         21   -1    0    0  501  502  0.00000000000E+00  0.00000000000E+00  0.13817787286E+04  0.13817787286E+04  0.00000000000E+00 0.  1.
         21   -1    0    0  502  503 -0.00000000000E+00 -0.00000000000E+00 -0.88909329366E+02  0.88909329366E+02  0.00000000000E+00 0.  1.
         -6    2    1    2    0  503  0.29855712936E+03  0.23390166397E+02  0.60625701384E+03  0.69748735088E+03  0.17104846805E+03 0.  0.
        -24    2    3    3    0    0  0.25493860612E+03  0.56539686566E+02  0.40508432207E+03  0.48893517954E+03  0.82303540315E+02 0.  0.
          6    2    1    2  501    0 -0.29855712936E+03 -0.23390166397E+02  0.68661238538E+03  0.77320070708E+03  0.19162282301E+03 0.  0.
         24    2    5    5    0    0 -0.16887137436E+03 -0.65744811856E+02  0.27221974698E+03  0.33690303369E+03  0.80994704171E+02 0.  0.
          5    1    5    5  501    0 -0.12968575500E+03  0.42354645459E+02  0.41439263840E+03  0.43629767339E+03  0.47000000000E+01 0. -1.
        -11    1    6    6    0    0 -0.18899348919E+02 -0.36355070980E+02  0.31136709922E+02  0.51462328749E+02  0.00000000000E+00 0.  1.
         12    1    6    6    0    0 -0.14997202544E+03 -0.29389740876E+02  0.24108303706E+03  0.28544070495E+03  0.00000000000E+00 0. -1.
         -5    1    3    3    0  503  0.43618523230E+02 -0.33149520169E+02  0.20117269177E+03  0.20855217134E+03  0.47000000000E+01 0.  1.
         11    1    4    4    0    0  0.25925367298E+03  0.61524166540E+02  0.39994264098E+03  0.48057445427E+03  0.00000000000E+00 0. -1.
        -12    1    4    4    0    0 -0.43150668524E+01 -0.49844799737E+01  0.51416810939E+01  0.83607252688E+01  0.00000000000E+00 0.  1.
</event>
<event>
12    1  0.9873238E-001  0.1963367E+03  0.7818608E-02  0.1154625E+00
         21   -1    0    0  501  502  0.00000000000E+00  0.00000000000E+00  0.10645834150E+04  0.10645834150E+04  0.00000000000E+00 0.  1.
         21   -1    0    0  502  503 -0.00000000000E+00 -0.00000000000E+00 -0.35133728840E+02  0.35133728840E+02  0.00000000000E+00 0.  1.
         -6    2    1    2    0  503  0.46986163765E+02  0.61721008622E+02  0.58221399171E+03  0.61442756005E+03  0.18036327765E+03 0.  0.
        -24    2    3    3    0    0 -0.18407429695E+02  0.79033571692E+02  0.46669197788E+03  0.48047431230E+03  0.80430240822E+02 0.  0.
          6    2    1    2  501    0 -0.46986163765E+02 -0.61721008622E+02  0.44723569449E+03  0.48528958382E+03  0.17166546319E+03 0.  0.
         24    2    5    5    0    0 -0.19047201773E+01 -0.59782618262E+02  0.42160583035E+03  0.43318321330E+03  0.79489815043E+02 0.  0.
          5    1    5    5  501    0 -0.45081443588E+02 -0.19383903606E+01  0.25629864138E+02  0.52106370521E+02  0.47000000000E+01 0. -1.
        -13    1    6    6    0    0  0.79942123338E+01  0.10520406459E+02  0.20101605688E+03  0.20144984861E+03  0.00000000000E+00 0.  1.
         14    1    6    6    0    0 -0.98989325112E+01 -0.70303024721E+02  0.22058977347E+03  0.23173336469E+03  0.00000000000E+00 0. -1.
         -5    1    3    3    0  503  0.65393593460E+02 -0.17312563070E+02  0.11552201383E+03  0.13395324776E+03  0.47000000000E+01 0.  1.
         11    1    4    4    0    0 -0.71170087246E+01  0.14687517810E+02  0.31362000389E+03  0.31404439468E+03  0.00000000000E+00 0. -1.
        -12    1    4    4    0    0 -0.11290420970E+02  0.64346053883E+02  0.15307197399E+03  0.16642991762E+03  0.00000000000E+00 0.  1.
</event>
<event>
12    1  0.9873238E-001  0.1895830E+03  0.7818608E-02  0.1158910E+00
         21   -1    0    0  503  502  0.00000000000E+00  0.00000000000E+00  0.23010284374E+03  0.23010284374E+03  0.00000000000E+00 0.  1.
         21   -1    0    0  501  503 -0.00000000000E+00 -0.00000000000E+00 -0.24889396669E+03  0.24889396669E+03  0.00000000000E+00 0.  1.
          6    2    1    2  501    0 -0.17108512766E+02 -0.76764298302E+02  0.13696445339E+03  0.23388243595E+03  0.17250006855E+03 0.  0.
         24    2    3    3    0    0  0.94950417567E+01 -0.83881324313E+02  0.26279300601E+02  0.11972598970E+03  0.80730902284E+02 0.  0.
         -6    2    1    2    0  502  0.17108512766E+02  0.76764298302E+02 -0.15575557633E+03  0.24511437449E+03  0.17215051065E+03 0.  0.
        -24    2    5    5    0    0  0.46713359916E+02  0.94555736295E+02 -0.16226777070E+03  0.20965339711E+03  0.80627490681E+02 0.  0.
          5    1    3    3  501    0 -0.26603554523E+02  0.71170260111E+01  0.11068515279E+03  0.11415644625E+03  0.47000000000E+01 0. -1.
        -11    1    4    4    0    0 -0.17099824937E+02 -0.70971282693E+02 -0.91605323642E+01  0.73574739776E+02  0.00000000000E+00 0.  1.
         12    1    4    4    0    0  0.26594866693E+02 -0.12910041620E+02  0.35439832966E+02  0.46151249926E+02  0.00000000000E+00 0. -1.
         -5    1    5    5    0  502 -0.29604847150E+02 -0.17791437993E+02  0.65121943646E+01  0.35460977370E+02  0.47000000000E+01 0.  1.
         13    1    6    6    0    0 -0.19475469431E+02  0.35730987356E+02 -0.74991803205E+02  0.85321555980E+02  0.00000000000E+00 0. -1.
        -14    1    6    6    0    0  0.66188829347E+02  0.58824748939E+02 -0.87275967493E+02  0.12433184113E+03  0.00000000000E+00 0.  1.
</event>
<event>
12    1  0.9873238E-001  0.1847153E+03  0.7818608E-02  0.1163441E+00
         21   -1    0    0  501  502  0.00000000000E+00  0.00000000000E+00  0.25133200273E+03  0.25133200273E+03  0.00000000000E+00 0. -1.
         21   -1    0    0  502  503 -0.00000000000E+00 -0.00000000000E+00 -0.13980101900E+03  0.13980101900E+03  0.00000000000E+00 0. -1.
         -6    2    1    2    0  503 -0.49858669231E+02 -0.45624567645E+02  0.90685959326E+02  0.20577581046E+03  0.17190768710E+03 0.  0.
        -24    2    3    3    0    0 -0.46096911984E+02 -0.68110929424E+02  0.33750312766E+01  0.11541500347E+03  0.80902460954E+02 0.  0.
          6    2    1    2  501    0  0.49858669231E+02  0.45624567645E+02  0.20845024410E+02  0.18535721127E+03  0.17133386314E+03 0.  0.
         24    2    5    5    0    0  0.75744229637E+02  0.57608690701E+02 -0.29200839014E+02  0.12756136463E+03  0.79770064432E+02 0.  0.
          5    1    5    5  501    0 -0.25885560407E+02 -0.11984123057E+02  0.50045863425E+02  0.57795846641E+02  0.47000000000E+01 0. -1.
        -13    1    6    6    0    0  0.53761814198E+02  0.44828409289E+02  0.19462951674E+02  0.72654837644E+02  0.00000000000E+00 0.  1.
         14    1    6    6    0    0  0.21982415439E+02  0.12780281412E+02 -0.48663790688E+02  0.54906526986E+02  0.00000000000E+00 0. -1.
         -5    1    3    3    0  503 -0.37617572464E+01  0.22486361779E+02  0.87310928049E+02  0.90360806993E+02  0.47000000000E+01 0.  1.
         13    1    4    4    0    0  0.69268799490E+01  0.54008132284E+01 -0.19971037650E+02  0.21817259090E+02  0.00000000000E+00 0. -1.
        -14    1    4    4    0    0 -0.53023791933E+02 -0.73511742652E+02  0.23346068927E+02  0.93597744380E+02  0.00000000000E+00 0.  1.
</event>
<event>
12    1  0.9873238E-001  0.2334376E+03  0.7818608E-02  0.1124413E+00
         21   -1    0    0  501  502  0.00000000000E+00  0.00000000000E+00  0.35076721804E+03  0.35076721804E+03  0.00000000000E+00 0. -1.
         21   -1    0    0  502  503 -0.00000000000E+00 -0.00000000000E+00 -0.28567098695E+03  0.28567098695E+03  0.00000000000E+00 0. -1.
         -6    2    1    2    0  503 -0.41022371207E+02  0.15111063036E+03  0.24804935555E+03  0.34061945197E+03  0.17313541153E+03 0.  0.
        -24    2    3    3    0    0 -0.29844593919E+02  0.51241043668E+01  0.83511240569E+02  0.12031990645E+03  0.81152919568E+02 0.  0.
          6    2    1    2  501    0  0.41022371207E+02 -0.15111063036E+03 -0.18295312446E+03  0.29581875302E+03  0.17181277991E+03 0.  0.
         24    2    5    5    0    0  0.71023815197E+01 -0.10989778458E+03 -0.35732957466E+02  0.13915053056E+03  0.77188464340E+02 0.  0.
          5    1    5    5  501    0  0.33919989687E+02 -0.41212845776E+02 -0.14722016700E+03  0.15666822246E+03  0.47000000000E+01 0. -1.
        -11    1    6    6    0    0 -0.38351291151E+01 -0.53763968812E+02 -0.56706763582E+02  0.78236370019E+02  0.00000000000E+00 0.  1.
         12    1    6    6    0    0  0.10937510635E+02 -0.56133815767E+02  0.20973806116E+02  0.60914160541E+02  0.00000000000E+00 0. -1.
         -5    1    3    3    0  503 -0.11177777288E+02  0.14598652599E+03  0.16453811498E+03  0.22029954552E+03  0.47000000000E+01 0.  1.
         13    1    4    4    0    0  0.25035275622E+02  0.15074212563E+02  0.18170359574E+02  0.34411609624E+02  0.00000000000E+00 0. -1.
        -14    1    4    4    0    0 -0.54879869541E+02 -0.99501081961E+01  0.65340880995E+02  0.85908296824E+02  0.00000000000E+00 0.  1.
</event>
<event>
12    1  0.9873238E-001  0.3741919E+03  0.7818608E-02  0.1053160E+00
         21   -1    0    0  501  502  0.00000000000E+00  0.00000000000E+00  0.14160276944E+03  0.14160276944E+03  0.00000000000E+00 0.  1.
         21   -1    0    0  502  503 -0.00000000000E+00 -0.00000000000E+00 -0.12517918514E+04  0.12517918514E+04  0.00000000000E+00 0. -1.
         -6    2    1    2    0  503 -0.12651117329E+03 -0.30671058593E+03 -0.23513851484E+03  0.44193854819E+03  0.17304074297E+03 0.  0.
        -24    2    3    3    0    0 -0.99700995186E+02 -0.20052106634E+03 -0.23201050285E+03  0.33227144200E+03  0.80165149862E+02 0.  0.
          6    2    1    2  501    0  0.12651117329E+03  0.30671058593E+03 -0.87505056713E+03  0.95145607265E+03  0.17169363024E+03 0.  0.
         24    2    5    5    0    0  0.79650751088E+01  0.19155513156E+03 -0.43715606161E+03  0.48338808184E+03  0.76169577962E+02 0.  0.
          5    1    5    5  501    0  0.11854609818E+03  0.11515545437E+03 -0.43789450552E+03  0.46806799082E+03  0.47000000000E+01 0. -1.
        -13    1    6    6    0    0  0.25461295920E+02  0.18181843085E+03 -0.36596052153E+03  0.40943048580E+03  0.00000000000E+00 0.  1.
         14    1    6    6    0    0 -0.17496220812E+02  0.97367007175E+01 -0.71195540083E+02  0.73957596035E+02  0.00000000000E+00 0. -1.
         -5    1    3    3    0  503 -0.26810178108E+02 -0.10618951959E+03 -0.31280119946E+01  0.10966710619E+03  0.47000000000E+01 0.  1.
         13    1    4    4    0    0 -0.10620072885E+03 -0.14926931160E+03 -0.15743018252E+03  0.24154540891E+03  0.00000000000E+00 0. -1.
        -14    1    4    4    0    0  0.64997336676E+01 -0.51251754736E+02 -0.74580320329E+02  0.90726033097E+02  0.00000000000E+00 0.  1.
</event>
<event>
12    1  0.9873238E-001  0.2325966E+03  0.7818608E-02  0.1124960E+00
         21   -1    0    0  501  502  0.00000000000E+00  0.00000000000E+00  0.29218636510E+03  0.29218636510E+03  0.00000000000E+00 0. -1.
         21   -1    0    0  502  503 -0.00000000000E+00 -0.00000000000E+00 -0.24433423673E+03  0.24433423673E+03  0.00000000000E+00 0. -1.
         -6    2    1    2    0  503  0.68615077327E+02  0.14004114615E+03  0.15665843706E+03  0.28043365048E+03  0.17257350599E+03 0.  0.
        -24    2    3    3    0    0  0.51915305970E+02  0.59070921879E+02  0.16382732683E+03  0.19731600758E+03  0.76874189599E+02 0.  0.
          6    2    1    2  501    0 -0.68615077327E+02 -0.14004114615E+03 -0.10880630869E+03  0.25608695135E+03  0.17152889666E+03 0.  0.
         24    2    5    5    0    0 -0.21338795084E+02 -0.10575316893E+03 -0.13682685810E+03  0.19114117833E+03  0.78576612569E+02 0.  0.
          5    1    5    5  501    0 -0.47276282243E+02 -0.34287977223E+02  0.28020549402E+02  0.64945773023E+02  0.47000000000E+01 0. -1.
        -11    1    6    6    0    0 -0.10866839767E+02 -0.32177560261E+02  0.16278320786E+01  0.34001962122E+02  0.00000000000E+00 0.  1.
         12    1    6    6    0    0 -0.10471955317E+02 -0.73575608664E+02 -0.13845469017E+03  0.15713921621E+03  0.00000000000E+00 0. -1.
         -5    1    3    3    0  503  0.16699771357E+02  0.80970224269E+02 -0.71688897631E+01  0.83117642905E+02  0.47000000000E+01 0.  1.
         11    1    4    4    0    0  0.31293081201E+02 -0.93951441491E+01  0.24943858297E+02  0.41106224971E+02  0.00000000000E+00 0. -1.
        -12    1    4    4    0    0  0.20622224768E+02  0.68466066029E+02  0.13888346853E+03  0.15620978261E+03  0.00000000000E+00 0.  1.
</event>
<event>
12    1  0.9873238E-001  0.2043321E+03  0.7818608E-02  0.1146136E+00
         21   -1    0    0  503  502  0.00000000000E+00  0.00000000000E+00  0.80305243263E+03  0.80305243263E+03  0.00000000000E+00 0. -1.
         21   -1    0    0  501  503 -0.00000000000E+00 -0.00000000000E+00 -0.54461843969E+02  0.54461843969E+02  0.00000000000E+00 0. -1.
          6    2    1    2  501    0 -0.78368199522E+02 -0.77131850245E+02  0.46564025434E+03  0.50849779427E+03  0.17221574637E+03 0.  0.
         24    2    3    3    0    0 -0.95640959918E+02 -0.16617201350E+02  0.20550474305E+03  0.24081711657E+03  0.79607534947E+02 0.  0.
         -6    2    1    2    0  502  0.78368199522E+02  0.77131850245E+02  0.28295033432E+03  0.34901648232E+03  0.17222286789E+03 0.  0.
        -24    2    5    5    0    0  0.74703314095E+02  0.14786176763E+02  0.25917957560E+03  0.28202727904E+03  0.81031583664E+02 0.  0.
          5    1    3    3  501    0  0.17272760396E+02 -0.60514648895E+02  0.26013551129E+03  0.26768067771E+03  0.47000000000E+01 0. -1.
        -13    1    4    4    0    0 -0.50223113591E+02 -0.28756229792E+02  0.17610148669E+03  0.18536724496E+03  0.00000000000E+00 0.  1.
         14    1    4    4    0    0 -0.45417846326E+02  0.12139028441E+02  0.29403256365E+02  0.55449871607E+02  0.00000000000E+00 0. -1.
         -5    1    5    5    0  502  0.36648854273E+01  0.62345673482E+02  0.23770758712E+02  0.66989203285E+02  0.47000000000E+01 0.  1.
         13    1    6    6    0    0  0.87746435397E+02  0.16126153450E+02  0.17096170706E+03  0.19284033559E+03  0.00000000000E+00 0. -1.
        -14    1    6    6    0    0 -0.13043121302E+02 -0.13399766867E+01  0.88217868548E+02  0.89186943450E+02  0.00000000000E+00 0.  1.
</event>
<event>
12    1  0.9873238E-001  0.1955312E+03  0.7818608E-02  0.1156141E+00
         21   -1    0    0  501  502  0.00000000000E+00  0.00000000000E+00  0.15917139657E+03  0.15917139657E+03  0.00000000000E+00 0. -1.
         21   -1    0    0  502  503 -0.00000000000E+00 -0.00000000000E+00 -0.22630994870E+03  0.22630994870E+03  0.00000000000E+00 0. -1.
         -6    2    1    2    0  503 -0.53603222886E+02 -0.36039699323E+02 -0.31369473639E+02  0.18670540948E+03  0.17234471452E+03 0.  0.
        -24    2    3    3    0    0 -0.10130217205E+03 -0.91774673404E+01 -0.21619134664E+02  0.13090282560E+03  0.79509790581E+02 0.  0.
          6    2    1    2  501    0  0.53603222886E+02  0.36039699323E+02 -0.35769078495E+02  0.19877593578E+03  0.18455427451E+03 0.  0.
         24    2    5    5    0    0  0.49203238854E+01  0.60601798795E+02  0.36993972690E+02  0.10772719607E+03  0.80869074147E+02 0.  0.
          5    1    5    5  501    0  0.48682899001E+02 -0.24562099471E+02 -0.72763051185E+02  0.91048739713E+02  0.47000000000E+01 0. -1.
        -11    1    6    6    0    0  0.25251250894E+02  0.26396463613E+02 -0.17295290060E+02  0.40416902667E+02  0.00000000000E+00 0.  1.
         12    1    6    6    0    0 -0.20330927008E+02  0.34205335182E+02  0.54289262750E+02  0.67310293402E+02  0.00000000000E+00 0. -1.
         -5    1    3    3    0  503  0.47698949161E+02 -0.26862231983E+02 -0.97503389747E+01  0.55802583885E+02  0.47000000000E+01 0.  1.
         11    1    4    4    0    0 -0.56648824950E+02  0.21803909912E+02  0.18379927695E+02  0.63421775423E+02  0.00000000000E+00 0. -1.
        -12    1    4    4    0    0 -0.44653347097E+02 -0.30981377252E+02 -0.39999062359E+02  0.67481050177E+02  0.00000000000E+00 0.  1.
</event>
<event>
12    1  0.9873238E-001  0.2294472E+03  0.7818608E-02  0.1127045E+00
         21   -1    0    0  503  502  0.00000000000E+00  0.00000000000E+00  0.28784104086E+03  0.28784104086E+03  0.00000000000E+00 0.  1.
         21   -1    0    0  501  503 -0.00000000000E+00 -0.00000000000E+00 -0.18325475525E+03  0.18325475525E+03  0.00000000000E+00 0.  1.
          6    2    1    2  501    0  0.23931374822E+02 -0.15037586478E+03  0.40919350446E+02  0.23297926720E+03  0.17152065268E+03 0.  0.
         24    2    3    3    0    0  0.51154184970E+02 -0.16291712723E+03  0.10637776432E+02  0.19011403209E+03  0.82894160988E+02 0.  0.
         -6    2    1    2    0  502 -0.23931374822E+02  0.15037586478E+03  0.63666935158E+02  0.23811652891E+03  0.17164029626E+03 0.  0.
        -24    2    5    5    0    0 -0.43584248529E+02  0.45104116637E+02  0.80661272965E+02  0.12958416544E+03  0.79698475017E+02 0.  0.
          5    1    3    3  501    0 -0.27222810148E+02  0.12541262450E+02  0.30281574014E+02  0.42865235109E+02  0.47000000000E+01 0. -1.
        -11    1    4    4    0    0 -0.22680263972E+02 -0.48980564508E+02  0.53737724195E+01  0.54243594123E+02  0.00000000000E+00 0.  1.
         12    1    4    4    0    0  0.73834448942E+02 -0.11393656272E+03  0.52640040120E+01  0.13587043797E+03  0.00000000000E+00 0. -1.
         -5    1    5    5    0  502  0.19652873707E+02  0.10527174814E+03 -0.16994337807E+02  0.10853236347E+03  0.47000000000E+01 0.  1.
         11    1    6    6    0    0 -0.29484353770E+02  0.68209402141E+02  0.57456390302E+02  0.93931285759E+02  0.00000000000E+00 0. -1.
        -12    1    6    6    0    0 -0.14099894759E+02 -0.23105285505E+02  0.23204882663E+02  0.35652879685E+02  0.00000000000E+00 0.  1.
</event>
<event>
12    1  0.9873238E-001  0.2059311E+03  0.7818608E-02  0.1145356E+00
         21   -1    0    0  501  502  0.00000000000E+00  0.00000000000E+00  0.20134080518E+03  0.20134080518E+03  0.00000000000E+00 0.  1.
         21   -1    0    0  502  503 -0.00000000000E+00 -0.00000000000E+00 -0.21428546131E+03  0.21428546131E+03  0.00000000000E+00 0.  1.
         -6    2    1    2    0  503  0.10412229391E+03 -0.28076697485E+02  0.29086772491E+02  0.20797509364E+03  0.17543615992E+03 0.  0.
        -24    2    3    3    0    0  0.48063821318E+02 -0.84505225620E+02  0.22472728533E+02  0.12802156517E+03  0.80207440702E+02 0.  0.
          6    2    1    2  501    0 -0.10412229391E+03  0.28076697485E+02 -0.42031428619E+02  0.20765117286E+03  0.17240248133E+03 0.  0.
         24    2    5    5    0    0 -0.95074241776E+01  0.60575619858E+02 -0.32381468250E+01  0.10024930024E+03  0.79244178135E+02 0.  0.
          5    1    5    5  501    0 -0.94614869732E+02 -0.32498922373E+02 -0.38793281794E+02  0.10740187262E+03  0.47000000000E+01 0. -1.
        -13    1    6    6    0    0 -0.39517193163E+02  0.11370188909E+02 -0.97130402920E+01  0.42252016556E+02  0.00000000000E+00 0.  1.
         14    1    6    6    0    0  0.30009768986E+02  0.49205430949E+02  0.64748934670E+01  0.57997283685E+02  0.00000000000E+00 0. -1.
         -5    1    3    3    0  503  0.56058472592E+02  0.56428528135E+02  0.66140439579E+01  0.79953528467E+02  0.47000000000E+01 0.  1.
         13    1    4    4    0    0  0.67375176646E+02 -0.49283068719E+02  0.33753480832E+01  0.83544169546E+02  0.00000000000E+00 0. -1.
        -14    1    4    4    0    0 -0.19311355329E+02 -0.35222156902E+02  0.19097380450E+02  0.44477395624E+02  0.00000000000E+00 0.  1.
</event>
<event>
12    1  0.9873238E-001  0.2154839E+03  0.7818608E-02  0.1137637E+00
         21   -1    0    0  503  502  0.00000000000E+00  0.00000000000E+00  0.11837406902E+03  0.11837406902E+03  0.00000000000E+00 0. -1.
         21   -1    0    0  501  503 -0.00000000000E+00 -0.00000000000E+00 -0.72056980775E+03  0.72056980775E+03  0.00000000000E+00 0. -1.
          6    2    1    2  501    0 -0.10653173330E+03 -0.68608051190E+02 -0.15896895354E+02  0.21430027143E+03  0.17209247562E+03 0.  0.
         24    2    3    3    0    0 -0.22148829222E+02  0.24580940597E+02  0.86297785023E+01  0.86127300715E+02  0.79048374903E+02 0.  0.
         -6    2    1    2    0  502  0.10653173330E+03  0.68608051190E+02 -0.58629884338E+03  0.62464360534E+03  0.17429063388E+03 0.  0.
        -24    2    5    5    0    0  0.35154714180E+02  0.79163945626E+02 -0.19798828698E+03  0.22965843602E+03  0.77722913230E+02 0.  0.
          5    1    3    3  501    0 -0.84382904076E+02 -0.93188991787E+02 -0.24526673856E+02  0.12817297071E+03  0.47000000000E+01 0. -1.
        -13    1    4    4    0    0 -0.40373272662E+02 -0.48600995487E+01 -0.15932816877E+02  0.43674665044E+02  0.00000000000E+00 0.  1.
         14    1    4    4    0    0  0.18224443440E+02  0.29441040146E+02  0.24562595380E+02  0.42452635670E+02  0.00000000000E+00 0. -1.
         -5    1    5    5    0  502  0.71377019119E+02 -0.10555894436E+02 -0.38831055641E+03  0.39498516932E+03  0.47000000000E+01 0.  1.
         13    1    6    6    0    0 -0.11198212047E+02  0.34085593535E+02 -0.21802711626E+02  0.41983161790E+02  0.00000000000E+00 0. -1.
        -14    1    6    6    0    0  0.46352926227E+02  0.45078352091E+02 -0.17618557535E+03  0.18767527423E+03  0.00000000000E+00 0.  1.
</event>
<event>
12    1  0.9873238E-001  0.1801061E+03  0.7818608E-02  0.1168200E+00
         21   -1    0    0  501  502  0.00000000000E+00  0.00000000000E+00  0.65109613124E+03  0.65109613124E+03  0.00000000000E+00 0. -1.
         21   -1    0    0  502  503 -0.00000000000E+00 -0.00000000000E+00 -0.91570219469E+02  0.91570219469E+02  0.00000000000E+00 0. -1.
         -6    2    1    2    0  503  0.46507505507E+02  0.11565947903E+02  0.28200342299E+02  0.18230044459E+03  0.17361299944E+03 0.  0.
        -24    2    3    3    0    0  0.39923411538E+02  0.34844015172E+02  0.80695409494E+02  0.12430871424E+03  0.78312981948E+02 0.  0.
          6    2    1    2  501    0 -0.46507505507E+02 -0.11565947903E+02  0.53132556947E+03  0.56036590611E+03  0.17148285262E+03 0.  0.
         24    2    5    5    0    0 -0.67164848241E+02 -0.20992633469E+02  0.18570967775E+03  0.21397303260E+03  0.79652788849E+02 0.  0.
          5    1    5    5  501    0  0.20657342734E+02  0.94266855669E+01  0.34561589173E+03  0.34639287352E+03  0.47000000000E+01 0. -1.
        -11    1    6    6    0    0 -0.63050978000E+02  0.18115579143E+02  0.98996863866E+02  0.11876017468E+03  0.00000000000E+00 0.  1.
         12    1    6    6    0    0 -0.41138702407E+01 -0.39108212613E+02  0.86712813880E+02  0.95212857919E+02  0.00000000000E+00 0. -1.
         -5    1    3    3    0  503  0.65840939694E+01 -0.23278067269E+02 -0.52495067195E+02  0.57991730350E+02  0.47000000000E+01 0.  1.
         11    1    4    4    0    0 -0.12760999310E+02 -0.92134716867E+01 -0.30201897118E+01  0.16026625028E+02  0.00000000000E+00 0. -1.
        -12    1    4    4    0    0  0.52684410847E+02  0.44057486858E+02  0.83715599206E+02  0.10828208922E+03  0.00000000000E+00 0.  1.
</event>
<event>
12    1  0.9873238E-001  0.3853494E+03  0.7818608E-02  0.1049000E+00
         21   -1    0    0  501  502  0.00000000000E+00  0.00000000000E+00  0.82333872020E+03  0.82333872020E+03  0.00000000000E+00 0.  1.
         21   -1    0    0  502  503 -0.00000000000E+00 -0.00000000000E+00 -0.18824608692E+03  0.18824608692E+03  0.00000000000E+00 0.  1.
         -6    2    1    2    0  503  0.21278115111E+03 -0.27122961028E+03  0.42206514267E+03  0.57151826833E+03  0.17219996114E+03 0.  0.
        -24    2    3    3    0    0  0.18391166155E+03 -0.26439515440E+03  0.30626152983E+03  0.45188247117E+03  0.81690551289E+02 0.  0.
          6    2    1    2  501    0 -0.21278115111E+03  0.27122961028E+03  0.21302749061E+03  0.44006653880E+03  0.17157076399E+03 0.  0.
         24    2    5    5    0    0 -0.16456811675E+03  0.10978863395E+03  0.15027240954E+03  0.26021110874E+03  0.77406813965E+02 0.  0.
          5    1    5    5  501    0 -0.48213034351E+02  0.16144097633E+03  0.62755081075E+02  0.17985543005E+03  0.47000000000E+01 0. -1.
        -11    1    6    6    0    0 -0.31572753885E+01  0.14175234596E+02 -0.63230730880E+01  0.15839410248E+02  0.00000000000E+00 0.  1.
         12    1    6    6    0    0 -0.16141084137E+03  0.95613399351E+02  0.15659548262E+03  0.24437169849E+03  0.00000000000E+00 0. -1.
         -5    1    3    3    0  503  0.28869489559E+02 -0.68344558716E+01  0.11580361284E+03  0.11963579716E+03  0.47000000000E+01 0.  1.
         11    1    4    4    0    0  0.15373393304E+03 -0.22331333984E+03  0.29304538820E+03  0.39922245611E+03  0.00000000000E+00 0. -1.
        -12    1    4    4    0    0  0.30177728511E+02 -0.41081814565E+02  0.13216141622E+02  0.52660015053E+02  0.00000000000E+00 0.  1.
</event>
<event>
12    1  0.9873238E-001  0.1879337E+03  0.7818608E-02  0.1160421E+00
         21   -1    0    0  503  502  0.00000000000E+00  0.00000000000E+00  0.58863582925E+03  0.58863582925E+03  0.00000000000E+00 0. -1.
         21   -1    0    0  501  503 -0.00000000000E+00 -0.00000000000E+00 -0.71890905471E+02  0.71890905471E+02  0.00000000000E+00 0. -1.
          6    2    1    2  501    0  0.65697310497E+02  0.29702302920E+02  0.12362221980E+03  0.22494780443E+03  0.17355315636E+03 0.  0.
         24    2    3    3    0    0  0.90793163609E+02  0.67914659554E+02  0.70536679506E+02  0.15473277305E+03  0.78172938790E+02 0.  0.
         -6    2    1    2    0  502 -0.65697310497E+02 -0.29702302920E+02  0.39312270398E+03  0.43557893030E+03  0.17316229592E+03 0.  0.
        -24    2    5    5    0    0  0.19747966839E+02  0.16505214304E+02  0.25089845876E+03  0.26328309170E+03  0.75535061242E+02 0.  0.
          5    1    3    3  501    0 -0.25095853112E+02 -0.38212356634E+02  0.53085540294E+02  0.70215031377E+02  0.47000000000E+01 0. -1.
        -13    1    4    4    0    0  0.39408878936E+02  0.76034974016E+02  0.41713975854E+02  0.95259817311E+02  0.00000000000E+00 0.  1.
         14    1    4    4    0    0  0.51384284673E+02 -0.81203144618E+01  0.28822703652E+02  0.59472955737E+02  0.00000000000E+00 0. -1.
         -5    1    5    5    0  502 -0.85445277336E+02 -0.46207517225E+02  0.14222424522E+03  0.17229583859E+03  0.47000000000E+01 0.  1.
         13    1    6    6    0    0 -0.13920278871E+02  0.12137130301E+02  0.12090860287E+02  0.22074260990E+02  0.00000000000E+00 0. -1.
        -14    1    6    6    0    0  0.33668245710E+02  0.43680840034E+01  0.23880759847E+03  0.24120883071E+03  0.00000000000E+00 0.  1.
</event>
<event>
12    1  0.9873238E-001  0.3671758E+03  0.7818608E-02  0.1055832E+00
         21   -1    0    0  503  502  0.00000000000E+00  0.00000000000E+00  0.26101136544E+03  0.26101136544E+03  0.00000000000E+00 0.  1.
         21   -1    0    0  501  503 -0.00000000000E+00 -0.00000000000E+00 -0.76011989974E+03  0.76011989974E+03  0.00000000000E+00 0. -1.
          6    2    1    2  501    0  0.23239396272E+03  0.22615383808E+03 -0.53892312107E+03  0.65180313379E+03  0.17104584884E+03 0.  0.
         24    2    3    3    0    0  0.16439721468E+03  0.10172575901E+03 -0.40956428932E+03  0.45980911837E+03  0.79416270422E+02 0.  0.
         -6    2    1    2    0  502 -0.23239396272E+03 -0.22615383808E+03  0.39814586771E+02  0.36932813139E+03  0.17223691512E+03 0.  0.
        -24    2    5    5    0    0 -0.22827433044E+03 -0.24221287885E+03  0.19868202747E+02  0.34296883708E+03  0.80353152463E+02 0.  0.
          5    1    3    3  501    0  0.67996748047E+02  0.12442807907E+03 -0.12935883174E+03  0.19199401542E+03  0.47000000000E+01 0. -1.
        -11    1    4    4    0    0  0.12244436414E+03  0.30702950432E+02 -0.23599543346E+03  0.26763620475E+03  0.00000000000E+00 0.  1.
         12    1    4    4    0    0  0.41952850535E+02  0.71022808575E+02 -0.17356885586E+03  0.19217291362E+03  0.00000000000E+00 0. -1.
         -5    1    5    5    0  502 -0.41196322866E+01  0.16059040778E+02  0.19946384024E+02  0.26359294309E+02  0.47000000000E+01 0.  1.
         11    1    6    6    0    0 -0.56915398961E+02 -0.17805824397E+02  0.98182513864E+01  0.60438465249E+02  0.00000000000E+00 0. -1.
        -12    1    6    6    0    0 -0.17135893148E+03 -0.22440705446E+03  0.10049951361E+02  0.28253037183E+03  0.00000000000E+00 0.  1.
</event>
<event>
12    1  0.9873238E-001  0.1873650E+03  0.7818608E-02  0.1160881E+00
         21   -1    0    0  501  502  0.00000000000E+00  0.00000000000E+00  0.80983696957E+03  0.80983696957E+03  0.00000000000E+00 0. -1.
         21   -1    0    0  502  503 -0.00000000000E+00 -0.00000000000E+00 -0.44516375800E+02  0.44516375800E+02  0.00000000000E+00 0. -1.
         -6    2    1    2    0  503 -0.69862856265E+02 -0.25562251672E+02  0.45237797084E+03  0.48960858837E+03  0.17186184543E+03 0.  0.
        -24    2    3    3    0    0 -0.71207258841E+02  0.92648289835E+00  0.13108591829E+03  0.16718939927E+03  0.75481422681E+02 0.  0.
          6    2    1    2  501    0  0.69862856265E+02  0.25562251672E+02  0.31294262293E+03  0.36474475699E+03  0.17196338305E+03 0.  0.
         24    2    5    5    0    0  0.16958187504E+01 -0.38793729335E+02  0.19669565440E+03  0.21533296031E+03  0.78557457317E+02 0.  0.
          5    1    5    5  501    0  0.68167037515E+02  0.64355981007E+02  0.11624696853E+03  0.14941179668E+03  0.47000000000E+01 0. -1.
        -11    1    6    6    0    0  0.15318921901E+01 -0.15972315180E+02 -0.12330013533E+01  0.16092912671E+02  0.00000000000E+00 0.  1.
         12    1    6    6    0    0  0.16392656036E+00 -0.22821414155E+02  0.19792865575E+03  0.19924004764E+03  0.00000000000E+00 0. -1.
         -5    1    3    3    0  503  0.13444025758E+01 -0.26488734571E+02  0.32129205254E+03  0.32241918911E+03  0.47000000000E+01 0.  1.
         11    1    4    4    0    0  0.68209866860E+01  0.27958526737E+01  0.63549673383E+02  0.63975805104E+02  0.00000000000E+00 0. -1.
        -12    1    4    4    0    0 -0.78028245527E+02 -0.18693697754E+01  0.67536244911E+02  0.10321359416E+03  0.00000000000E+00 0.  1.
</event>
<event>
12    1  0.9873238E-001  0.4143131E+03  0.7818608E-02  0.1038974E+00
         21   -1    0    0  501  502  0.00000000000E+00  0.00000000000E+00  0.18934374453E+03  0.18934374453E+03  0.00000000000E+00 0.  1.
         21   -1    0    0  502  503 -0.00000000000E+00 -0.00000000000E+00 -0.95517052623E+03  0.95517052623E+03  0.00000000000E+00 0.  1.
         -6    2    1    2    0  503  0.37455753507E+03  0.33602579413E+02 -0.25219930101E+03  0.48461388472E+03  0.17269525012E+03 0.  0.
        -24    2    3    3    0    0  0.31744548599E+03  0.40022850300E+02 -0.26808750360E+03  0.42480141938E+03  0.78815424909E+02 0.  0.
          6    2    1    2  501    0 -0.37455753507E+03 -0.33602579413E+02 -0.51362748069E+03  0.65990038604E+03  0.17387596197E+03 0.  0.
         24    2    5    5    0    0 -0.26298128505E+03 -0.61139346831E+02 -0.44500193686E+03  0.52596350390E+03  0.75589070743E+02 0.  0.
          5    1    5    5  501    0 -0.11157625003E+03  0.27536767418E+02 -0.68625543829E+02  0.13393688213E+03  0.47000000000E+01 0. -1.
        -13    1    6    6    0    0 -0.23935680781E+03 -0.45018627507E+02 -0.42867164783E+03  0.49302914713E+03  0.00000000000E+00 0.  1.
         14    1    6    6    0    0 -0.23624477236E+02 -0.16120719324E+02 -0.16330289025E+02  0.32934356770E+02  0.00000000000E+00 0. -1.
         -5    1    3    3    0  503  0.57112049086E+02 -0.64202708872E+01  0.15888202585E+02  0.59812465344E+02  0.47000000000E+01 0.  1.
         11    1    4    4    0    0  0.41131382252E+02 -0.48220703531E+01 -0.69764450288E+01  0.41996592168E+02  0.00000000000E+00 0. -1.
        -12    1    4    4    0    0  0.27631410374E+03  0.44844920654E+02 -0.26111105857E+03  0.38280482721E+03  0.00000000000E+00 0.  1.
</event>
<event>
12    1  0.9873238E-001  0.2177731E+03  0.7818608E-02  0.1135905E+00
         21   -1    0    0  503  502  0.00000000000E+00  0.00000000000E+00  0.13464299508E+03  0.13464299508E+03  0.00000000000E+00 0. -1.
         21   -1    0    0  501  503 -0.00000000000E+00 -0.00000000000E+00 -0.35445498134E+03  0.35445498134E+03  0.00000000000E+00 0. -1.
          6    2    1    2  501    0  0.34179540469E+01  0.12984769426E+03 -0.14000910288E+03  0.25889702980E+03  0.17479421340E+03 0.  0.
         24    2    3    3    0    0 -0.31115375713E+02  0.13570024903E+03 -0.15277725751E+03  0.22132151871E+03  0.79117634175E+02 0.  0.
         -6    2    1    2    0  502 -0.34179540469E+01 -0.12984769426E+03 -0.79802883378E+02  0.23020094662E+03  0.17248730247E+03 0.  0.
        -24    2    5    5    0    0 -0.57142245165E+02 -0.37500055075E+02 -0.57928145296E+02  0.12104518595E+03  0.81392731324E+02 0.  0.
          5    1    3    3  501    0  0.34533329760E+02 -0.58525547714E+01  0.12768154630E+02  0.37575511099E+02  0.47000000000E+01 0. -1.
        -11    1    4    4    0    0 -0.25790094509E+01  0.19440160606E+02  0.77380268763E+01  0.21081939998E+02  0.00000000000E+00 0.  1.
         12    1    4    4    0    0 -0.28536366262E+02  0.11626008843E+03 -0.16051528438E+03  0.20023957871E+03  0.00000000000E+00 0. -1.
         -5    1    5    5    0  502  0.53724291118E+02 -0.92347639188E+02 -0.21874738082E+02  0.10915576066E+03  0.47000000000E+01 0.  1.
         13    1    6    6    0    0  0.20880972112E+02 -0.96330028470E+01 -0.81862011780E+01  0.24409498764E+02  0.00000000000E+00 0. -1.
        -14    1    6    6    0    0 -0.78023217277E+02 -0.27867052228E+02 -0.49741944118E+02  0.96635687190E+02  0.00000000000E+00 0.  1.
</event>
<event>
12    1  0.9873238E-001  0.1793944E+03  0.7818608E-02  0.1169454E+00
         21   -1    0    0  501  502  0.00000000000E+00  0.00000000000E+00  0.66026308149E+03  0.66026308149E+03  0.00000000000E+00 0.  1.
         21   -1    0    0  502  503 -0.00000000000E+00 -0.00000000000E+00 -0.70445851571E+02  0.70445851571E+02  0.00000000000E+00 0.  1.
         -6    2    1    2    0  503 -0.16547935249E+02 -0.41013371042E+02  0.50549964556E+03  0.53638814802E+03  0.17385747874E+03 0.  0.
        -24    2    3    3    0    0  0.39396390044E+02 -0.39378352735E+02  0.16941617450E+03  0.19564391794E+03  0.80448568855E+02 0.  0.
          6    2    1    2  501    0  0.16547935249E+02  0.41013371042E+02  0.84317584366E+02  0.19432078504E+03  0.16939652211E+03 0.  0.
         24    2    5    5    0    0  0.44548016159E+02  0.46335664730E+02 -0.28998214549E+01  0.10244425257E+03  0.79717603769E+02 0.  0.
          5    1    5    5  501    0 -0.28000080911E+02 -0.53222936880E+01  0.87217405821E+02  0.91876532472E+02  0.47000000000E+01 0. -1.
        -13    1    6    6    0    0  0.19428715077E+02  0.60565729040E+02 -0.22590922893E+02  0.67498387394E+02  0.00000000000E+00 0.  1.
         14    1    6    6    0    0  0.25119301083E+02 -0.14230064310E+02  0.19691101438E+02  0.34945865177E+02  0.00000000000E+00 0. -1.
         -5    1    3    3    0  503 -0.55944325293E+02 -0.16350183072E+01  0.33608347106E+03  0.34074423008E+03  0.47000000000E+01 0.  1.
         11    1    4    4    0    0 -0.23609019973E+02 -0.75307821632E+00  0.48177925569E+02  0.53656923719E+02  0.00000000000E+00 0. -1.
        -12    1    4    4    0    0  0.63005410017E+02 -0.38625274519E+02  0.12123824893E+03  0.14198699422E+03  0.00000000000E+00 0.  1.
</event>
<event>
12    1  0.9873238E-001  0.2387918E+03  0.7818608E-02  0.1120627E+00
         21   -1    0    0  501  502  0.00000000000E+00  0.00000000000E+00  0.62277958446E+03  0.62277958446E+03  0.00000000000E+00 0. -1.
         21   -1    0    0  502  503 -0.00000000000E+00 -0.00000000000E+00 -0.10614603492E+03  0.10614603492E+03  0.00000000000E+00 0. -1.
         -6    2    1    2    0  503  0.34504912625E+01  0.16562800968E+03  0.39378370078E+03  0.46052918862E+03  0.17197961244E+03 0.  0.
        -24    2    3    3    0    0  0.61799712223E+02  0.13172303645E+03  0.31767206282E+03  0.35869967311E+03  0.81115678086E+02 0.  0.
          6    2    1    2  501    0 -0.34504912625E+01 -0.16562800968E+03  0.12284984877E+03  0.26839643076E+03  0.17175568469E+03 0.  0.
         24    2    5    5    0    0  0.21830565403E+02 -0.20411841679E+02  0.17244309600E+02  0.87008759796E+02  0.79874534121E+02 0.  0.
          5    1    5    5  501    0 -0.25281056665E+02 -0.14521616800E+03  0.10560553917E+03  0.18138767096E+03  0.47000000000E+01 0. -1.
        -13    1    6    6    0    0 -0.14952591108E+02 -0.36937840450E+02 -0.62531340967E+01  0.40337150668E+02  0.00000000000E+00 0.  1.
         14    1    6    6    0    0  0.36783156511E+02  0.16525998771E+02  0.23497443697E+02  0.46671609128E+02  0.00000000000E+00 0. -1.
         -5    1    3    3    0  503 -0.58349220961E+02  0.33904973232E+02  0.76111637959E+02  0.10182951551E+03  0.47000000000E+01 0. -1.
         13    1    4    4    0    0  0.36230266880E+02  0.32931128571E+02  0.18472556245E+03  0.19110370192E+03  0.00000000000E+00 0. -1.
        -14    1    4    4    0    0  0.25569445344E+02  0.98791907876E+02  0.13294650037E+03  0.16759597119E+03  0.00000000000E+00 0.  1.
</event>
<event>
12    1  0.9873238E-001  0.2702204E+03  0.7818608E-02  0.1101220E+00
         21   -1    0    0  501  502  0.00000000000E+00  0.00000000000E+00  0.57327185128E+03  0.57327185128E+03  0.00000000000E+00 0. -1.
         21   -1    0    0  502  503 -0.00000000000E+00 -0.00000000000E+00 -0.17341174863E+03  0.17341174863E+03  0.00000000000E+00 0. -1.
         -6    2    1    2    0  503 -0.10339070740E+03  0.18019211875E+03  0.39288139696E+03  0.47683839006E+03  0.17280109991E+03 0.  0.
        -24    2    3    3    0    0 -0.82178940445E+02  0.34868063198E+02  0.22063706363E+03  0.25043339776E+03  0.77891031452E+02 0.  0.
          6    2    1    2  501    0  0.10339070740E+03 -0.18019211875E+03  0.69787056907E+01  0.26984520984E+03  0.17207235951E+03 0.  0.
         24    2    5    5    0    0 -0.12909559570E+02 -0.10100966641E+03  0.47014346340E+01  0.12905142866E+03  0.79136327407E+02 0.  0.
          5    1    5    5  501    0  0.11630026697E+03 -0.79182452338E+02  0.22772710567E+01  0.14079378118E+03  0.47000000000E+01 0. -1.
        -11    1    6    6    0    0 -0.28416812813E+02 -0.71178963308E+02  0.34571728326E+02  0.84078323410E+02  0.00000000000E+00 0.  1.
         12    1    6    6    0    0  0.15507253243E+02 -0.29830703100E+02 -0.29870293692E+02  0.44973105250E+02  0.00000000000E+00 0. -1.
         -5    1    3    3    0  503 -0.21211766958E+02  0.14532405555E+03  0.17224433332E+03  0.22640499231E+03  0.47000000000E+01 0.  1.
         13    1    4    4    0    0 -0.17771487023E+02 -0.20022824122E+02  0.22463868771E+02  0.34948027655E+02  0.00000000000E+00 0. -1.
        -14    1    4    4    0    0 -0.64407453422E+02  0.54890887320E+02  0.19817319486E+03  0.21548537010E+03  0.00000000000E+00 0.  1.
</event>
<event>
12    1  0.9873238E-001  0.2190889E+03  0.7818608E-02  0.1134885E+00
         21   -1    0    0  503  502  0.00000000000E+00  0.00000000000E+00  0.18085445147E+04  0.18085445147E+04  0.00000000000E+00 0. -1.
         21   -1    0    0  501  503 -0.00000000000E+00 -0.00000000000E+00 -0.26338880701E+02  0.26338880701E+02  0.00000000000E+00 0. -1.
          6    2    1    2  501    0  0.11581715245E+03 -0.67377325324E+02  0.87562455213E+03  0.90220489538E+03  0.17117827020E+03 0.  0.
         24    2    3    3    0    0  0.10930820160E+03 -0.37166433469E+02  0.85057026211E+03  0.86214404322E+03  0.80578866656E+02 0.  0.
         -6    2    1    2    0  502 -0.11581715245E+03  0.67377325324E+02  0.90658108184E+03  0.93267849999E+03  0.17333957894E+03 0.  0.
        -24    2    5    5    0    0 -0.11048108194E+03  0.68715645754E+02  0.43608208919E+03  0.46212387315E+03  0.80392637665E+02 0.  0.
          5    1    3    3  501    0  0.65089508448E+01 -0.30210891855E+02  0.25054290017E+02  0.40060852163E+02  0.47000000000E+01 0. -1.
        -11    1    4    4    0    0  0.46812150671E+02 -0.53935571277E+02  0.33491948443E+03  0.34244924347E+03  0.00000000000E+00 0.  1.
         12    1    4    4    0    0  0.62496050932E+02  0.16769137808E+02  0.51565077768E+03  0.51969479975E+03  0.00000000000E+00 0. -1.
         -5    1    5    5    0  502 -0.53360705049E+01 -0.13383204303E+01  0.47049899265E+03  0.47055462684E+03  0.47000000000E+01 0.  1.
         11    1    6    6    0    0  0.10652906444E+02 -0.41249860414E+01  0.38753750276E+02  0.40402389608E+02  0.00000000000E+00 0. -1.
        -12    1    6    6    0    0 -0.12113398839E+03  0.72840631795E+02  0.39732833891E+03  0.42172148355E+03  0.00000000000E+00 0.  1.
</event>
<event>
12    1  0.9873238E-001  0.1977759E+03  0.7818608E-02  0.1151776E+00
         21   -1    0    0  503  502  0.00000000000E+00  0.00000000000E+00  0.44677869745E+03  0.44677869745E+03  0.00000000000E+00 0. -1.
         21   -1    0    0  501  503 -0.00000000000E+00 -0.00000000000E+00 -0.10429893356E+03  0.10429893356E+03  0.00000000000E+00 0. -1.
          6    2    1    2  501    0  0.56580054591E+02  0.77735638454E+02  0.60077361367E+02  0.20669927632E+03  0.17283277877E+03 0.  0.
         24    2    3    3    0    0  0.49903634375E+02  0.52421632973E+01 -0.23985827669E+02  0.95395240998E+02  0.77505348694E+02 0.  0.
         -6    2    1    2    0  502 -0.56580054591E+02 -0.77735638454E+02  0.28240240253E+03  0.34437835469E+03  0.17204999902E+03 0.  0.
        -24    2    5    5    0    0  0.28561971725E+02 -0.11907745158E+02  0.16083977414E+03  0.18195286777E+03  0.79245394316E+02 0.  0.
          5    1    3    3  501    0  0.66764202164E+01  0.72493475157E+02  0.84063189036E+02  0.11130403532E+03  0.47000000000E+01 0. -1.
        -13    1    4    4    0    0  0.38874178704E+02  0.29746306435E+02  0.12081171520E+02  0.50418242946E+02  0.00000000000E+00 0.  1.
         14    1    4    4    0    0  0.11029455671E+02 -0.24504143138E+02 -0.36066999189E+02  0.44976998052E+02  0.00000000000E+00 0. -1.
         -5    1    5    5    0  502 -0.85142026316E+02 -0.65827893296E+02  0.12156262839E+03  0.16242548692E+03  0.47000000000E+01 0.  1.
         11    1    6    6    0    0  0.10734928208E+01  0.17906569983E+02  0.12940766465E+03  0.13064509675E+03  0.00000000000E+00 0. -1.
        -12    1    6    6    0    0  0.27488478904E+02 -0.29814315141E+02  0.31432109494E+02  0.51307771020E+02  0.00000000000E+00 0.  1.
</event>
<event>
12    1  0.9873238E-001  0.2628268E+03  0.7818608E-02  0.1106495E+00
         21   -1    0    0  503  502  0.00000000000E+00  0.00000000000E+00  0.65213587516E+03  0.65213587516E+03  0.00000000000E+00 0. -1.
         21   -1    0    0  501  503 -0.00000000000E+00 -0.00000000000E+00 -0.12770570271E+03  0.12770570271E+03  0.00000000000E+00 0. -1.
          6    2    1    2  501    0 -0.19109611174E+03 -0.19960525199E+02  0.43598058773E+03  0.50907464590E+03  0.17933704508E+03 0.  0.
         24    2    3    3    0    0 -0.17055253486E+03 -0.12196143045E+02  0.21186821927E+03  0.28383972882E+03  0.80249213477E+02 0.  0.
         -6    2    1    2    0  502  0.19109611174E+03  0.19960525199E+02  0.88449584727E+02  0.27076693196E+03  0.16904217201E+03 0.  0.
        -24    2    5    5    0    0  0.13651795282E+03  0.17393201507E+02  0.12727370474E+03  0.20357490210E+03  0.79400692357E+02 0.  0.
          5    1    3    3  501    0 -0.20543576877E+02 -0.77643821547E+01  0.22411236845E+03  0.22523491709E+03  0.47000000000E+01 0. -1.
        -13    1    4    4    0    0 -0.14150003759E+03  0.22869000593E+02  0.16203596428E+03  0.21633516946E+03  0.00000000000E+00 0.  1.
         14    1    4    4    0    0 -0.29052497277E+02 -0.35065143638E+02  0.49832254999E+02  0.67504559362E+02  0.00000000000E+00 0. -1.
         -5    1    5    5    0  502  0.54578158924E+02  0.25673236923E+01 -0.38824120012E+02  0.67192029864E+02  0.47000000000E+01 0.  1.
         11    1    6    6    0    0  0.26018525701E+02 -0.28678904497E+02  0.37812394807E+02  0.54122273085E+02  0.00000000000E+00 0. -1.
        -12    1    6    6    0    0  0.11049942712E+03  0.46072106004E+02  0.89461309932E+02  0.14945262901E+03  0.00000000000E+00 0.  1.
</event>
<event>
12    1  0.9873238E-001  0.3424708E+03  0.7818608E-02  0.1065827E+00
         21   -1    0    0  501  502  0.00000000000E+00  0.00000000000E+00  0.10854570542E+03  0.10854570542E+03  0.00000000000E+00 0. -1.
         21   -1    0    0  502  503 -0.00000000000E+00 -0.00000000000E+00 -0.11061628246E+04  0.11061628246E+04  0.00000000000E+00 0. -1.
         -6    2    1    2    0  503  0.14605952312E+03 -0.25694504123E+03 -0.40272460925E+03  0.52865239551E+03  0.17300897629E+03 0.  0.
        -24    2    3    3    0    0  0.42490370650E+01 -0.11722077438E+03 -0.19733931792E+03  0.24257846696E+03  0.78375646558E+02 0.  0.
          6    2    1    2  501    0 -0.14605952312E+03  0.25694504123E+03 -0.59489250997E+03  0.68605613456E+03  0.17152779029E+03 0.  0.
         24    2    5    5    0    0 -0.41967140492E+02  0.59668979210E+02 -0.12282534031E+03  0.16392342016E+03  0.80394001616E+02 0.  0.
          5    1    5    5  501    0 -0.10409238263E+03  0.19727606202E+03 -0.47206716966E+03  0.52213271439E+03  0.47000000000E+01 0. -1.
        -11    1    6    6    0    0 -0.33117763671E+02  0.43465648327E+02 -0.18072046220E+02  0.57555605372E+02  0.00000000000E+00 0.  1.
         12    1    6    6    0    0 -0.88493768208E+01  0.16203330882E+02 -0.10475329409E+03  0.10636781479E+03  0.00000000000E+00 0. -1.
         -5    1    3    3    0  503  0.14181048606E+03 -0.13972426685E+03 -0.20538529133E+03  0.28607392856E+03  0.47000000000E+01 0.  1.
         13    1    4    4    0    0  0.41927402798E+01 -0.38347090055E+02 -0.10814473690E+02  0.40062840986E+02  0.00000000000E+00 0. -1.
        -14    1    4    4    0    0  0.56296785194E-01 -0.78873684324E+02 -0.18652484423E+03  0.20251562597E+03  0.00000000000E+00 0.  1.
</event>
<event>
12    1  0.9873238E-001  0.1980814E+03  0.7818608E-02  0.1151452E+00
         21   -1    0    0  503  502  0.00000000000E+00  0.00000000000E+00  0.10396080834E+03  0.10396080834E+03  0.00000000000E+00 0.  1.
         21   -1    0    0  501  503 -0.00000000000E+00 -0.00000000000E+00 -0.38007010807E+03  0.38007010807E+03  0.00000000000E+00 0.  1.
          6    2    1    2  501    0 -0.77489224960E+02  0.60802947448E+02 -0.11526984852E+03  0.22917981431E+03  0.17185654164E+03 0.  0.
         24    2    3    3    0    0  0.10846602891E+02  0.62615664196E+02 -0.93232818949E+02  0.13799744158E+03  0.79451652949E+02 0.  0.
         -6    2    1    2    0  502  0.77489224960E+02 -0.60802947448E+02 -0.16083945120E+03  0.25485110210E+03  0.17140063236E+03 0.  0.
        -24    2    5    5    0    0 -0.14649702358E+02 -0.18462922497E+02 -0.11834795119E+03  0.14480621483E+03  0.80044419027E+02 0.  0.
          5    1    3    3  501    0 -0.88335827851E+02 -0.18127167480E+01 -0.22037029574E+02  0.91182372729E+02  0.47000000000E+01 0. -1.
        -13    1    4    4    0    0  0.13041254601E+02  0.27323419904E+02 -0.97766920576E+02  0.10234751758E+03  0.00000000000E+00 0.  1.
         14    1    4    4    0    0 -0.21946517102E+01  0.35292244292E+02  0.45341016271E+01  0.35649923995E+02  0.00000000000E+00 0. -1.
         -5    1    5    5    0  502  0.92138927318E+02 -0.42340024951E+02 -0.42491500015E+02  0.11004488727E+03  0.47000000000E+01 0.  1.
         13    1    6    6    0    0  0.25847334847E+02  0.15871462029E+02 -0.44481264821E+02  0.53838378000E+02  0.00000000000E+00 0. -1.
        -14    1    6    6    0    0 -0.40497037205E+02 -0.34334384526E+02 -0.73866686367E+02  0.90967836833E+02  0.00000000000E+00 0.  1.
</event>
<event>
12    1  0.9873238E-001  0.1989363E+03  0.7818608E-02  0.1150645E+00
         21   -1    0    0  503  502  0.00000000000E+00  0.00000000000E+00  0.31019026578E+03  0.31019026578E+03  0.00000000000E+00 0. -1.
         21   -1    0    0  501  503 -0.00000000000E+00 -0.00000000000E+00 -0.14761676844E+03  0.14761676844E+03  0.00000000000E+00 0. -1.
          6    2    1    2  501    0 -0.76847001841E+02 -0.64670880970E+02  0.16564174106E+03  0.25884710024E+03  0.17168823601E+03 0.  0.
         24    2    3    3    0    0 -0.77550103249E+02 -0.65943756744E+02  0.19229370366E+03  0.23174485541E+03  0.79788545379E+02 0.  0.
         -6    2    1    2    0  502  0.76847001841E+02  0.64670880970E+02 -0.30682437125E+01  0.19895993398E+03  0.17172028614E+03 0.  0.
        -24    2    5    5    0    0  0.32261751046E+02 -0.24217749750E+02  0.29686697014E+02  0.94155309073E+02  0.79728302776E+02 0.  0.
          5    1    3    3  501    0  0.70310140786E+00  0.12728757740E+01 -0.26651962602E+02  0.27102244831E+02  0.47000000000E+01 0. -1.
        -13    1    4    4    0    0 -0.58946868210E+02 -0.73743721514E+02  0.10101561807E+03  0.13826432956E+03  0.00000000000E+00 0.  1.
         14    1    4    4    0    0 -0.18603235039E+02  0.77999647697E+01  0.91278085584E+02  0.93480525845E+02  0.00000000000E+00 0. -1.
         -5    1    5    5    0  502  0.44585250795E+02  0.88888630720E+02 -0.32754940727E+02  0.10480462491E+03  0.47000000000E+01 0.  1.
         13    1    6    6    0    0 -0.27926778760E+01  0.17527957620E+02  0.35143511846E+02  0.39371242969E+02  0.00000000000E+00 0. -1.
        -14    1    6    6    0    0  0.35054428922E+02 -0.41745707370E+02 -0.54568148316E+01  0.54784066105E+02  0.00000000000E+00 0.  1.
</event>
<event>
12    1  0.9873238E-001  0.2028783E+03  0.7818608E-02  0.1147786E+00
         21   -1    0    0  503  502  0.00000000000E+00  0.00000000000E+00  0.86075374845E+02  0.86075374845E+02  0.00000000000E+00 0. -1.
         21   -1    0    0  501  503 -0.00000000000E+00 -0.00000000000E+00 -0.55098567605E+03  0.55098567605E+03  0.00000000000E+00 0. -1.
          6    2    1    2  501    0 -0.99625406184E+02 -0.40887328203E+02 -0.11159505989E+03  0.22964077256E+03  0.16936478933E+03 0.  0.
         24    2    3    3    0    0 -0.93148265438E+02 -0.87686075171E+02 -0.74443503386E+02  0.16935475245E+03  0.82302793675E+02 0.  0.
         -6    2    1    2    0  502  0.99625406184E+02  0.40887328203E+02 -0.35331524132E+03  0.40742027834E+03  0.17193786172E+03 0.  0.
        -24    2    5    5    0    0  0.51038744045E+02  0.36850992208E+02 -0.34185722582E+03  0.35711787417E+03  0.81877128605E+02 0.  0.
          5    1    3    3  501    0 -0.64771407464E+01  0.46798746969E+02 -0.37151556504E+02  0.60286020110E+02  0.47000000000E+01 0. -1.
        -13    1    4    4    0    0 -0.62379996305E+02 -0.12568154818E+02 -0.58891980363E+02  0.86703447484E+02  0.00000000000E+00 0.  1.
         14    1    4    4    0    0 -0.30768269132E+02 -0.75117920353E+02 -0.15551523023E+02  0.82651304962E+02  0.00000000000E+00 0. -1.
         -5    1    5    5    0  502  0.48586662139E+02  0.40363359949E+01 -0.11458015500E+02  0.50302404170E+02  0.47000000000E+01 0.  1.
         13    1    6    6    0    0  0.28638084508E+02 -0.22860370108E+02 -0.86992466864E+02  0.94395051231E+02  0.00000000000E+00 0. -1.
        -14    1    6    6    0    0  0.22400659536E+02  0.59711362316E+02 -0.25486475895E+03  0.26272282294E+03  0.00000000000E+00 0.  1.
</event>
<event>
12    1  0.9873238E-001  0.2428269E+03  0.7818608E-02  0.1117968E+00
         21   -1    0    0  503  502  0.00000000000E+00  0.00000000000E+00  0.10438604548E+03  0.10438604548E+03  0.00000000000E+00 0. -1.
         21   -1    0    0  501  503 -0.00000000000E+00 -0.00000000000E+00 -0.56467044249E+03  0.56467044249E+03  0.00000000000E+00 0. -1.
          6    2    1    2  501    0  0.15456288904E+03  0.72879048733E+02 -0.22114503187E+03  0.32843571189E+03  0.17252202559E+03 0.  0.
         24    2    3    3    0    0  0.16757767001E+03  0.84752417048E+02 -0.14582824280E+03  0.25094332443E+03  0.80258507309E+02 0.  0.
         -6    2    1    2    0  502 -0.15456288904E+03 -0.72879048733E+02 -0.23913936515E+03  0.34062077608E+03  0.17214480742E+03 0.  0.
        -24    2    5    5    0    0 -0.12904366121E+03  0.27842995316E+01 -0.98615525115E+02  0.17892596207E+03  0.75029722695E+02 0.  0.
          5    1    3    3  501    0 -0.13014780975E+02 -0.11873368315E+02 -0.75316789071E+02  0.77492387465E+02  0.47000000000E+01 0. -1.
        -11    1    4    4    0    0  0.11640553299E+03  0.20667851357E+02 -0.10987444389E+03  0.16139950932E+03  0.00000000000E+00 0.  1.
         12    1    4    4    0    0  0.51172137026E+02  0.64084565691E+02 -0.35953798905E+02  0.89543815103E+02  0.00000000000E+00 0. -1.
         -5    1    5    5    0  502 -0.25519227828E+02 -0.75663348265E+02 -0.14052384003E+03  0.16169481401E+03  0.47000000000E+01 0.  1.
         11    1    6    6    0    0 -0.24301537655E+02  0.14999481641E+02  0.72896648030E+01  0.29473520232E+02  0.00000000000E+00 0. -1.
        -12    1    6    6    0    0 -0.10474212355E+03 -0.12215182110E+02 -0.10590518992E+03  0.14945244184E+03  0.00000000000E+00 0.  1.
</event>
<event>
12    1  0.9873238E-001  0.1751102E+03  0.7818608E-02  0.1173340E+00
         21   -1    0    0  503  502  0.00000000000E+00  0.00000000000E+00  0.11791075184E+03  0.11791075184E+03  0.00000000000E+00 0. -1.
         21   -1    0    0  501  503 -0.00000000000E+00 -0.00000000000E+00 -0.25590076626E+03  0.25590076626E+03  0.00000000000E+00 0. -1.
          6    2    1    2  501    0  0.12391983435E+02  0.73127373205E+01 -0.65871199917E+02  0.18443169618E+03  0.17166536691E+03 0.  0.
         24    2    3    3    0    0  0.39987035158E+02 -0.10850220774E+02 -0.10130154132E+03  0.13576159223E+03  0.80327563019E+02 0.  0.
         -6    2    1    2    0  502 -0.12391983435E+02 -0.73127373205E+01 -0.72118814499E+02  0.18937982192E+03  0.17451806831E+03 0.  0.
        -24    2    5    5    0    0 -0.13102396868E+01 -0.55432479798E+02  0.42298911640E+01  0.98332968507E+02  0.81098731011E+02 0.  0.
          5    1    3    3  501    0 -0.27595051723E+02  0.18162958095E+02  0.35430341401E+02  0.48670103947E+02  0.47000000000E+01 0. -1.
        -13    1    4    4    0    0  0.42267257147E+02 -0.10838498540E+02 -0.10433336012E+02  0.44864781039E+02  0.00000000000E+00 0.  1.
         14    1    4    4    0    0 -0.22802219885E+01 -0.11722234502E-01 -0.90868205307E+02  0.90896811195E+02  0.00000000000E+00 0. -1.
         -5    1    5    5    0  502 -0.11081743749E+02  0.48119742478E+02 -0.76348705663E+02  0.91046853417E+02  0.47000000000E+01 0.  1.
         13    1    6    6    0    0  0.22000304194E+02  0.10351040958E+02 -0.11336237429E+02  0.26826623205E+02  0.00000000000E+00 0. -1.
        -14    1    6    6    0    0 -0.23310543881E+02 -0.65783520756E+02  0.15566128593E+02  0.71506345302E+02  0.00000000000E+00 0.  1.
</event>
<event>
12    1  0.9873238E-001  0.3606042E+03  0.7818608E-02  0.1058351E+00
         21   -1    0    0  501  502  0.00000000000E+00  0.00000000000E+00  0.30104591279E+03  0.30104591279E+03  0.00000000000E+00 0.  1.
         21   -1    0    0  502  503 -0.00000000000E+00 -0.00000000000E+00 -0.43869273723E+03  0.43869273723E+03  0.00000000000E+00 0.  1.
         -6    2    1    2    0  503 -0.21167922167E+03 -0.23592357502E+03 -0.22710926719E+02  0.36131866510E+03  0.17195163687E+03 0.  0.
        -24    2    3    3    0    0 -0.13204844690E+03 -0.21125649219E+03 -0.61702131233E+02  0.26916700047E+03  0.81102548174E+02 0.  0.
          6    2    1    2  501    0  0.21167922167E+03  0.23592357502E+03 -0.11493589773E+03  0.37841998492E+03  0.17182374186E+03 0.  0.
         24    2    5    5    0    0  0.60850501232E+02  0.16887994768E+03 -0.53423558722E+02  0.20220985830E+03  0.76233391225E+02 0.  0.
          5    1    5    5  501    0  0.15082872044E+03  0.67043627337E+02 -0.61512339004E+02  0.17621012663E+03  0.47000000000E+01 0. -1.
        -11    1    6    6    0    0 -0.94387535210E+01  0.36770506045E+01  0.75176187185E+01  0.12614490096E+02  0.00000000000E+00 0.  1.
         12    1    6    6    0    0  0.70289254753E+02  0.16520289707E+03 -0.60941177441E+02  0.18959536820E+03  0.00000000000E+00 0. -1.
         -5    1    3    3    0  503 -0.79630774768E+02 -0.24667082825E+02  0.38991204513E+02  0.92151664633E+02  0.47000000000E+01 0.  1.
         11    1    4    4    0    0 -0.14018263141E+03 -0.20530199788E+03 -0.67421711430E+02  0.25757672188E+03  0.00000000000E+00 0. -1.
        -12    1    4    4    0    0  0.81341845086E+01 -0.59544943136E+01  0.57195801973E+01  0.11590278590E+02  0.00000000000E+00 0.  1.
</event>
<event>
12    1  0.9873238E-001  0.3101237E+03  0.7818608E-02  0.1080605E+00
         21   -1    0    0  503  502  0.00000000000E+00  0.00000000000E+00  0.66639416718E+03  0.66639416718E+03  0.00000000000E+00 0. -1.
         21   -1    0    0  501  503 -0.00000000000E+00 -0.00000000000E+00 -0.14404570762E+03  0.14404570762E+03  0.00000000000E+00 0. -1.
          6    2    1    2  501    0  0.20984134092E+03  0.14512307640E+03  0.29299925166E+03  0.42472267678E+03  0.17160039345E+03 0.  0.
         24    2    3    3    0    0  0.21496788814E+03  0.16439841888E+03  0.28802812253E+03  0.40363660462E+03  0.82001683906E+02 0.  0.
         -6    2    1    2    0  502 -0.20984134092E+03 -0.14512307640E+03  0.22934920789E+03  0.38571719802E+03  0.17630258655E+03 0.  0.
        -24    2    5    5    0    0 -0.60667086248E+02 -0.75985275575E+02  0.16929958613E+03  0.21061425449E+03  0.79004790182E+02 0.  0.
          5    1    3    3  501    0 -0.51265472153E+01 -0.19275342480E+02  0.49711291308E+01  0.21086072155E+02  0.47000000000E+01 0. -1.
        -13    1    4    4    0    0  0.10688158080E+03  0.56682753805E+02  0.77699732378E+02  0.14378405790E+03  0.00000000000E+00 0.  1.
         14    1    4    4    0    0  0.10808630733E+03  0.10771566508E+03  0.21032839015E+03  0.25985254673E+03  0.00000000000E+00 0. -1.
         -5    1    5    5    0  502 -0.14917425467E+03 -0.69137800828E+02  0.60049621767E+02  0.17510294354E+03  0.47000000000E+01 0.  1.
         11    1    6    6    0    0 -0.54931155607E+02 -0.18990124817E+02  0.12615878901E+03  0.13890319198E+03  0.00000000000E+00 0. -1.
        -12    1    6    6    0    0 -0.57359306408E+01 -0.56995150758E+02  0.43140797118E+02  0.71711062509E+02  0.00000000000E+00 0.  1.
</event>
<event>
12    1  0.9873238E-001  0.2474766E+03  0.7818608E-02  0.1115337E+00
         21   -1    0    0  501  502  0.00000000000E+00  0.00000000000E+00  0.52016319062E+02  0.52016319062E+02  0.00000000000E+00 0. -1.
         21   -1    0    0  502  503 -0.00000000000E+00 -0.00000000000E+00 -0.17462483262E+04  0.17462483262E+04  0.00000000000E+00 0. -1.
         -6    2    1    2    0  503 -0.16780839489E+03  0.52213544730E+02 -0.13689678255E+04  0.13911569154E+04  0.17423760843E+03 0.  0.
        -24    2    3    3    0    0 -0.17899038530E+03  0.42768985349E+02 -0.91030430713E+03  0.93223584402E+03  0.80888770347E+02 0.  0.
          6    2    1    2  501    0  0.16780839489E+03 -0.52213544730E+02 -0.32526418164E+03  0.40710772992E+03  0.17045235187E+03 0.  0.
         24    2    5    5    0    0  0.17126566225E+02 -0.11524415026E+02 -0.15252286403E+03  0.17425096800E+03  0.81694824706E+02 0.  0.
          5    1    5    5  501    0  0.15068182867E+03 -0.40689129704E+02 -0.17274131760E+03  0.23285676192E+03  0.47000000000E+01 0. -1.
        -11    1    6    6    0    0  0.48208001489E+02 -0.80606274685E+00 -0.66342044329E+02  0.82011755197E+02  0.00000000000E+00 0.  1.
         12    1    6    6    0    0 -0.31081435264E+02 -0.10718352279E+02 -0.86180819703E+02  0.92239212802E+02  0.00000000000E+00 0. -1.
         -5    1    3    3    0  503  0.11181990409E+02  0.94445593813E+01 -0.45866351839E+03  0.45892107133E+03  0.47000000000E+01 0.  1.
         13    1    4    4    0    0 -0.85910489701E+02 -0.37888093263E+01 -0.26529814818E+03  0.27888720793E+03  0.00000000000E+00 0. -1.
        -14    1    4    4    0    0 -0.93079895598E+02  0.46557794675E+02 -0.64500615895E+03  0.65334863610E+03  0.00000000000E+00 0.  1.
</event>
<event>
12    1  0.9873238E-001  0.1750647E+03  0.7818608E-02  0.1173187E+00
         21   -1    0    0  503  502  0.00000000000E+00  0.00000000000E+00  0.41680603322E+03  0.41680603322E+03  0.00000000000E+00 0. -1.
         21   -1    0    0  501  503 -0.00000000000E+00 -0.00000000000E+00 -0.80651958681E+02  0.80651958681E+02  0.00000000000E+00 0. -1.
          6    2    1    2  501    0  0.25732188931E+01 -0.37940502891E+02  0.88922598333E+02  0.19452064453E+03  0.16877484836E+03 0.  0.
         24    2    3    3    0    0  0.19250870036E+02  0.51024092361E+01  0.11494485164E+03  0.14132211072E+03  0.79768348873E+02 0.  0.
         -6    2    1    2    0  502 -0.25732188931E+01  0.37940502891E+02  0.24723147621E+03  0.30293734738E+03  0.17088455282E+03 0.  0.
        -24    2    5    5    0    0 -0.45062252716E+02  0.73903857811E+02  0.14906983836E+03  0.18999276788E+03  0.79893981742E+02 0.  0.
          5    1    3    3  501    0 -0.16677651142E+02 -0.43042912127E+02 -0.26022253311E+02  0.53198533809E+02  0.47000000000E+01 0. -1.
        -13    1    4    4    0    0  0.22634428354E+02 -0.25581284167E+02  0.16085726988E+02  0.37755397750E+02  0.00000000000E+00 0.  1.
         14    1    4    4    0    0 -0.33835583180E+01  0.30683693403E+02  0.98859124656E+02  0.10356671297E+03  0.00000000000E+00 0. -1.
         -5    1    5    5    0  502  0.42489033822E+02 -0.35963354920E+02  0.98161637855E+02  0.11294457950E+03  0.47000000000E+01 0.  1.
         11    1    6    6    0    0 -0.28503140220E+02 -0.92905153093E+01  0.21892970557E+02  0.37122026304E+02  0.00000000000E+00 0. -1.
        -12    1    6    6    0    0 -0.16559112495E+02  0.83194373120E+02  0.12717686780E+03  0.15287074157E+03  0.00000000000E+00 0.  1.
</event>
<event>
12    1  0.9873238E-001  0.2419769E+03  0.7818608E-02  0.1118623E+00
         21   -1    0    0  503  502  0.00000000000E+00  0.00000000000E+00  0.76639267278E+03  0.76639267278E+03  0.00000000000E+00 0.  1.
         21   -1    0    0  501  503 -0.00000000000E+00 -0.00000000000E+00 -0.94790664573E+02  0.94790664573E+02  0.00000000000E+00 0. -1.
          6    2    1    2  501    0  0.15594636644E+02  0.16973778783E+03  0.52730769689E+03  0.58017777502E+03  0.17175195522E+03 0.  0.
         24    2    3    3    0    0  0.23447342268E+01  0.46311629717E+02  0.10640757276E+03  0.14132861995E+03  0.80628422095E+02 0.  0.
         -6    2    1    2    0  502 -0.15594636644E+02 -0.16973778783E+03  0.14429431132E+03  0.28100556233E+03  0.17055547036E+03 0.  0.
        -24    2    5    5    0    0  0.48649505778E+02 -0.67143814850E+02  0.97850355112E+02  0.15126750239E+03  0.80200367826E+02 0.  0.
          5    1    3    3  501    0  0.13249902417E+02  0.12342615812E+03  0.42090012413E+03  0.43884915508E+03  0.47000000000E+01 0. -1.
        -11    1    4    4    0    0  0.45453809744E+01  0.23452543627E+02  0.11451084329E+03  0.11697613227E+03  0.00000000000E+00 0.  1.
         12    1    4    4    0    0 -0.22006467475E+01  0.22859086090E+02 -0.81032705223E+01  0.24352487679E+02  0.00000000000E+00 0. -1.
         -5    1    5    5    0  502 -0.64244142422E+02 -0.10259397298E+03  0.46443956205E+02  0.12973805994E+03  0.47000000000E+01 0.  1.
         13    1    6    6    0    0 -0.15701549406E+02  0.37075797941E+01  0.29605655069E+02  0.33716162501E+02  0.00000000000E+00 0. -1.
        -14    1    6    6    0    0  0.64351055185E+02 -0.70851394644E+02  0.68244700043E+02  0.11755133989E+03  0.00000000000E+00 0.  1.
</event>
<event>
12    1  0.9873238E-001  0.2512120E+03  0.7818608E-02  0.1112965E+00
         21   -1    0    0  501  502  0.00000000000E+00  0.00000000000E+00  0.35463009919E+04  0.35463009919E+04  0.00000000000E+00 0. -1.
         21   -1    0    0  502  503 -0.00000000000E+00 -0.00000000000E+00 -0.17628074325E+02  0.17628074325E+02  0.00000000000E+00 0. -1.
         -6    2    1    2    0  503 -0.55655613219E+02  0.17432178577E+03  0.18373777176E+04  0.18544714479E+04  0.17210996917E+03 0.  0.
        -24    2    3    3    0    0 -0.79689350356E+02  0.15475794941E+03  0.11563012081E+04  0.11726740688E+04  0.88496171913E+02 0.  0.
          6    2    1    2  501    0  0.55655613219E+02 -0.17432178577E+03  0.16912952000E+04  0.17094576184E+04  0.16816736687E+03 0.  0.
         24    2    5    5    0    0  0.44127708652E+02 -0.17370603924E+03  0.16827497734E+04  0.16943451718E+04  0.83891110122E+02 0.  0.
          5    1    5    5  501    0  0.11527904567E+02 -0.61574653162E+00  0.85454265258E+01  0.15112446592E+02  0.47000000000E+01 0. -1.
        -13    1    6    6    0    0  0.14545381430E+02 -0.15733802447E+03  0.11911845585E+04  0.12016186893E+04  0.00000000000E+00 0.  1.
         14    1    6    6    0    0  0.29582327221E+02 -0.16368014770E+02  0.49156521495E+03  0.49272648248E+03  0.00000000000E+00 0. -1.
         -5    1    3    3    0  503  0.24033737138E+02  0.19563836357E+02  0.68107650956E+03  0.68179737905E+03  0.47000000000E+01 0.  1.
         11    1    4    4    0    0 -0.45025976382E+02  0.20516455545E+02  0.18396455043E+03  0.19050254411E+03  0.00000000000E+00 0. -1.
        -12    1    4    4    0    0 -0.34663373974E+02  0.13424149387E+03  0.97233665762E+03  0.98217152469E+03  0.00000000000E+00 0.  1.
</event>
<event>
12    1  0.9873238E-001  0.2659420E+03  0.7818608E-02  0.1103748E+00
         21   -1    0    0  503  502  0.00000000000E+00  0.00000000000E+00  0.61429649731E+03  0.61429649731E+03  0.00000000000E+00 0.  1.
         21   -1    0    0  501  503 -0.00000000000E+00 -0.00000000000E+00 -0.12055462492E+03  0.12055462492E+03  0.00000000000E+00 0.  1.
          6    2    1    2  501    0 -0.12998400370E+03 -0.15514326893E+03  0.16674241641E+03  0.31389197562E+03  0.17251047451E+03 0.  0.
         24    2    3    3    0    0 -0.13896599429E+03 -0.10878496793E+03  0.17815198831E+03  0.26508586373E+03  0.85945723536E+02 0.  0.
         -6    2    1    2    0  502  0.12998400370E+03  0.15514326893E+03  0.32699945598E+03  0.42095914660E+03  0.17120947341E+03 0.  0.
        -24    2    5    5    0    0  0.10386430311E+03  0.12628467627E+03  0.13893980187E+03  0.22885609968E+03  0.79594176291E+02 0.  0.
          5    1    3    3  501    0  0.89819905956E+01 -0.46358301002E+02 -0.11409571901E+02  0.48806111890E+02  0.47000000000E+01 0. -1.
        -11    1    4    4    0    0 -0.10742035768E+03 -0.79235438886E+02  0.74689031281E+02  0.15295698550E+03  0.00000000000E+00 0.  1.
         12    1    4    4    0    0 -0.31545636609E+02 -0.29549529043E+02  0.10346295703E+03  0.11212887823E+03  0.00000000000E+00 0. -1.
         -5    1    5    5    0  502  0.26119700588E+02  0.28858592660E+02  0.18805965412E+03  0.19210304692E+03  0.47000000000E+01 0.  1.
         11    1    6    6    0    0  0.85387294737E+02  0.63596966377E+02  0.12081852239E+03  0.16103626792E+03  0.00000000000E+00 0. -1.
        -12    1    6    6    0    0  0.18477008372E+02  0.62687709894E+02  0.18121279477E+02  0.67819831760E+02  0.00000000000E+00 0.  1.
</event>
<event>
12    1  0.9873238E-001  0.2785115E+03  0.7818608E-02  0.1096524E+00
         21   -1    0    0  501  502  0.00000000000E+00  0.00000000000E+00  0.51334238059E+03  0.51334238059E+03  0.00000000000E+00 0. -1.
         21   -1    0    0  502  503 -0.00000000000E+00 -0.00000000000E+00 -0.21640183974E+03  0.21640183974E+03  0.00000000000E+00 0. -1.
         -6    2    1    2    0  503  0.21246726767E+03  0.52539490755E+02 -0.52102142938E+02  0.28320257160E+03  0.17200675959E+03 0.  0.
        -24    2    3    3    0    0  0.17508332871E+03  0.84809716349E+02  0.81173165042E+00  0.21067054781E+03  0.80836630474E+02 0.  0.
          6    2    1    2  501    0 -0.21246726767E+03 -0.52539490755E+02  0.34904268378E+03  0.44654164873E+03  0.17223794886E+03 0.  0.
         24    2    5    5    0    0 -0.16602929940E+03  0.18063202927E+02  0.28997744161E+03  0.34333303433E+03  0.76802657922E+02 0.  0.
          5    1    5    5  501    0 -0.46437968264E+02 -0.70602693682E+02  0.59065242176E+02  0.10320861439E+03  0.47000000000E+01 0. -1.
        -11    1    6    6    0    0 -0.10987629028E+03 -0.24763173319E+02  0.19116886367E+03  0.22188183422E+03  0.00000000000E+00 0.  1.
         12    1    6    6    0    0 -0.56153009119E+02  0.42826376246E+02  0.98808577934E+02  0.12145120011E+03  0.00000000000E+00 0. -1.
         -5    1    3    3    0  503  0.37383938961E+02 -0.32270225594E+02 -0.52913874588E+02  0.72532023797E+02  0.47000000000E+01 0.  1.
         11    1    4    4    0    0  0.46948241485E+02  0.64278598004E+02 -0.11043415349E+02  0.80360640630E+02  0.00000000000E+00 0. -1.
        -12    1    4    4    0    0  0.12813508722E+03  0.20531118345E+02  0.11855146999E+02  0.13030990718E+03  0.00000000000E+00 0.  1.
</event>
<event>
12    1  0.9873238E-001  0.2079712E+03  0.7818608E-02  0.1147170E+00
         21   -1    0    0  501  502  0.00000000000E+00  0.00000000000E+00  0.29386204490E+03  0.29386204490E+03  0.00000000000E+00 0. -1.
         21   -1    0    0  502  503 -0.00000000000E+00 -0.00000000000E+00 -0.15210267919E+03  0.15210267919E+03  0.00000000000E+00 0. -1.
         -6    2    1    2    0  503  0.37966907418E+02  0.89154700763E+02  0.15046904757E+03  0.25669626866E+03  0.18401628553E+03 0.  0.
        -24    2    3    3    0    0 -0.40613798182E+02  0.52866893400E+02  0.13128483613E+03  0.16791644987E+03  0.80720734131E+02 0.  0.
          6    2    1    2  501    0 -0.37966907418E+02 -0.89154700763E+02 -0.87096818630E+01  0.18926845543E+03  0.16234729112E+03 0.  0.
         24    2    5    5    0    0 -0.23336215339E+02 -0.19762523368E+00 -0.38778526032E+02  0.94117817874E+02  0.82521340016E+02 0.  0.
          5    1    5    5  501    0 -0.14630692079E+02 -0.88957075529E+02  0.30068844169E+02  0.95150637555E+02  0.47000000000E+01 0. -1.
        -13    1    6    6    0    0  0.29316469159E+02 -0.25395025324E+01 -0.13165296003E+01  0.29455690235E+02  0.00000000000E+00 0.  1.
         14    1    6    6    0    0 -0.52652684498E+02  0.23418772988E+01 -0.37461996432E+02  0.64662127639E+02  0.00000000000E+00 0. -1.
         -5    1    3    3    0  503  0.78580705600E+02  0.36287807363E+02  0.19184211434E+02  0.88779818788E+02  0.47000000000E+01 0.  1.
         13    1    4    4    0    0 -0.38434416935E+02 -0.25952596481E+01  0.92507432799E+02  0.10020760900E+03  0.00000000000E+00 0. -1.
        -14    1    4    4    0    0 -0.21793812471E+01  0.55462153048E+02  0.38777403334E+02  0.67708840875E+02  0.00000000000E+00 0.  1.
</event>
<event>
12    1  0.9873238E-001  0.2598327E+03  0.7818608E-02  0.1107564E+00
         21   -1    0    0  501  502  0.00000000000E+00  0.00000000000E+00  0.52634569338E+03  0.52634569338E+03  0.00000000000E+00 0. -1.
         21   -1    0    0  502  503 -0.00000000000E+00 -0.00000000000E+00 -0.13320230369E+03  0.13320230369E+03  0.00000000000E+00 0.  1.
         -6    2    1    2    0  503  0.17821803347E+03 -0.77286831799E+02  0.12747189398E+03  0.28941687376E+03  0.17256338325E+03 0.  0.
        -24    2    3    3    0    0  0.13743978043E+03  0.13381439720E+02  0.91053761025E+02  0.18343587646E+03  0.79304332801E+02 0.  0.
          6    2    1    2  501    0 -0.17821803347E+03  0.77286831799E+02  0.26567149571E+03  0.37013112331E+03  0.16935401674E+03 0.  0.
         24    2    5    5    0    0 -0.17169847794E+03  0.11335798019E+03  0.23217728548E+03  0.32025543314E+03  0.79541508429E+02 0.  0.
          5    1    5    5  501    0 -0.65195555239E+01 -0.36071148393E+02  0.33494210224E+02  0.49875690162E+02  0.47000000000E+01 0. -1.
        -11    1    6    6    0    0 -0.39003511655E+02  0.34693636487E+02  0.11579576676E+03  0.12701803783E+03  0.00000000000E+00 0.  1.
         12    1    6    6    0    0 -0.13269496629E+03  0.78664343705E+02  0.11638151872E+03  0.19323739532E+03  0.00000000000E+00 0. -1.
         -5    1    3    3    0  503  0.40778253033E+02 -0.90668271519E+02  0.36418132955E+02  0.10598099730E+03  0.47000000000E+01 0.  1.
         11    1    4    4    0    0  0.98393607216E+02  0.94278816750E+00  0.18519175560E+02  0.10012567430E+03  0.00000000000E+00 0. -1.
        -12    1    4    4    0    0  0.39046173218E+02  0.12438651552E+02  0.72534585465E+02  0.83310202161E+02  0.00000000000E+00 0.  1.
</event>
<event>
12    1  0.9873238E-001  0.3142901E+03  0.7818608E-02  0.1078357E+00
         21   -1    0    0  501  502  0.00000000000E+00  0.00000000000E+00  0.21471640481E+03  0.21471640481E+03  0.00000000000E+00 0. -1.
         21   -1    0    0  502  503 -0.00000000000E+00 -0.00000000000E+00 -0.46260090713E+03  0.46260090713E+03  0.00000000000E+00 0. -1.
         -6    2    1    2    0  503 -0.15672481207E+03 -0.21058284716E+03 -0.15207411752E+03  0.34914870773E+03  0.17283078619E+03 0.  0.
        -24    2    3    3    0    0 -0.86379735318E+02 -0.48923096429E+02 -0.19046209430E+02  0.12823963331E+03  0.78915888269E+02 0.  0.
          6    2    1    2  501    0  0.15672481207E+03  0.21058284716E+03 -0.95810384803E+02  0.32816860421E+03  0.17206743073E+03 0.  0.
         24    2    5    5    0    0  0.10164889569E+03  0.18562402227E+03 -0.12849214930E+02  0.22540214465E+03  0.76499992465E+02 0.  0.
          5    1    5    5  501    0  0.55075916379E+02  0.24958824888E+02 -0.82961169872E+02  0.10276645956E+03  0.47000000000E+01 0. -1.
        -13    1    6    6    0    0  0.68193444554E+02  0.55671001175E+02  0.12264208395E+02  0.88882040141E+02  0.00000000000E+00 0.  1.
         14    1    6    6    0    0  0.33455451136E+02  0.12995302110E+03 -0.25113423325E+02  0.13652010450E+03  0.00000000000E+00 0. -1.
         -5    1    3    3    0  503 -0.70345076752E+02 -0.16165975073E+03 -0.13302790809E+03  0.22090907442E+03  0.47000000000E+01 0.  1.
         13    1    4    4    0    0  0.90355281762E+01 -0.99078817996E+01  0.14581291454E+02  0.19809617655E+02  0.00000000000E+00 0. -1.
        -14    1    4    4    0    0 -0.95415263494E+02 -0.39015214630E+02 -0.33627500884E+02  0.10843001566E+03  0.00000000000E+00 0.  1.
</event>
<event>
12    1  0.9873238E-001  0.2049438E+03  0.7818608E-02  0.1145686E+00
         21   -1    0    0  503  502  0.00000000000E+00  0.00000000000E+00  0.16312181919E+03  0.16312181919E+03  0.00000000000E+00 0.  1.
         21   -1    0    0  501  503 -0.00000000000E+00 -0.00000000000E+00 -0.26313758372E+03  0.26313758372E+03  0.00000000000E+00 0.  1.
          6    2    1    2  501    0 -0.30822432004E+02  0.10592372954E+03 -0.82145451280E+02  0.22079368892E+03  0.17271977046E+03 0.  0.
         24    2    3    3    0    0  0.32410978988E+02  0.75527170273E+02 -0.95004807473E+02  0.14931034735E+03  0.80702177005E+02 0.  0.
         -6    2    1    2    0  502  0.30822432004E+02 -0.10592372954E+03 -0.17870313248E+02  0.20546571398E+03  0.17241505947E+03 0.  0.
        -24    2    5    5    0    0  0.77420646592E+02 -0.97973128415E+02 -0.38246504128E+02  0.15377543621E+03  0.81187433105E+02 0.  0.
          5    1    3    3  501    0 -0.63233410992E+02  0.30396559269E+02  0.12859356192E+02  0.71483341576E+02  0.47000000000E+01 0. -1.
        -11    1    4    4    0    0  0.59016727730E+01  0.44125050501E+01  0.14389751763E+02  0.16166783791E+02  0.00000000000E+00 0.  1.
         12    1    4    4    0    0  0.26509306215E+02  0.71114665223E+02 -0.10939455924E+03  0.13314356356E+03  0.00000000000E+00 0. -1.
         -5    1    5    5    0  502 -0.46598214588E+02 -0.79506011270E+01  0.20376190879E+02  0.51690277769E+02  0.47000000000E+01 0.  1.
         13    1    6    6    0    0  0.13422479034E+02  0.29667905418E+01 -0.31148009180E+02  0.34046486830E+02  0.00000000000E+00 0. -1.
        -14    1    6    6    0    0  0.63998167558E+02 -0.10093991896E+03 -0.70984949473E+01  0.11972894938E+03  0.00000000000E+00 0.  1.
</event>
<event>
12    1  0.9873238E-001  0.1786693E+03  0.7818608E-02  0.1170108E+00
         21   -1    0    0  503  502  0.00000000000E+00  0.00000000000E+00  0.84735626696E+03  0.84735626696E+03  0.00000000000E+00 0.  1.
         21   -1    0    0  501  503 -0.00000000000E+00 -0.00000000000E+00 -0.44433819972E+02  0.44433819972E+02  0.00000000000E+00 0.  1.
          6    2    1    2  501    0 -0.24485478654E+02  0.20059983401E+02  0.58991418923E+03  0.61637770831E+03  0.17584307509E+03 0.  0.
         24    2    3    3    0    0 -0.77229131357E+02 -0.16627267143E+02  0.34944823445E+03  0.36743230736E+03  0.81557508454E+02 0.  0.
         -6    2    1    2    0  502  0.24485478654E+02 -0.20059983401E+02  0.21300825776E+03  0.27541237862E+03  0.17169018266E+03 0.  0.
        -24    2    5    5    0    0 -0.31666310082E+01  0.38163866715E+02  0.18404615309E+03  0.20459183500E+03  0.80736139412E+02 0.  0.
          5    1    3    3  501    0  0.52743652702E+02  0.36687250543E+02  0.24046595477E+03  0.24894540096E+03  0.47000000000E+01 0. -1.
        -11    1    4    4    0    0 -0.11842202901E+02 -0.34917756548E+02  0.19880126026E+03  0.20219156405E+03  0.00000000000E+00 0.  1.
         12    1    4    4    0    0 -0.65386928456E+02  0.18290489406E+02  0.15064697420E+03  0.16524074331E+03  0.00000000000E+00 0. -1.
         -5    1    5    5    0  502  0.27652109663E+02 -0.58223850115E+02  0.28962104673E+02  0.70820543617E+02  0.47000000000E+01 0.  1.
         11    1    6    6    0    0  0.35921601683E+02  0.19686981087E+02  0.55570298200E+02  0.69036198721E+02  0.00000000000E+00 0. -1.
        -12    1    6    6    0    0 -0.39088232691E+02  0.18476885627E+02  0.12847585489E+03  0.13555563628E+03  0.00000000000E+00 0.  1.
</event>
<event>
12    1  0.9873238E-001  0.2943783E+03  0.7818608E-02  0.1088367E+00
         21   -1    0    0  503  502  0.00000000000E+00  0.00000000000E+00  0.10426162006E+04  0.10426162006E+04  0.00000000000E+00 0. -1.
         21   -1    0    0  501  503 -0.00000000000E+00 -0.00000000000E+00 -0.39678091267E+03  0.39678091267E+03  0.00000000000E+00 0. -1.
          6    2    1    2  501    0  0.16664629376E+03 -0.17194800939E+03 -0.31785601651E+03  0.43174662620E+03  0.16743833743E+03 0.  0.
         24    2    3    3    0    0  0.27435349788E+02 -0.12218588157E+03 -0.15116840483E+03  0.20889509227E+03  0.71436579432E+02 0.  0.
         -6    2    1    2    0  502 -0.16664629376E+03  0.17194800939E+03  0.96369130441E+03  0.10076504870E+04  0.17123512688E+03 0.  0.
        -24    2    5    5    0    0 -0.54038864953E+02  0.10324764580E+02  0.29179842613E+03  0.30746148672E+03  0.79746126144E+02 0.  0.
          5    1    3    3  501    0  0.13921094397E+03 -0.49762127823E+02 -0.16668761168E+03  0.22285153393E+03  0.47000000000E+01 0. -1.
        -11    1    4    4    0    0  0.39861822408E+02 -0.12502507875E+03 -0.14073458614E+03  0.19242260506E+03  0.00000000000E+00 0.  1.
         12    1    4    4    0    0 -0.12426472620E+02  0.28391971755E+01 -0.10433818687E+02  0.16472487207E+02  0.00000000000E+00 0. -1.
         -5    1    5    5    0  502 -0.11260742881E+03  0.16162324481E+03  0.67189287828E+03  0.70018900032E+03  0.47000000000E+01 0.  1.
         11    1    6    6    0    0 -0.64565407605E+02  0.16696518016E+01  0.13069738964E+03  0.14578507212E+03  0.00000000000E+00 0. -1.
        -12    1    6    6    0    0  0.10526542652E+02  0.86551127786E+01  0.16110103650E+03  0.16167641460E+03  0.00000000000E+00 0.  1.
</event>
<event>
12    1  0.9873238E-001  0.4150034E+03  0.7818608E-02  0.1038716E+00
         21   -1    0    0  501  502  0.00000000000E+00  0.00000000000E+00  0.12884145213E+03  0.12884145213E+03  0.00000000000E+00 0. -1.
         21   -1    0    0  502  503 -0.00000000000E+00 -0.00000000000E+00 -0.15826207760E+04  0.15826207760E+04  0.00000000000E+00 0. -1.
         -6    2    1    2    0  503  0.12350231863E+02  0.37763477916E+03 -0.38940403795E+03  0.56908991526E+03  0.17166033968E+03 0.  0.
        -24    2    3    3    0    0 -0.27070025497E+02  0.88664905384E+02 -0.98570846920E+02  0.15718752434E+03  0.79984087282E+02 0.  0.
          6    2    1    2  501    0 -0.12350231863E+02 -0.37763477916E+03 -0.10643752859E+04  0.11423723129E+04  0.17134525748E+03 0.  0.
         24    2    5    5    0    0  0.58631648537E+02 -0.18800630566E+03 -0.55842999188E+03  0.59739514282E+03  0.79075025481E+02 0.  0.
          5    1    5    5  501    0 -0.70981880400E+02 -0.18962847351E+03 -0.50594529405E+03  0.54497717006E+03  0.47000000000E+01 0. -1.
        -11    1    6    6    0    0  0.21020184887E+02 -0.10393188864E+03 -0.18957785316E+03  0.21721751323E+03  0.00000000000E+00 0.  1.
         12    1    6    6    0    0  0.37611463650E+02 -0.84074417020E+02 -0.36885213872E+03  0.38017762959E+03  0.00000000000E+00 0. -1.
         -5    1    3    3    0  503  0.39420257360E+02  0.28896987378E+03 -0.29083319103E+03  0.41190239092E+03  0.47000000000E+01 0.  1.
         13    1    4    4    0    0 -0.42920170349E+02  0.72043168700E+02 -0.37351067327E+02  0.91801205927E+02  0.00000000000E+00 0. -1.
        -14    1    4    4    0    0  0.15850144852E+02  0.16621736684E+02 -0.61219779593E+02  0.65386318413E+02  0.00000000000E+00 0.  1.
</event>
<event>
12    1  0.9873238E-001  0.2321857E+03  0.7818608E-02  0.1125501E+00
         21   -1    0    0  503  502  0.00000000000E+00  0.00000000000E+00  0.10587057956E+04  0.10587057956E+04  0.00000000000E+00 0.  1.
         21   -1    0    0  501  503 -0.00000000000E+00 -0.00000000000E+00 -0.54574087303E+02  0.54574087303E+02  0.00000000000E+00 0. -1.
          6    2    1    2  501    0  0.13739230814E+03  0.66000590886E+02  0.34646234772E+03  0.41582795722E+03  0.17217435140E+03 0.  0.
         24    2    3    3    0    0  0.10211534092E+03 -0.23198887132E+02  0.17029097579E+03  0.21518037168E+03  0.79610581615E+02 0.  0.
         -6    2    1    2    0  502 -0.13739230814E+03 -0.66000590886E+02  0.65766936052E+03  0.69745192563E+03  0.17514986858E+03 0.  0.
        -24    2    5    5    0    0 -0.10394333007E+03 -0.67697472258E+02  0.64444898025E+03  0.66113964128E+03  0.80024830593E+02 0.  0.
          5    1    3    3  501    0  0.35276967226E+02  0.89199478017E+02  0.17617137193E+03  0.20064758554E+03  0.47000000000E+01 0. -1.
        -11    1    4    4    0    0 -0.90960813251E+01  0.54438909925E+01  0.10475635559E+01  0.10652325287E+02  0.00000000000E+00 0.  1.
         12    1    4    4    0    0  0.11121142224E+03 -0.28642778124E+02  0.16924341224E+03  0.20452804639E+03  0.00000000000E+00 0. -1.
         -5    1    5    5    0  502 -0.33448978073E+02  0.16968813727E+01  0.13220380278E+02  0.36312284357E+02  0.47000000000E+01 0.  1.
         13    1    6    6    0    0 -0.49391851205E+02 -0.74095890624E+02  0.32385676184E+03  0.33587640310E+03  0.00000000000E+00 0. -1.
        -14    1    6    6    0    0 -0.54551478864E+02  0.63984183658E+01  0.32059221841E+03  0.32526323817E+03  0.00000000000E+00 0.  1.
</event>
<event>
12    1  0.9873238E-001  0.1902163E+03  0.7818608E-02  0.1158331E+00
         21   -1    0    0  503  502  0.00000000000E+00  0.00000000000E+00  0.52683794214E+02  0.52683794214E+02  0.00000000000E+00 0. -1.
         21   -1    0    0  501  503 -0.00000000000E+00 -0.00000000000E+00 -0.85264010981E+03  0.85264010981E+03  0.00000000000E+00 0. -1.
          6    2    1    2  501    0  0.23902347549E+02 -0.75250654388E+02 -0.19995488117E+03  0.27597859622E+03  0.17305562072E+03 0.  0.
         24    2    3    3    0    0  0.45105285475E+02 -0.11350224689E+03 -0.14853844385E+03  0.20831406391E+03  0.80086410187E+02 0.  0.
         -6    2    1    2    0  502 -0.23902347549E+02  0.75250654388E+02 -0.60000143442E+03  0.62934530780E+03  0.17274203871E+03 0.  0.
        -24    2    5    5    0    0  0.24565537349E+02  0.97240988358E+02 -0.32482855702E+03  0.34903313697E+03  0.79064934134E+02 0.  0.
          5    1    3    3  501    0 -0.21202937926E+02  0.38251592500E+02 -0.51416437328E+02  0.67664532312E+02  0.47000000000E+01 0. -1.
        -11    1    4    4    0    0 -0.13243057302E+02 -0.74185741466E+02 -0.83848739305E+02  0.11273647984E+03  0.00000000000E+00 0.  1.
         12    1    4    4    0    0  0.58348342777E+02 -0.39316505422E+02 -0.64689704541E+02  0.95577584072E+02  0.00000000000E+00 0. -1.
         -5    1    5    5    0  502 -0.48467884898E+02 -0.21990333970E+02 -0.27517287741E+03  0.28031217083E+03  0.47000000000E+01 0.  1.
         11    1    6    6    0    0  0.47112525719E+02  0.30699173156E+02 -0.12080138634E+03  0.13324790525E+03  0.00000000000E+00 0. -1.
        -12    1    6    6    0    0 -0.22546988370E+02  0.66541815202E+02 -0.20402717068E+03  0.21578523172E+03  0.00000000000E+00 0.  1.
</event>
<event>
12    1  0.9873238E-001  0.1833947E+03  0.7818608E-02  0.1164720E+00
         21   -1    0    0  503  502  0.00000000000E+00  0.00000000000E+00  0.17753724114E+03  0.17753724114E+03  0.00000000000E+00 0. -1.
         21   -1    0    0  501  503 -0.00000000000E+00 -0.00000000000E+00 -0.19203990650E+03  0.19203990650E+03  0.00000000000E+00 0. -1.
          6    2    1    2  501    0 -0.52832066301E+02  0.34869340603E+02 -0.31470504900E+02  0.18539921396E+03  0.17139246691E+03 0.  0.
         24    2    3    3    0    0 -0.25547509280E+01 -0.33550013419E+02  0.15453193865E+02  0.88275890543E+02  0.80135519577E+02 0.  0.
         -6    2    1    2    0  502  0.52832066301E+02 -0.34869340603E+02  0.16967839542E+02  0.18417793367E+03  0.17212351824E+03 0.  0.
        -24    2    5    5    0    0  0.44507549973E+02 -0.89137169979E+02  0.90550855100E+01  0.12850930199E+03  0.80661571073E+02 0.  0.
          5    1    3    3  501    0 -0.50277315373E+02  0.68419354021E+02 -0.46923698765E+02  0.97123323417E+02  0.47000000000E+01 0. -1.
        -13    1    4    4    0    0  0.25902491978E+02  0.13693859119E+02 -0.44632120685E+01  0.29637495344E+02  0.00000000000E+00 0.  1.
         14    1    4    4    0    0 -0.28457242906E+02 -0.47243872538E+02  0.19916405933E+02  0.58638395199E+02  0.00000000000E+00 0. -1.
         -5    1    5    5    0  502  0.83245163283E+01  0.54267829376E+02  0.79127540318E+01  0.55668631685E+02  0.47000000000E+01 0.  1.
         13    1    6    6    0    0  0.26697903937E+02 -0.22529859779E+02 -0.32744634651E+02  0.47880933102E+02  0.00000000000E+00 0. -1.
        -14    1    6    6    0    0  0.17809646035E+02 -0.66607310200E+02  0.41799720161E+02  0.80628368888E+02  0.00000000000E+00 0.  1.
</event>
<event>
12    1  0.9873238E-001  0.1989910E+03  0.7818608E-02  0.1151525E+00
         21   -1    0    0  503  502  0.00000000000E+00  0.00000000000E+00  0.23025248765E+03  0.23025248765E+03  0.00000000000E+00 0. -1.
         21   -1    0    0  501  503 -0.00000000000E+00 -0.00000000000E+00 -0.17044294929E+03  0.17044294929E+03  0.00000000000E+00 0. -1.
          6    2    1    2  501    0  0.74067931716E+02  0.66111605095E+02  0.52330618318E+02  0.20156394563E+03  0.16742976954E+03 0.  0.
         24    2    3    3    0    0 -0.14763949141E+02  0.64504706546E+02  0.14857659684E+02  0.10502380990E+03  0.80189894831E+02 0.  0.
         -6    2    1    2    0  502 -0.74067931716E+02 -0.66111605095E+02  0.74789200432E+01  0.19913149130E+03  0.17245467157E+03 0.  0.
        -24    2    5    5    0    0 -0.15942982228E+02 -0.67207744024E+02  0.59426905322E+02  0.12102646939E+03  0.79654188076E+02 0.  0.
          5    1    3    3  501    0  0.88831880856E+02  0.16068985491E+01  0.37472958634E+02  0.96540135737E+02  0.47000000000E+01 0. -1.
        -11    1    4    4    0    0 -0.27885276056E+02  0.81529664309E+01 -0.21982198046E+02  0.36431806342E+02  0.00000000000E+00 0.  1.
         12    1    4    4    0    0  0.13121326916E+02  0.56351740115E+02  0.36839857730E+02  0.68592003554E+02  0.00000000000E+00 0. -1.
         -5    1    5    5    0  502 -0.58124949488E+02  0.10961389292E+01 -0.51947985279E+02  0.78105021913E+02  0.47000000000E+01 0.  1.
         13    1    6    6    0    0 -0.10772891920E+02  0.48266708737E+01 -0.13811914881E+02  0.18169230714E+02  0.00000000000E+00 0. -1.
        -14    1    6    6    0    0 -0.51700903079E+01 -0.72034414898E+02  0.73238820203E+02  0.10285723868E+03  0.00000000000E+00 0.  1.
</event>
<event>
12    1  0.9873238E-001  0.2394343E+03  0.7818608E-02  0.1120445E+00
         21   -1    0    0  503  502  0.00000000000E+00  0.00000000000E+00  0.10217554017E+03  0.10217554017E+03  0.00000000000E+00 0.  1.
         21   -1    0    0  501  503 -0.00000000000E+00 -0.00000000000E+00 -0.63770799546E+03  0.63770799546E+03  0.00000000000E+00 0.  1.
          6    2    1    2  501    0  0.13133221650E+03  0.10034670982E+03 -0.13716804176E+03  0.27594177865E+03  0.17323735239E+03 0.  0.
         24    2    3    3    0    0  0.46984505795E+02  0.55247489680E+02 -0.14464420335E+03  0.17988732040E+03  0.78598177939E+02 0.  0.
         -6    2    1    2    0  502 -0.13133221650E+03 -0.10034670982E+03 -0.39836441353E+03  0.46394175698E+03  0.17096822698E+03 0.  0.
        -24    2    5    5    0    0 -0.10040669155E+03 -0.80818319498E+02 -0.40035617353E+03  0.42701205037E+03  0.73763954635E+02 0.  0.
          5    1    3    3  501    0  0.84347710703E+02  0.45099220139E+02  0.74761615957E+01  0.96054458252E+02  0.47000000000E+01 0. -1.
        -13    1    4    4    0    0  0.18690295644E+02 -0.19292238131E+02 -0.30314664562E+02  0.40503042983E+02  0.00000000000E+00 0.  1.
         14    1    4    4    0    0  0.28294210151E+02  0.74539727810E+02 -0.11432953879E+03  0.13938427741E+03  0.00000000000E+00 0. -1.
         -5    1    5    5    0  502 -0.30925524953E+02 -0.19528390321E+02  0.19917600000E+01  0.36929706607E+02  0.47000000000E+01 0.  1.
         13    1    6    6    0    0 -0.15230054115E+02 -0.51631796206E+02 -0.10155760539E+03  0.11494235138E+03  0.00000000000E+00 0. -1.
        -14    1    6    6    0    0 -0.85176637430E+02 -0.29186523291E+02 -0.29879856814E+03  0.31206969899E+03  0.00000000000E+00 0.  1.
</event>
<event>
12    1  0.9873238E-001  0.1773261E+03  0.7818608E-02  0.1170736E+00
         21   -1    0    0  503  502  0.00000000000E+00  0.00000000000E+00  0.42000188684E+03  0.42000188684E+03  0.00000000000E+00 0.  1.
         21   -1    0    0  501  503 -0.00000000000E+00 -0.00000000000E+00 -0.74423084729E+02  0.74423084729E+02  0.00000000000E+00 0.  1.
          6    2    1    2  501    0 -0.32288626416E+02  0.20942020154E+02  0.18117544813E+03  0.25261304582E+03  0.17177800880E+03 0.  0.
         24    2    3    3    0    0  0.39106890655E+02 -0.28593369750E+02  0.10818258497E+03  0.13902993623E+03  0.72656188915E+02 0.  0.
         -6    2    1    2    0  502  0.32288626416E+02 -0.20942020154E+02  0.16440335398E+03  0.24181192575E+03  0.17309945416E+03 0.  0.
        -24    2    5    5    0    0  0.42216228522E+02  0.52047438595E+02  0.94635056137E+02  0.14024557425E+03  0.78878903598E+02 0.  0.
          5    1    3    3  501    0 -0.71395517071E+02  0.49535389904E+02  0.72992863157E+02  0.11358310958E+03  0.47000000000E+01 0. -1.
        -11    1    4    4    0    0 -0.11075528083E+02 -0.35022684004E+02  0.45130916511E+02  0.58189821638E+02  0.00000000000E+00 0.  1.
         12    1    4    4    0    0  0.50182418738E+02  0.64293142543E+01  0.63051668461E+02  0.80840114596E+02  0.00000000000E+00 0. -1.
         -5    1    5    5    0  502 -0.99276021056E+01 -0.72989458749E+02  0.69768297844E+02  0.10156635150E+03  0.47000000000E+01 0.  1.
         13    1    6    6    0    0  0.56368719586E+02  0.77421464319E+01  0.49072208106E+02  0.75136242836E+02  0.00000000000E+00 0. -1.
        -14    1    6    6    0    0 -0.14152491064E+02  0.44305292163E+02  0.45562848031E+02  0.65109331418E+02  0.00000000000E+00 0.  1.
</event>
<event>
12    1  0.9873238E-001  0.1933788E+03  0.7818608E-02  0.1155504E+00
         21   -1    0    0  501  502  0.00000000000E+00  0.00000000000E+00  0.11632542911E+03  0.11632542911E+03  0.00000000000E+00 0. -1.
         21   -1    0    0  502  503 -0.00000000000E+00 -0.00000000000E+00 -0.36042559005E+03  0.36042559005E+03  0.00000000000E+00 0. -1.
         -6    2    1    2    0  503  0.79560476182E+02  0.32499647623E+02 -0.43335152099E+02  0.19817489745E+03  0.17323180455E+03 0.  0.
        -24    2    3    3    0    0  0.73666125177E+02 -0.31784038308E+02  0.10018975301E+02  0.11429469382E+03  0.80783501281E+02 0.  0.
          6    2    1    2  501    0 -0.79560476182E+02 -0.32499647623E+02 -0.20076500884E+03  0.27857612171E+03  0.17295077435E+03 0.  0.
         24    2    5    5    0    0 -0.70467248648E+02 -0.71526047679E+02 -0.20069160458E+03  0.23822959675E+03  0.79966317844E+02 0.  0.
          5    1    5    5  501    0 -0.90932275343E+01  0.39026400056E+02 -0.73404258989E-01  0.40346524962E+02  0.47000000000E+01 0. -1.
        -11    1    6    6    0    0 -0.72454812160E+02 -0.86317328504E+02 -0.16806621325E+03  0.20235274409E+03  0.00000000000E+00 0.  1.
         12    1    6    6    0    0  0.19875635121E+01  0.14791280825E+02 -0.32625391328E+02  0.35876852655E+02  0.00000000000E+00 0. -1.
         -5    1    3    3    0  503  0.58943510050E+01  0.64283685931E+02 -0.53354127400E+02  0.83880203632E+02  0.47000000000E+01 0.  1.
         11    1    4    4    0    0  0.77893142171E+01 -0.45651220856E+02  0.76021535514E+01  0.46930801402E+02  0.00000000000E+00 0. -1.
        -12    1    4    4    0    0  0.65876810960E+02  0.13867182548E+02  0.24168217499E+01  0.67363892416E+02  0.00000000000E+00 0.  1.
</event>
<event>
12    1  0.9873238E-001  0.4932698E+03  0.7818608E-02  0.1015558E+00
         21   -1    0    0  503  502  0.00000000000E+00  0.00000000000E+00  0.41945948688E+03  0.41945948688E+03  0.00000000000E+00 0. -1.
         21   -1    0    0  501  503 -0.00000000000E+00 -0.00000000000E+00 -0.71064383030E+03  0.71064383030E+03  0.00000000000E+00 0.  1.
          6    2    1    2  501    0  0.39352022350E+03  0.24315587901E+03  0.96754474113E+02  0.50255918268E+03  0.17094255187E+03 0.  0.
         24    2    3    3    0    0  0.11600926089E+03  0.10162193617E+03  0.59568548392E+02  0.18879322784E+03  0.91155386017E+02 0.  0.
         -6    2    1    2    0  502 -0.39352022350E+03 -0.24315587901E+03 -0.38793881753E+03  0.62754413449E+03  0.17126636209E+03 0.  0.
        -24    2    5    5    0    0 -0.17616713096E+03 -0.14432735046E+03 -0.26652036445E+03  0.35963747977E+03  0.80254408421E+02 0.  0.
          5    1    3    3  501    0  0.27751096261E+03  0.14153394284E+03  0.37185925722E+02  0.31376595484E+03  0.47000000000E+01 0. -1.
        -13    1    4    4    0    0  0.12909376634E+02  0.13366324345E+02 -0.23281061748E+02  0.29787891293E+02  0.00000000000E+00 0.  1.
         14    1    4    4    0    0  0.10309988425E+03  0.88255611824E+02  0.82849610139E+02  0.15900533655E+03  0.00000000000E+00 0. -1.
         -5    1    5    5    0  502 -0.21735309254E+03 -0.98828528547E+02 -0.12141845309E+03  0.26790665472E+03  0.47000000000E+01 0.  1.
         13    1    6    6    0    0 -0.78658512822E+02 -0.98335586668E+02 -0.97927388155E+02  0.15952060242E+03  0.00000000000E+00 0. -1.
        -14    1    6    6    0    0 -0.97508618133E+02 -0.45991763797E+02 -0.16859297629E+03  0.20011687735E+03  0.00000000000E+00 0.  1.
</event>
<event>
12    1  0.9873238E-001  0.3192502E+03  0.7818608E-02  0.1076052E+00
         21   -1    0    0  503  502  0.00000000000E+00  0.00000000000E+00  0.78130017721E+02  0.78130017721E+02  0.00000000000E+00 0.  1.
         21   -1    0    0  501  503 -0.00000000000E+00 -0.00000000000E+00 -0.14336637928E+04  0.14336637928E+04  0.00000000000E+00 0.  1.
          6    2    1    2  501    0  0.91228011313E+02 -0.25257001857E+03 -0.44864341040E+03  0.55035175787E+03  0.17173230145E+03 0.  0.
         24    2    3    3    0    0  0.24954183378E+02 -0.39270577308E+02 -0.16991796778E+03  0.19314196758E+03  0.79163213407E+02 0.  0.
         -6    2    1    2    0  502 -0.91228011313E+02  0.25257001857E+03 -0.90689036466E+03  0.96144205264E+03  0.17264565659E+03 0.  0.
        -24    2    5    5    0    0 -0.13191987837E+03  0.20686756860E+03 -0.73630186746E+03  0.78014928567E+03  0.79343699566E+02 0.  0.
          5    1    3    3  501    0  0.66273827935E+02 -0.21329944126E+03 -0.27872544263E+03  0.35720979029E+03  0.47000000000E+01 0. -1.
        -13    1    4    4    0    0 -0.67083194884E+01 -0.28481161678E+01  0.67908732849E+01  0.99613892623E+01  0.00000000000E+00 0.  1.
         14    1    4    4    0    0  0.31662502867E+02 -0.36422461140E+02 -0.17670884106E+03  0.18318057832E+03  0.00000000000E+00 0. -1.
         -5    1    5    5    0  502  0.40691867053E+02  0.45702449967E+02 -0.17058849721E+03  0.18129276697E+03  0.47000000000E+01 0.  1.
         11    1    6    6    0    0 -0.33138143508E+02  0.59866660153E+02 -0.11233868776E+03  0.13153757760E+03  0.00000000000E+00 0. -1.
        -12    1    6    6    0    0 -0.98781734858E+02  0.14700090845E+03 -0.62396317970E+03  0.64861170807E+03  0.00000000000E+00 0.  1.
</event>
<event>
12    1  0.9873238E-001  0.3633655E+03  0.7818608E-02  0.1057334E+00
         21   -1    0    0  503  502  0.00000000000E+00  0.00000000000E+00  0.92368175076E+02  0.92368175076E+02  0.00000000000E+00 0. -1.
         21   -1    0    0  501  503 -0.00000000000E+00 -0.00000000000E+00 -0.14272564677E+04  0.14272564677E+04  0.00000000000E+00 0. -1.
          6    2    1    2  501    0  0.29139657102E+03  0.13031152399E+03 -0.68497282695E+03  0.77502770940E+03  0.17200907475E+03 0.  0.
         24    2    3    3    0    0  0.21966193897E+03  0.15332507261E+03 -0.46804738487E+03  0.54534484483E+03  0.81072189933E+02 0.  0.
         -6    2    1    2    0  502 -0.29139657102E+03 -0.13031152399E+03 -0.64991546572E+03  0.74459693342E+03  0.17361286183E+03 0.  0.
        -24    2    5    5    0    0 -0.24231230572E+03 -0.12288786270E+03 -0.63027192997E+03  0.69100277009E+03  0.80158856405E+02 0.  0.
          5    1    3    3  501    0  0.71734632052E+02 -0.23013548620E+02 -0.21692544208E+03  0.22968286457E+03  0.47000000000E+01 0. -1.
        -11    1    4    4    0    0  0.20772956136E+03  0.11223861152E+03 -0.37859700968E+03  0.44618916652E+03  0.00000000000E+00 0.  1.
         12    1    4    4    0    0  0.11932377602E+02  0.41086461088E+02 -0.89450375191E+02  0.99155678314E+02  0.00000000000E+00 0. -1.
         -5    1    5    5    0  502 -0.49084265293E+02 -0.74236612905E+01 -0.19643535751E+02  0.53594163331E+02  0.47000000000E+01 0.  1.
         11    1    6    6    0    0 -0.58986246590E+02 -0.21668927898E+02 -0.24006990284E+03  0.24815817128E+03  0.00000000000E+00 0. -1.
        -12    1    6    6    0    0 -0.18332605913E+03 -0.10121893480E+03 -0.39020202713E+03  0.44284459881E+03  0.00000000000E+00 0.  1.
</event>
<event>
12    1  0.9873238E-001  0.2868588E+03  0.7818608E-02  0.1092076E+00
         21   -1    0    0  501  502  0.00000000000E+00  0.00000000000E+00  0.54807949205E+02  0.54807949205E+02  0.00000000000E+00 0. -1.
         21   -1    0    0  502  503 -0.00000000000E+00 -0.00000000000E+00 -0.18696101437E+04  0.18696101437E+04  0.00000000000E+00 0. -1.
         -6    2    1    2    0  503  0.11794824891E+02 -0.22924200397E+03 -0.47793153671E+03  0.55711742526E+03  0.17108552675E+03 0.  0.
        -24    2    3    3    0    0  0.17298380479E+02 -0.20685119643E+03 -0.48281416675E+03  0.53308479197E+03  0.89348891305E+02 0.  0.
          6    2    1    2  501    0 -0.11794824891E+02  0.22924200397E+03 -0.13368706578E+04  0.13673006676E+04  0.17203762909E+03 0.  0.
         24    2    5    5    0    0  0.16092749006E+02  0.46592941242E+02 -0.60730650531E+03  0.61468898858E+03  0.81187945802E+02 0.  0.
          5    1    5    5  501    0 -0.27887573897E+02  0.18264906273E+03 -0.72956415247E+03  0.75261167907E+03  0.47000000000E+01 0. -1.
        -11    1    6    6    0    0  0.12300421441E+02  0.69660626779E+02 -0.48956418215E+03  0.49464835159E+03  0.00000000000E+00 0.  1.
         12    1    6    6    0    0  0.37923275651E+01 -0.23067685537E+02 -0.11774232316E+03  0.12004063698E+03  0.00000000000E+00 0. -1.
         -5    1    3    3    0  503 -0.55035555882E+01 -0.22390807548E+02  0.48826300436E+01  0.24032633291E+02  0.47000000000E+01 0.  1.
         13    1    4    4    0    0  0.50263191399E+02 -0.10870981360E+03 -0.29943892620E+03  0.32250253101E+03  0.00000000000E+00 0. -1.
        -14    1    4    4    0    0 -0.32964810920E+02 -0.98141382830E+02 -0.18337524055E+03  0.21058226096E+03  0.00000000000E+00 0.  1.
</event>
<event>
12    1  0.9873238E-001  0.2022867E+03  0.7818608E-02  0.1148916E+00
         21   -1    0    0  501  502  0.00000000000E+00  0.00000000000E+00  0.31259903319E+03  0.31259903319E+03  0.00000000000E+00 0. -1.
         21   -1    0    0  502  503 -0.00000000000E+00 -0.00000000000E+00 -0.25141769894E+03  0.25141769894E+03  0.00000000000E+00 0. -1.
         -6    2    1    2    0  503 -0.45984092137E+02  0.86152910362E+02 -0.16753101400E+03  0.25868211541E+03  0.17121020848E+03 0.  0.
        -24    2    3    3    0    0 -0.27367024923E+02  0.19906822241E+02 -0.11106056249E+02  0.87725990071E+02  0.80170251488E+02 0.  0.
          6    2    1    2  501    0  0.45984092137E+02 -0.86152910362E+02  0.22871234825E+03  0.30533461671E+03  0.17715255919E+03 0.  0.
         24    2    5    5    0    0  0.54382425328E+02 -0.93002637086E+02  0.25066262862E+03  0.28040761198E+03  0.64728176076E+02 0.  0.
          5    1    5    5  501    0 -0.83983331916E+01  0.68497267235E+01 -0.21950280371E+02  0.24927004733E+02  0.47000000000E+01 0. -1.
        -13    1    6    6    0    0  0.12213303559E+02 -0.62978566255E+01  0.22293528147E+01  0.13921127680E+02  0.00000000000E+00 0.  1.
         14    1    6    6    0    0  0.42169121769E+02 -0.86704780460E+02  0.24843327581E+03  0.26648648430E+03  0.00000000000E+00 0. -1.
         -5    1    3    3    0  503 -0.18617067214E+02  0.66246088121E+02 -0.15642495775E+03  0.17095612534E+03  0.47000000000E+01 0.  1.
         13    1    4    4    0    0  0.23344693417E+02 -0.11232214907E+02 -0.11183014506E+02  0.28216966100E+02  0.00000000000E+00 0. -1.
        -14    1    4    4    0    0 -0.50711718339E+02  0.31139037149E+02  0.76958256759E-01  0.59509023972E+02  0.00000000000E+00 0.  1.
</event>
<event>
12    1  0.9873238E-001  0.1917116E+03  0.7818608E-02  0.1157827E+00
         21   -1    0    0  501  502  0.00000000000E+00  0.00000000000E+00  0.42020012910E+03  0.42020012910E+03  0.00000000000E+00 0.  1.
         21   -1    0    0  502  503 -0.00000000000E+00 -0.00000000000E+00 -0.19301464211E+03  0.19301464211E+03  0.00000000000E+00 0.  1.
         -6    2    1    2    0  503 -0.13344698733E+02  0.92273463147E+02  0.34172696607E+03  0.38989193973E+03  0.16292922494E+03 0.  0.
        -24    2    3    3    0    0  0.30771620934E+02  0.87648235543E+01  0.21650234239E+03  0.23297400282E+03  0.79874319663E+02 0.  0.
          6    2    1    2  501    0  0.13344698733E+02 -0.92273463147E+02 -0.11454147908E+03  0.22332283148E+03  0.16751377151E+03 0.  0.
         24    2    5    5    0    0 -0.23457697998E+02 -0.42973981716E+02 -0.12961785554E+03  0.15980714522E+03  0.79627309942E+02 0.  0.
          5    1    5    5  501    0  0.36802396732E+02 -0.49299481432E+02  0.15076376456E+02  0.63515686265E+02  0.47000000000E+01 0. -1.
        -13    1    6    6    0    0 -0.49866708892E+02 -0.10957305627E+02 -0.60271105026E+02  0.78989602502E+02  0.00000000000E+00 0.  1.
         14    1    6    6    0    0  0.26409010893E+02 -0.32016676089E+02 -0.69346750512E+02  0.80817542716E+02  0.00000000000E+00 0. -1.
         -5    1    3    3    0  503 -0.44116319667E+02  0.83508639593E+02  0.12522462368E+03  0.15691793691E+03  0.47000000000E+01 0.  1.
         11    1    4    4    0    0 -0.38824131975E+01  0.29972563737E+02  0.31859858248E+02  0.43914442690E+02  0.00000000000E+00 0. -1.
        -12    1    4    4    0    0  0.34654034131E+02 -0.21207740183E+02  0.18464248415E+03  0.18905956013E+03  0.00000000000E+00 0.  1.
</event>
<event>
12    1  0.9873238E-001  0.2642374E+03  0.7818608E-02  0.1104676E+00
         21   -1    0    0  501  502  0.00000000000E+00  0.00000000000E+00  0.66352808457E+03  0.66352808457E+03  0.00000000000E+00 0. -1.
         21   -1    0    0  502  503 -0.00000000000E+00 -0.00000000000E+00 -0.10516993206E+03  0.10516993206E+03  0.00000000000E+00 0. -1.
         -6    2    1    2    0  503  0.19228304532E+03 -0.58269009616E+02  0.29024262653E+03  0.39250758378E+03  0.17161985338E+03 0.  0.
        -24    2    3    3    0    0  0.64734001620E+02  0.31881586239E+02  0.12397562366E+03  0.16433507289E+03  0.80181883331E+02 0.  0.
          6    2    1    2  501    0 -0.19228304532E+03  0.58269009616E+02  0.26811552598E+03  0.37619043284E+03  0.17107091948E+03 0.  0.
         24    2    5    5    0    0 -0.12783434251E+03 -0.15298985803E+02  0.22005455958E+03  0.26711325038E+03  0.79685640124E+02 0.  0.
          5    1    5    5  501    0 -0.64448702809E+02  0.73567995419E+02  0.48060966394E+02  0.10907718246E+03  0.47000000000E+01 0. -1.
        -11    1    6    6    0    0 -0.93522403939E+02  0.17016147108E+02  0.99197473330E+02  0.13739042185E+03  0.00000000000E+00 0.  1.
         12    1    6    6    0    0 -0.34311938572E+02 -0.32315132911E+02  0.12085708625E+03  0.12972282853E+03  0.00000000000E+00 0. -1.
         -5    1    3    3    0  503  0.12754904370E+03 -0.90150595855E+02  0.16626700287E+03  0.22817251089E+03  0.47000000000E+01 0.  1.
         13    1    4    4    0    0 -0.80373604468E+01  0.32367626338E+02  0.25991414911E+02  0.42282573796E+02  0.00000000000E+00 0. -1.
        -14    1    4    4    0    0  0.72771362067E+02 -0.48604009971E+00  0.97984208745E+02  0.12205249910E+03  0.00000000000E+00 0.  1.
</event>
<event>
12    1  0.9873238E-001  0.1913851E+03  0.7818608E-02  0.1161025E+00
         21   -1    0    0  503  502  0.00000000000E+00  0.00000000000E+00  0.13767673235E+03  0.13767673235E+03  0.00000000000E+00 0. -1.
         21   -1    0    0  501  503 -0.00000000000E+00 -0.00000000000E+00 -0.36596372198E+03  0.36596372198E+03  0.00000000000E+00 0. -1.
          6    2    1    2  501    0  0.23325672114E+02  0.22087487199E+02  0.34552442799E+02  0.17850537183E+03  0.17215792866E+03 0.  0.
         24    2    3    3    0    0  0.10151341877E+02 -0.50640118714E+02 -0.13975241300E+01  0.96180662535E+02  0.81125183554E+02 0.  0.
         -6    2    1    2    0  502 -0.23325672114E+02 -0.22087487199E+02 -0.26283943243E+03  0.32513508250E+03  0.18866984540E+03 0.  0.
        -24    2    5    5    0    0  0.29808001879E+02 -0.53239945538E+02 -0.70604199224E+02  0.12321891708E+03  0.80467010638E+02 0.  0.
          5    1    3    3  501    0  0.13174330237E+02  0.72727605913E+02  0.35949966929E+02  0.82324709299E+02  0.47000000000E+01 0. -1.
        -13    1    4    4    0    0 -0.25838036095E+02 -0.52293593275E+02 -0.99021280464E+01  0.59163131650E+02  0.00000000000E+00 0.  1.
         14    1    4    4    0    0  0.35989377973E+02  0.16534745611E+01  0.85046039165E+01  0.37017530884E+02  0.00000000000E+00 0. -1.
         -5    1    5    5    0  502 -0.53133673993E+02  0.31152458339E+02 -0.19223523320E+03  0.20191616542E+03  0.47000000000E+01 0.  1.
         13    1    6    6    0    0 -0.13754248656E+02 -0.51582341424E+02 -0.21488225271E+02  0.57547034052E+02  0.00000000000E+00 0. -1.
        -14    1    6    6    0    0  0.43562250534E+02 -0.16576041146E+01 -0.49115973952E+02  0.65671883027E+02  0.00000000000E+00 0.  1.
</event>
<event>
12    1  0.9873238E-001  0.1893415E+03  0.7818608E-02  0.1159257E+00
         21   -1    0    0  501  502  0.00000000000E+00  0.00000000000E+00  0.11206371219E+03  0.11206371219E+03  0.00000000000E+00 0. -1.
         21   -1    0    0  502  503 -0.00000000000E+00 -0.00000000000E+00 -0.34194549014E+03  0.34194549014E+03  0.00000000000E+00 0. -1.
         -6    2    1    2    0  503 -0.62881796592E+02 -0.43644102549E+02 -0.17473808792E+03  0.25765016365E+03  0.17317990481E+03 0.  0.
        -24    2    3    3    0    0 -0.34207323792E+02 -0.55773470794E+02 -0.20825454805E+02  0.10054976392E+03  0.73455662889E+02 0.  0.
          6    2    1    2  501    0  0.62881796592E+02  0.43644102549E+02 -0.55143690034E+02  0.19635903869E+03  0.17221241968E+03 0.  0.
         24    2    5    5    0    0  0.79366917765E+02  0.12022850059E+02 -0.92757353976E+02  0.14431539792E+03  0.76022041544E+02 0.  0.
          5    1    5    5  501    0 -0.16485121174E+02  0.31621252490E+02  0.37613663943E+02  0.52043640767E+02  0.47000000000E+01 0. -1.
        -11    1    6    6    0    0  0.29123836246E+02  0.31564580798E+02 -0.76970513055E+02  0.88141820259E+02  0.00000000000E+00 0.  1.
         12    1    6    6    0    0  0.50243081519E+02 -0.19541730739E+02 -0.15786840921E+02  0.56173577659E+02  0.00000000000E+00 0. -1.
         -5    1    3    3    0  503 -0.28674472800E+02  0.12129368245E+02 -0.15391263311E+03  0.15710039973E+03  0.47000000000E+01 0.  1.
         13    1    4    4    0    0  0.20593363845E+02 -0.17700747351E+01 -0.96255504502E+01  0.22800680264E+02  0.00000000000E+00 0. -1.
        -14    1    4    4    0    0 -0.54800687637E+02 -0.54003396059E+02 -0.11199904355E+02  0.77749083653E+02  0.00000000000E+00 0.  1.
</event>
<event>
12    1  0.9873238E-001  0.1798664E+03  0.7818608E-02  0.1168005E+00
         21   -1    0    0  503  502  0.00000000000E+00  0.00000000000E+00  0.13427237117E+03  0.13427237117E+03  0.00000000000E+00 0. -1.
         21   -1    0    0  501  503 -0.00000000000E+00 -0.00000000000E+00 -0.24537120137E+03  0.24537120137E+03  0.00000000000E+00 0. -1.
          6    2    1    2  501    0  0.10340283061E+01 -0.51797504937E+02 -0.28875068434E+02  0.18187431743E+03  0.17193151843E+03 0.  0.
         24    2    3    3    0    0 -0.33451735133E+02 -0.90814774398E+02 -0.28485028469E+02  0.12958801590E+03  0.81334587883E+02 0.  0.
         -6    2    1    2    0  502 -0.10340283061E+01  0.51797504937E+02 -0.82223761760E+02  0.19776925511E+03  0.17224366617E+03 0.  0.
        -24    2    5    5    0    0 -0.44192309288E+02  0.82492465623E+02 -0.75574950437E+02  0.14418647317E+03  0.79499678149E+02 0.  0.
          5    1    3    3  501    0  0.34485763439E+02  0.39017269462E+02 -0.39003996485E+00  0.52286301527E+02  0.47000000000E+01 0. -1.
        -11    1    4    4    0    0 -0.41815511742E+02 -0.30053186317E+02  0.15882466602E+02  0.53888623803E+02  0.00000000000E+00 0.  1.
         12    1    4    4    0    0  0.83637766085E+01 -0.60761588081E+02 -0.44367495071E+02  0.75699392099E+02  0.00000000000E+00 0. -1.
         -5    1    5    5    0  502  0.43158280982E+02 -0.30694960686E+02 -0.66488113232E+01  0.53582781944E+02  0.47000000000E+01 0.  1.
         13    1    6    6    0    0 -0.25715509489E+02 -0.25556396985E+01 -0.45088908419E+02  0.51969494754E+02  0.00000000000E+00 0. -1.
        -14    1    6    6    0    0 -0.18476799799E+02  0.85048105321E+02 -0.30486042017E+02  0.92216978412E+02  0.00000000000E+00 0.  1.
</event>
<event>
12    1  0.9873238E-001  0.3581488E+03  0.7818608E-02  0.1059361E+00
         21   -1    0    0  503  502  0.00000000000E+00  0.00000000000E+00  0.15499192046E+04  0.15499192046E+04  0.00000000000E+00 0.  1.
         21   -1    0    0  501  503 -0.00000000000E+00 -0.00000000000E+00 -0.85739512023E+02  0.85739512023E+02  0.00000000000E+00 0.  1.
          6    2    1    2  501    0 -0.25898020378E+03 -0.17697819571E+03  0.57756831438E+03  0.67959965960E+03  0.17285401888E+03 0.  0.
         24    2    3    3    0    0 -0.22550489122E+03 -0.89721515161E+02  0.34787106041E+03  0.43157296076E+03  0.79614945514E+02 0.  0.
         -6    2    1    2    0  502  0.25898020378E+03  0.17697819571E+03  0.88661137815E+03  0.95605905698E+03  0.17198010599E+03 0.  0.
        -24    2    5    5    0    0  0.22819934180E+03  0.14050145739E+03  0.55751550191E+03  0.62348696004E+03  0.78082362564E+02 0.  0.
          5    1    3    3  501    0 -0.33475312566E+02 -0.87256680549E+02  0.22969725398E+03  0.24802669884E+03  0.47000000000E+01 0. -1.
        -11    1    4    4    0    0  0.58991534246E+01 -0.66618220862E+01  0.18803733542E+02  0.20802891140E+02  0.00000000000E+00 0.  1.
         12    1    4    4    0    0 -0.23140404464E+03 -0.83059693075E+02  0.32906732686E+03  0.41077006962E+03  0.00000000000E+00 0. -1.
         -5    1    5    5    0  502  0.30780861977E+02  0.36476738324E+02  0.32909587624E+03  0.33257209694E+03  0.47000000000E+01 0.  1.
         11    1    6    6    0    0  0.66185031905E+02  0.50473998126E+02  0.10163705058E+03  0.13137036570E+03  0.00000000000E+00 0. -1.
        -12    1    6    6    0    0  0.16201430990E+03  0.90027459260E+02  0.45587845133E+03  0.49211659433E+03  0.00000000000E+00 0.  1.
</event>
<event>
12    1  0.9873238E-001  0.2136522E+03  0.7818608E-02  0.1139498E+00
         21   -1    0    0  501  502  0.00000000000E+00  0.00000000000E+00  0.20838574755E+04  0.20838574755E+04  0.00000000000E+00 0. -1.
         21   -1    0    0  502  503 -0.00000000000E+00 -0.00000000000E+00 -0.33227065518E+02  0.33227065518E+02  0.00000000000E+00 0. -1.
         -6    2    1    2    0  503 -0.22976987954E+02 -0.11784297259E+03  0.40259925981E+03  0.45577780256E+03  0.17672671881E+03 0.  0.
        -24    2    3    3    0    0  0.34632170453E+02 -0.33045488323E+02  0.26270943262E+03  0.28228232071E+03  0.91518692459E+02 0.  0.
          6    2    1    2  501    0  0.22976987954E+02  0.11784297259E+03  0.16480311501E+04  0.16613067384E+04  0.17180948504E+03 0.  0.
         24    2    5    5    0    0 -0.16107117250E+02  0.16636123166E+02  0.41169684756E+03  0.42021246668E+03  0.80919855632E+02 0.  0.
          5    1    5    5  501    0  0.39084105204E+02  0.10120684943E+03  0.12363343026E+04  0.12410942718E+04  0.47000000000E+01 0. -1.
        -11    1    6    6    0    0 -0.14047403438E+02  0.49201626412E+02  0.27017051809E+03  0.27497315947E+03  0.00000000000E+00 0.  1.
         12    1    6    6    0    0 -0.20597138121E+01 -0.32565503246E+02  0.14152632948E+03  0.14523930721E+03  0.00000000000E+00 0. -1.
         -5    1    3    3    0  503 -0.57609158406E+02 -0.84797484268E+02  0.13988982719E+03  0.17349548185E+03  0.47000000000E+01 0.  1.
         11    1    4    4    0    0  0.59935679493E+02 -0.45319520338E+02  0.19344560853E+03  0.20752674059E+03  0.00000000000E+00 0. -1.
        -12    1    4    4    0    0 -0.25303509041E+02  0.12274032015E+02  0.69263824090E+02  0.74755580121E+02  0.00000000000E+00 0.  1.
</event>
<event>
12    1  0.9873238E-001  0.2176292E+03  0.7818608E-02  0.1135742E+00
         21   -1    0    0  503  502  0.00000000000E+00  0.00000000000E+00  0.21709707489E+03  0.21709707489E+03  0.00000000000E+00 0. -1.
         21   -1    0    0  501  503 -0.00000000000E+00 -0.00000000000E+00 -0.23882762707E+03  0.23882762707E+03  0.00000000000E+00 0. -1.
          6    2    1    2  501    0  0.13111324002E+03  0.21442407749E+02 -0.78585352629E+02  0.23099155365E+03  0.17184580778E+03 0.  0.
         24    2    3    3    0    0  0.15443148187E+03  0.44821723808E+02 -0.59368072487E+02  0.19249835064E+03  0.87595533285E+02 0.  0.
         -6    2    1    2    0  502 -0.13111324002E+03 -0.21442407749E+02  0.56854800449E+02  0.22493314830E+03  0.17237167492E+03 0.  0.
        -24    2    5    5    0    0 -0.61946842694E+01 -0.38990254782E+02  0.31008176429E+02  0.96081642767E+02  0.81924117269E+02 0.  0.
          5    1    3    3  501    0 -0.23318241848E+02 -0.23379316058E+02 -0.19217280142E+02  0.38493203014E+02  0.47000000000E+01 0. -1.
        -11    1    4    4    0    0  0.16311551871E+03  0.29984247747E+02 -0.52170621719E+02  0.17386058014E+03  0.00000000000E+00 0.  1.
         12    1    4    4    0    0 -0.86840368392E+01  0.14837476060E+02 -0.71974507681E+01  0.18637770500E+02  0.00000000000E+00 0. -1.
         -5    1    5    5    0  502 -0.12491855575E+03  0.17547847032E+02  0.25846624020E+02  0.12885150554E+03  0.47000000000E+01 0.  1.
         13    1    6    6    0    0 -0.73551055038E+00 -0.16008490255E+02  0.58023491670E+02  0.60195833092E+02  0.00000000000E+00 0. -1.
        -14    1    6    6    0    0 -0.54591737190E+01 -0.22981764527E+02 -0.27015315242E+02  0.35885809675E+02  0.00000000000E+00 0.  1.
</event>
<event>
12    1  0.9873238E-001  0.2741137E+03  0.7818608E-02  0.1099664E+00
         21   -1    0    0  503  502  0.00000000000E+00  0.00000000000E+00  0.54799419112E+03  0.54799419112E+03  0.00000000000E+00 0.  1.
         21   -1    0    0  501  503 -0.00000000000E+00 -0.00000000000E+00 -0.17631563031E+03  0.17631563031E+03  0.00000000000E+00 0.  1.
          6    2    1    2  501    0 -0.53213290318E+02 -0.20403936401E+03  0.83727468339E+01  0.26919504308E+03  0.16712914766E+03 0.  0.
         24    2    3    3    0    0 -0.24079282291E+02 -0.33353530923E+02  0.31141921774E+02  0.94486802382E+02  0.79155964221E+02 0.  0.
         -6    2    1    2    0  502  0.53213290318E+02  0.20403936401E+03  0.36330581398E+03  0.45511477836E+03  0.17514174453E+03 0.  0.
        -24    2    5    5    0    0  0.94014275299E+02  0.19524885305E+03  0.31446470455E+03  0.39069787508E+03  0.82437737741E+02 0.  0.
          5    1    3    3  501    0 -0.29134008027E+02 -0.17068583309E+03 -0.22769174940E+02  0.17470824070E+03  0.47000000000E+01 0. -1.
        -11    1    4    4    0    0  0.68593444284E+01 -0.57055084429E+01  0.48643090595E+02  0.49454561925E+02  0.00000000000E+00 0.  1.
         12    1    4    4    0    0 -0.30938626720E+02 -0.27648022480E+02 -0.17501168822E+02  0.45032240456E+02  0.00000000000E+00 0. -1.
         -5    1    5    5    0  502 -0.40800984981E+02  0.87905109589E+01  0.48841109428E+02  0.64416903282E+02  0.47000000000E+01 0.  1.
         11    1    6    6    0    0  0.45920545233E+02  0.10360015037E+03  0.94326144635E+02  0.14744188412E+03  0.00000000000E+00 0. -1.
        -12    1    6    6    0    0  0.48093730066E+02  0.91648702681E+02  0.22013855991E+03  0.24325599096E+03  0.00000000000E+00 0.  1.
</event>
<event>
12    1  0.9873238E-001  0.2165525E+03  0.7818608E-02  0.1136489E+00
         21   -1    0    0  503  502  0.00000000000E+00  0.00000000000E+00  0.13045892825E+03  0.13045892825E+03  0.00000000000E+00 0. -1.
         21   -1    0    0  501  503 -0.00000000000E+00 -0.00000000000E+00 -0.64590386075E+03  0.64590386075E+03  0.00000000000E+00 0. -1.
          6    2    1    2  501    0  0.25428288764E+02  0.12938414475E+03  0.83605425251E+00  0.21650474797E+03  0.17171706999E+03 0.  0.
         24    2    3    3    0    0 -0.35211052410E+02  0.53303058153E+02  0.43532559313E+02  0.11015371140E+03  0.78471155174E+02 0.  0.
         -6    2    1    2    0  502 -0.25428288764E+02 -0.12938414475E+03 -0.51628098675E+03  0.55985804103E+03  0.17177925962E+03 0.  0.
        -24    2    5    5    0    0  0.27395797523E+02 -0.13384224494E+03 -0.32672570102E+03  0.36297341720E+03  0.79597372034E+02 0.  0.
          5    1    3    3  501    0  0.60639341174E+02  0.76081086600E+02 -0.42696505061E+02  0.10635103658E+03  0.47000000000E+01 0. -1.
        -11    1    4    4    0    0 -0.36280630720E+01  0.59681420005E+02  0.49208288236E+02  0.77437009025E+02  0.00000000000E+00 0.  1.
         12    1    4    4    0    0 -0.31582989338E+02 -0.63783618520E+01 -0.56757289233E+01  0.32716702374E+02  0.00000000000E+00 0. -1.
         -5    1    5    5    0  502 -0.52824086287E+02  0.44581001864E+01 -0.18955528574E+03  0.19688462383E+03  0.47000000000E+01 0.  1.
         11    1    6    6    0    0 -0.10112596911E+02 -0.12875450711E+02 -0.48461405235E+01  0.17074159577E+02  0.00000000000E+00 0. -1.
        -12    1    6    6    0    0  0.37508394434E+02 -0.12096679423E+03 -0.32187956049E+03  0.34589925762E+03  0.00000000000E+00 0.  1.
</event>
<event>
12    1  0.9873238E-001  0.2686840E+03  0.7818608E-02  0.1102036E+00
         21   -1    0    0  501  502  0.00000000000E+00  0.00000000000E+00  0.24268670638E+03  0.24268670638E+03  0.00000000000E+00 0. -1.
         21   -1    0    0  502  503 -0.00000000000E+00 -0.00000000000E+00 -0.38752904654E+03  0.38752904654E+03  0.00000000000E+00 0. -1.
         -6    2    1    2    0  503  0.60261219805E+02  0.19715065150E+03  0.79491599269E+02  0.28019636351E+03  0.17231161822E+03 0.  0.
        -24    2    3    3    0    0 -0.32452914358E+02  0.11468730859E+03  0.33583146434E+02  0.14781135817E+03  0.80709351867E+02 0.  0.
          6    2    1    2  501    0 -0.60261219805E+02 -0.19715065150E+03 -0.22433393943E+03  0.35001938941E+03  0.17230224196E+03 0.  0.
         24    2    5    5    0    0 -0.44607454585E+02 -0.95346158021E+02 -0.20795668757E+03  0.24561872066E+03  0.77471654028E+02 0.  0.
          5    1    5    5  501    0 -0.15653765220E+02 -0.10180449348E+03 -0.16377251860E+02  0.10440066875E+03  0.47000000000E+01 0. -1.
        -11    1    6    6    0    0 -0.57789203747E+02 -0.99990189843E+02 -0.19458540713E+03  0.22627662451E+03  0.00000000000E+00 0.  1.
         12    1    6    6    0    0  0.13181749162E+02  0.46440318212E+01 -0.13371280444E+02  0.19342096144E+02  0.00000000000E+00 0. -1.
         -5    1    3    3    0  503  0.92714134164E+02  0.82463342906E+02  0.45908452835E+02  0.13238500534E+03  0.47000000000E+01 0.  1.
         11    1    4    4    0    0  0.74909568757E+01 -0.20347771573E+01  0.22669889481E+02  0.23962024999E+02  0.00000000000E+00 0. -1.
        -12    1    4    4    0    0 -0.39943871234E+02  0.11672208575E+03  0.10913256953E+02  0.12384933318E+03  0.00000000000E+00 0.  1.
</event>
<event>
12    1  0.9873238E-001  0.2589759E+03  0.7818608E-02  0.1108559E+00
         21   -1    0    0  503  502  0.00000000000E+00  0.00000000000E+00  0.66455250018E+02  0.66455250018E+02  0.00000000000E+00 0.  1.
         21   -1    0    0  501  503 -0.00000000000E+00 -0.00000000000E+00 -0.12801853006E+04  0.12801853006E+04  0.00000000000E+00 0.  1.
          6    2    1    2  501    0 -0.16139883342E+03  0.10010566497E+03 -0.93280555554E+03  0.96808818281E+03  0.17606191427E+03 0.  0.
         24    2    3    3    0    0 -0.76190290002E+02  0.12069992464E+03 -0.49068504093E+03  0.51733630112E+03  0.80570509306E+02 0.  0.
         -6    2    1    2    0  502  0.16139883342E+03 -0.10010566497E+03 -0.28092449503E+03  0.37855236780E+03  0.16826347100E+03 0.  0.
        -24    2    5    5    0    0  0.17530252195E+03 -0.49885810679E+02 -0.24027898147E+03  0.31229911058E+03  0.81099797929E+02 0.  0.
          5    1    3    3  501    0 -0.85208543414E+02 -0.20594259664E+02 -0.44212051461E+03  0.45075188168E+03  0.47000000000E+01 0. -1.
        -11    1    4    4    0    0 -0.10317232869E+02  0.34983801529E+01 -0.15993232996E+03  0.16030294484E+03  0.00000000000E+00 0.  1.
         12    1    4    4    0    0 -0.65873057133E+02  0.11720154448E+03 -0.33075271097E+03  0.35703335628E+03  0.00000000000E+00 0. -1.
         -5    1    5    5    0  502 -0.13903688529E+02 -0.50219854294E+02 -0.40645513561E+02  0.66253257223E+02  0.47000000000E+01 0.  1.
         13    1    6    6    0    0  0.28700871817E+02 -0.32440137390E+01 -0.10005245061E+03  0.10413816083E+03  0.00000000000E+00 0. -1.
        -14    1    6    6    0    0  0.14660165013E+03 -0.46641796940E+02 -0.14022653086E+03  0.20816094974E+03  0.00000000000E+00 0.  1.
</event>
<event>
12    1  0.9873238E-001  0.2333573E+03  0.7818608E-02  0.1124325E+00
         21   -1    0    0  503  502  0.00000000000E+00  0.00000000000E+00  0.73481160756E+03  0.73481160756E+03  0.00000000000E+00 0. -1.
         21   -1    0    0  501  503 -0.00000000000E+00 -0.00000000000E+00 -0.11991125421E+03  0.11991125421E+03  0.00000000000E+00 0. -1.
          6    2    1    2  501    0  0.95952848206E+02  0.12560702568E+03  0.57165340559E+03  0.61739201013E+03  0.17146779311E+03 0.  0.
         24    2    3    3    0    0  0.24119606290E+02  0.11695655467E+03  0.47638598473E+03  0.49767226752E+03  0.80457991084E+02 0.  0.
         -6    2    1    2    0  502 -0.95952848206E+02 -0.12560702568E+03  0.43246947762E+02  0.23733085163E+03  0.17167283031E+03 0.  0.
        -24    2    5    5    0    0 -0.13440575999E+03 -0.89059519999E+02  0.33193168173E+02  0.18313200404E+03  0.80243617004E+02 0.  0.
          5    1    3    3  501    0  0.71833241916E+02  0.86504710102E+01  0.95267420860E+02  0.11971974261E+03  0.47000000000E+01 0. -1.
        -13    1    4    4    0    0  0.47131458847E+02  0.10040716860E+03  0.31848062268E+03  0.33724305914E+03  0.00000000000E+00 0.  1.
         14    1    4    4    0    0 -0.23011852557E+02  0.16549386072E+02  0.15790536205E+03  0.16042920838E+03  0.00000000000E+00 0. -1.
         -5    1    5    5    0  502  0.38452911783E+02 -0.36547505683E+02  0.10053779590E+02  0.54198847592E+02  0.47000000000E+01 0.  1.
         13    1    6    6    0    0 -0.55484521040E+01 -0.12946966688E+02  0.30336746307E+02  0.33447383211E+02  0.00000000000E+00 0. -1.
        -14    1    6    6    0    0 -0.12885730788E+03 -0.76112553312E+02  0.28564218653E+01  0.14968462083E+03  0.00000000000E+00 0.  1.
</event>
<event>
12    1  0.9873238E-001  0.1793205E+03  0.7818608E-02  0.1168780E+00
         21   -1    0    0  501  502  0.00000000000E+00  0.00000000000E+00  0.20437911132E+03  0.20437911132E+03  0.00000000000E+00 0.  1.
         21   -1    0    0  502  503 -0.00000000000E+00 -0.00000000000E+00 -0.28958286035E+03  0.28958286035E+03  0.00000000000E+00 0.  1.
         -6    2    1    2    0  503  0.38952235779E+02 -0.24020487214E+02  0.12493724834E+03  0.21855244915E+03  0.17338280344E+03 0.  0.
        -24    2    3    3    0    0  0.56236925724E+02 -0.73245173799E+02  0.65300007996E+02  0.13917662971E+03  0.81108544022E+02 0.  0.
          6    2    1    2  501    0 -0.38952235779E+02  0.24020487214E+02 -0.21014099737E+03  0.27540952252E+03  0.17203751289E+03 0.  0.
         24    2    5    5    0    0 -0.30274803952E+02 -0.11173028714E+02 -0.22127022419E+03  0.23720178671E+03  0.79137697567E+02 0.  0.
          5    1    5    5  501    0 -0.86774318272E+01  0.35193515928E+02  0.11129226824E+02  0.38207735816E+02  0.47000000000E+01 0. -1.
        -11    1    6    6    0    0  0.19537737154E+01  0.27679313567E+02 -0.37658504553E+02  0.46777394075E+02  0.00000000000E+00 0.  1.
         12    1    6    6    0    0 -0.32228577667E+02 -0.38852342280E+02 -0.18361171964E+03  0.19042439263E+03  0.00000000000E+00 0. -1.
         -5    1    3    3    0  503 -0.17284689945E+02  0.49224686585E+02  0.59637240345E+02  0.79375819440E+02  0.47000000000E+01 0.  1.
         13    1    4    4    0    0  0.44764472288E+01  0.17267173043E+02  0.15481187629E+02  0.23619081589E+02  0.00000000000E+00 0. -1.
        -14    1    4    4    0    0  0.51760478496E+02 -0.90512346842E+02  0.49818820366E+02  0.11555754812E+03  0.00000000000E+00 0.  1.
</event>
<event>
12    1  0.9873238E-001  0.2476484E+03  0.7818608E-02  0.1115042E+00
         21   -1    0    0  503  502  0.00000000000E+00  0.00000000000E+00  0.21152957650E+03  0.21152957650E+03  0.00000000000E+00 0.  1.
         21   -1    0    0  501  503 -0.00000000000E+00 -0.00000000000E+00 -0.84002742297E+03  0.84002742297E+03  0.00000000000E+00 0.  1.
          6    2    1    2  501    0  0.86304992366E+02 -0.15313449567E+03  0.11223618569E+03  0.27052137425E+03  0.17229662526E+03 0.  0.
         24    2    3    3    0    0  0.73233392841E+02 -0.17481346587E+03  0.12623988971E+03  0.24121202097E+03  0.79522648546E+02 0.  0.
         -6    2    1    2    0  502 -0.86304992366E+02  0.15313449567E+03 -0.74073403217E+03  0.78103562522E+03  0.17444487948E+03 0.  0.
        -24    2    5    5    0    0 -0.92485741814E+02  0.98166808817E+02 -0.68418233516E+03  0.70179022979E+03  0.78827178651E+02 0.  0.
          5    1    3    3  501    0  0.13071599526E+02  0.21678970204E+02 -0.14003704015E+02  0.29309353275E+02  0.47000000000E+01 0. -1.
        -13    1    4    4    0    0  0.24168056220E+02 -0.84574684986E+02  0.10383164843E+03  0.13608079768E+03  0.00000000000E+00 0.  1.
         14    1    4    4    0    0  0.49065336621E+02 -0.90238780888E+02  0.22408241275E+02  0.10513122329E+03  0.00000000000E+00 0. -1.
         -5    1    5    5    0  502  0.61807494474E+01  0.54967686853E+02 -0.56551697004E+02  0.79245395423E+02  0.47000000000E+01 0.  1.
         11    1    6    6    0    0 -0.28035381216E+02 -0.27580614876E+01 -0.60781306274E+02  0.66992213693E+02  0.00000000000E+00 0. -1.
        -12    1    6    6    0    0 -0.64450360598E+02  0.10092487030E+03 -0.62340102889E+03  0.63479801610E+03  0.00000000000E+00 0.  1.
</event>
<event>
12    1  0.9873238E-001  0.2135044E+03  0.7818608E-02  0.1138885E+00
         21   -1    0    0  503  502  0.00000000000E+00  0.00000000000E+00  0.60767631144E+02  0.60767631144E+02  0.00000000000E+00 0.  1.
         21   -1    0    0  501  503 -0.00000000000E+00 -0.00000000000E+00 -0.12363600275E+04  0.12363600275E+04  0.00000000000E+00 0.  1.
          6    2    1    2  501    0 -0.89285706353E+02  0.89880944197E+02 -0.99528317609E+03  0.10179256982E+04  0.17185344046E+03 0.  0.
         24    2    3    3    0    0  0.11015143189E+02  0.67092526674E+02 -0.40826271571E+03  0.42194358163E+03  0.82068267456E+02 0.  0.
         -6    2    1    2    0  502  0.89285706353E+02 -0.89880944197E+02 -0.18030922026E+03  0.27920196042E+03  0.17144036369E+03 0.  0.
        -24    2    5    5    0    0  0.52187591950E+02 -0.61429955703E+02 -0.24568678256E+02  0.11652763773E+03  0.80485316628E+02 0.  0.
          5    1    3    3  501    0 -0.10030084954E+03  0.22788417523E+02 -0.58702046038E+03  0.59598211659E+03  0.47000000000E+01 0. -1.
        -13    1    4    4    0    0 -0.19118721234E+02  0.15190564903E+02 -0.28775638157E+02  0.37740112811E+02  0.00000000000E+00 0.  1.
         14    1    4    4    0    0  0.30133864423E+02  0.51901961771E+02 -0.37948707756E+03  0.38420346882E+03  0.00000000000E+00 0. -1.
         -5    1    5    5    0  502  0.37098114403E+02 -0.28450988494E+02 -0.15574054201E+03  0.16267432269E+03  0.47000000000E+01 0.  1.
         11    1    6    6    0    0  0.64209966280E+02 -0.16531904737E+02 -0.63597714880E+01  0.66608335344E+02  0.00000000000E+00 0. -1.
        -12    1    6    6    0    0 -0.12022374330E+02 -0.44898050966E+02 -0.18208906768E+02  0.49919302387E+02  0.00000000000E+00 0.  1.
</event>
<event>
12    1  0.9873238E-001  0.2127854E+03  0.7818608E-02  0.1139705E+00
         21   -1    0    0  501  502  0.00000000000E+00  0.00000000000E+00  0.18305617842E+03  0.18305617842E+03  0.00000000000E+00 0.  1.
         21   -1    0    0  502  503 -0.00000000000E+00 -0.00000000000E+00 -0.43839609632E+03  0.43839609632E+03  0.00000000000E+00 0.  1.
         -6    2    1    2    0  503 -0.13100808859E+02 -0.12459713511E+03 -0.33411287497E+03  0.39611745582E+03  0.17199287287E+03 0.  0.
        -24    2    3    3    0    0 -0.31913097545E+02 -0.13239513037E+03 -0.33980177782E+03  0.37445724919E+03  0.78778594336E+02 0.  0.
          6    2    1    2  501    0  0.13100808859E+02  0.12459713511E+03  0.78772957075E+02  0.22533481891E+03  0.16992505577E+03 0.  0.
         24    2    5    5    0    0  0.72449533354E+01  0.52084002532E+02  0.10931037339E+03  0.14629641536E+03  0.81784171747E+02 0.  0.
          5    1    5    5  501    0  0.58558555240E+01  0.72513132575E+02 -0.30537416320E+02  0.79038403547E+02  0.47000000000E+01 0. -1.
        -13    1    6    6    0    0 -0.35471013170E+02  0.18199187018E+02  0.64007016058E+02  0.75407567844E+02  0.00000000000E+00 0.  1.
         14    1    6    6    0    0  0.42715966506E+02  0.33884815514E+02  0.45303357336E+02  0.70888847521E+02  0.00000000000E+00 0. -1.
         -5    1    3    3    0  503  0.18812288686E+02  0.77979952614E+01  0.56889028474E+01  0.21660206631E+02  0.47000000000E+01 0.  1.
         13    1    4    4    0    0 -0.48320486807E+01 -0.64575910107E+02 -0.71817992757E+02  0.96701711175E+02  0.00000000000E+00 0. -1.
        -14    1    4    4    0    0 -0.27081048864E+02 -0.67819220261E+02 -0.26798378506E+03  0.27775553802E+03  0.00000000000E+00 0.  1.
</event>
<event>
12    1  0.9976907E-001  0.2551832E+03  0.7818608E-02  0.1110256E+00
         21   -1    0    0  501  502  0.00000000000E+00  0.00000000000E+00  0.99109535308E+03  0.99109535308E+03  0.00000000000E+00 0. -1.
         21   -1    0    0  502  503 -0.00000000000E+00 -0.00000000000E+00 -0.13686474553E+03  0.13686474553E+03  0.00000000000E+00 0. -1.
         -6    2    1    2    0  503  0.75736447516E+02 -0.17184480902E+03  0.83417947667E+03  0.87199032533E+03  0.17101193030E+03 0.  0.
        -24    2    3    3    0    0  0.71145493797E+02 -0.45037648071E+02  0.27135257756E+03  0.29501775988E+03  0.79455561566E+02 0.  0.
          6    2    1    2  501    0 -0.75736447516E+02  0.17184480902E+03  0.20051130887E+02  0.25596977328E+03  0.17277681879E+03 0.  0.
         24    2    5    5    0    0 -0.83286402143E+02  0.19704743707E+03  0.71940210249E+01  0.22631223546E+03  0.73492562471E+02 0.  0.
          5    1    5    5  501    0  0.75499546271E+01 -0.25202628054E+02  0.12857109862E+02  0.29657537822E+02  0.47000000000E+01 0. -1.
        -11    1    6    6    0    0 -0.52112806119E+02  0.12033363328E+03  0.40221209341E+02  0.13716294522E+03  0.00000000000E+00 0.  1.
         12    1    6    6    0    0 -0.31173596023E+02  0.76713803796E+02 -0.33027188316E+02  0.89149290238E+02  0.00000000000E+00 0. -1.
         -5    1    3    3    0  503  0.45909537182E+01 -0.12680716095E+03  0.56282689911E+03  0.57697256545E+03  0.47000000000E+01 0.  1.
         11    1    4    4    0    0  0.16061279337E+02 -0.23346694643E+01  0.17684954384E+03  0.17759272657E+03  0.00000000000E+00 0. -1.
        -12    1    4    4    0    0  0.55084214461E+02 -0.42702978606E+02  0.94503033728E+02  0.11742503331E+03  0.00000000000E+00 0.  1.
</event>
<event>
12    1  0.9873238E-001  0.7777577E+03  0.7818608E-02  0.9592945E-01
         21   -1    0    0  501  502  0.00000000000E+00  0.00000000000E+00  0.56227660533E+03  0.56227660533E+03  0.00000000000E+00 0.  1.
         21   -1    0    0  502  503 -0.00000000000E+00 -0.00000000000E+00 -0.10851955076E+04  0.10851955076E+04  0.00000000000E+00 0.  1.
         -6    2    1    2    0  503  0.38122603053E+03  0.65588119876E+03 -0.18253439588E+03  0.79889034273E+03  0.17144544550E+03 0.  0.
        -24    2    3    3    0    0  0.10248050351E+03  0.20884269185E+03 -0.10137199460E+03  0.26583132078E+03  0.79199029543E+02 0.  0.
          6    2    1    2  501    0 -0.38122603053E+03 -0.65588119876E+03 -0.34038450639E+03  0.84858177020E+03  0.16945788648E+03 0.  0.
         24    2    5    5    0    0 -0.14090177697E+03 -0.24771463347E+03 -0.69839567061E+02  0.30307984897E+03  0.75920875504E+02 0.  0.
          5    1    5    5  501    0 -0.24032425357E+03 -0.40816656528E+03 -0.27054493933E+03  0.54550192123E+03  0.47000000000E+01 0. -1.
        -13    1    6    6    0    0 -0.60881019929E+02 -0.41644508384E+02 -0.20909088546E+02  0.76667813651E+02  0.00000000000E+00 0.  1.
         14    1    6    6    0    0 -0.80020757038E+02 -0.20607012509E+03 -0.48930478514E+02  0.22641203532E+03  0.00000000000E+00 0. -1.
         -5    1    3    3    0  503  0.27874552703E+03  0.44703850691E+03 -0.81162401279E+02  0.53305902194E+03  0.47000000000E+01 0.  1.
         13    1    4    4    0    0  0.36434371141E+02  0.14002769580E+03 -0.32805810341E+02  0.14836252958E+03  0.00000000000E+00 0. -1.
        -14    1    4    4    0    0  0.66046132366E+02  0.68814996049E+02 -0.68566184261E+02  0.11746879120E+03  0.00000000000E+00 0.  1.
</event>
<event>
12    1  0.9873238E-001  0.1746628E+03  0.7818608E-02  0.1173142E+00
         21   -1    0    0  501  502  0.00000000000E+00  0.00000000000E+00  0.89700478891E+03  0.89700478891E+03  0.00000000000E+00 0.  1.
         21   -1    0    0  502  503 -0.00000000000E+00 -0.00000000000E+00 -0.34831454101E+02  0.34831454101E+02  0.00000000000E+00 0.  1.
         -6    2    1    2    0  503  0.26093936924E+02  0.14147728129E+00  0.50533985884E+03  0.53467324709E+03  0.17270261914E+03 0.  0.
        -24    2    3    3    0    0  0.56002445475E+02 -0.50535527279E+02  0.26747653228E+03  0.28959421943E+03  0.81430971939E+02 0.  0.
          6    2    1    2  501    0 -0.26093936924E+02 -0.14147728129E+00  0.35683347597E+03  0.39716299592E+03  0.17241636291E+03 0.  0.
         24    2    5    5    0    0 -0.43652970873E+01 -0.65968849671E+02  0.19638873271E+03  0.22232025977E+03  0.80540788577E+02 0.  0.
          5    1    5    5  501    0 -0.21728639837E+02  0.65827372390E+02  0.16044474326E+03  0.17484273616E+03  0.47000000000E+01 0. -1.
        -11    1    6    6    0    0 -0.42145775909E+01  0.66525640715E+01 -0.42459733222E+01  0.89469303366E+01  0.00000000000E+00 0.  1.
         12    1    6    6    0    0 -0.15071949636E+00 -0.72621413743E+02  0.20063470603E+03  0.21337332943E+03  0.00000000000E+00 0. -1.
         -5    1    3    3    0  503 -0.29908508551E+02  0.50677004561E+02  0.23786332655E+03  0.24507902765E+03  0.47000000000E+01 0.  1.
         11    1    4    4    0    0  0.69006385236E+02 -0.12966609527E+02  0.18902518376E+03  0.20164457409E+03  0.00000000000E+00 0. -1.
        -12    1    4    4    0    0 -0.13003939762E+02 -0.37568917753E+02  0.78451348526E+02  0.87949645343E+02  0.00000000000E+00 0.  1.
</event>
<event>
12    1  0.9873238E-001  0.2780934E+03  0.7818608E-02  0.1097385E+00
         21   -1    0    0  501  502  0.00000000000E+00  0.00000000000E+00  0.49275992219E+03  0.49275992219E+03  0.00000000000E+00 0. -1.
         21   -1    0    0  502  503 -0.00000000000E+00 -0.00000000000E+00 -0.15578726401E+03  0.15578726401E+03  0.00000000000E+00 0. -1.
         -6    2    1    2    0  503 -0.89582706305E+02  0.19982895105E+03  0.13838152834E+03  0.31062095798E+03  0.17140379578E+03 0.  0.
        -24    2    3    3    0    0 -0.12448628357E+03  0.18974060297E+03  0.13110774147E+03  0.27327082480E+03  0.77391036961E+02 0.  0.
          6    2    1    2  501    0  0.89582706305E+02 -0.19982895105E+03  0.19859112984E+03  0.33792622821E+03  0.16370408643E+03 0.  0.
         24    2    5    5    0    0  0.95650682881E+02 -0.90486042572E+02  0.68588003372E+02  0.16788036714E+03  0.78375547392E+02 0.  0.
          5    1    5    5  501    0 -0.60679765766E+01 -0.10934290848E+03  0.13000312647E+03  0.17004586107E+03  0.47000000000E+01 0. -1.
        -11    1    6    6    0    0  0.28320083387E+02  0.10124414145E+02  0.30828851265E+01  0.30233012843E+02  0.00000000000E+00 0.  1.
         12    1    6    6    0    0  0.67330599494E+02 -0.10061045672E+03  0.65505118246E+02  0.13764735430E+03  0.00000000000E+00 0. -1.
         -5    1    3    3    0  503  0.34903577268E+02  0.10088348080E+02  0.72737868649E+01  0.37350133179E+02  0.47000000000E+01 0.  1.
         11    1    4    4    0    0 -0.32067376196E+02  0.52474364011E+01  0.99460039121E+01  0.33981983443E+02  0.00000000000E+00 0. -1.
        -12    1    4    4    0    0 -0.92418907377E+02  0.18449316657E+03  0.12116173756E+03  0.23928884136E+03  0.00000000000E+00 0.  1.
</event>
<event>
12    1  0.9873238E-001  0.2283325E+03  0.7818608E-02  0.1127958E+00
         21   -1    0    0  503  502  0.00000000000E+00  0.00000000000E+00  0.14271369899E+04  0.14271369899E+04  0.00000000000E+00 0.  1.
         21   -1    0    0  501  503 -0.00000000000E+00 -0.00000000000E+00 -0.40698818467E+02  0.40698818467E+02  0.00000000000E+00 0. -1.
          6    2    1    2  501    0  0.11362816384E+03  0.92867567563E+02  0.93048238189E+03  0.95790305975E+03  0.17391108113E+03 0.  0.
         24    2    3    3    0    0  0.40706574798E+02  0.76652429360E+02  0.78979360670E+03  0.79854211623E+03  0.79768101660E+02 0.  0.
         -6    2    1    2    0  502 -0.11362816384E+03 -0.92867567563E+02  0.45595578956E+03  0.50993274864E+03  0.17492850362E+03 0.  0.
        -24    2    5    5    0    0 -0.80573167932E+02 -0.13284258158E+03  0.32292954046E+03  0.36707370115E+03  0.79501113842E+02 0.  0.
          5    1    3    3  501    0  0.72921589042E+02  0.16215138203E+02  0.14068877519E+03  0.15936094352E+03  0.47000000000E+01 0. -1.
        -11    1    4    4    0    0  0.42829856220E+02  0.67659740747E+01  0.20179248554E+03  0.20639860031E+03  0.00000000000E+00 0.  1.
         12    1    4    4    0    0 -0.21232814213E+01  0.69886455286E+02  0.58800112117E+03  0.59214351592E+03  0.00000000000E+00 0. -1.
         -5    1    5    5    0  502 -0.33054995908E+02  0.39975014016E+02  0.13302624910E+03  0.14285904749E+03  0.47000000000E+01 0.  1.
         13    1    6    6    0    0 -0.51116054791E+02 -0.17818698155E+02  0.12571146751E+03  0.13687121730E+03  0.00000000000E+00 0. -1.
        -14    1    6    6    0    0 -0.29457113141E+02 -0.11502388342E+03  0.19721807295E+03  0.23020248385E+03  0.00000000000E+00 0.  1.
</event>
<event>
12    1  0.9873238E-001  0.5308820E+03  0.7818608E-02  0.1006033E+00
         21   -1    0    0  503  502  0.00000000000E+00  0.00000000000E+00  0.39055755540E+03  0.39055755540E+03  0.00000000000E+00 0.  1.
         21   -1    0    0  501  503 -0.00000000000E+00 -0.00000000000E+00 -0.94376385304E+03  0.94376385304E+03  0.00000000000E+00 0. -1.
          6    2    1    2  501    0 -0.42334156778E+03 -0.26976046592E+03  0.47258103736E+02  0.53298128988E+03  0.17276265515E+03 0.  0.
         24    2    3    3    0    0 -0.17774754748E+03 -0.63617416989E+02 -0.18569541443E+02  0.20561796222E+03  0.79325608339E+02 0.  0.
         -6    2    1    2    0  502  0.42334156778E+03  0.26976046592E+03 -0.60046440138E+03  0.80134011855E+03  0.17204562272E+03 0.  0.
        -24    2    5    5    0    0  0.36378840615E+03  0.21110166162E+03 -0.56846562512E+03  0.71171062529E+03  0.80454528849E+02 0.  0.
          5    1    3    3  501    0 -0.24559402030E+03 -0.20614304893E+03  0.65827645179E+02  0.32736332766E+03  0.47000000000E+01 0. -1.
        -13    1    4    4    0    0 -0.51252057085E+02 -0.33964256915E+02 -0.40820830220E+02  0.73801655015E+02  0.00000000000E+00 0.  1.
         14    1    4    4    0    0 -0.12649549040E+03 -0.29653160074E+02  0.22251288776E+02  0.13181630721E+03  0.00000000000E+00 0. -1.
         -5    1    5    5    0  502  0.59553161628E+02  0.58658804294E+02 -0.31998776259E+02  0.89629493266E+02  0.47000000000E+01 0.  1.
         13    1    6    6    0    0  0.21025818124E+03  0.14798274365E+03 -0.29040391296E+03  0.38786831252E+03  0.00000000000E+00 0. -1.
        -14    1    6    6    0    0  0.15353022492E+03  0.63118917977E+02 -0.27806171216E+03  0.32384231277E+03  0.00000000000E+00 0.  1.
</event>
<event>
12    1  0.9873238E-001  0.1761450E+03  0.7818608E-02  0.1171680E+00
         21   -1    0    0  501  502  0.00000000000E+00  0.00000000000E+00  0.92278244849E+02  0.92278244849E+02  0.00000000000E+00 0.  1.
         21   -1    0    0  502  503 -0.00000000000E+00 -0.00000000000E+00 -0.57135718014E+03  0.57135718014E+03  0.00000000000E+00 0.  1.
         -6    2    1    2    0  503  0.13285168538E+02 -0.23101368574E+02 -0.45257154904E+03  0.48550708169E+03  0.17374104418E+03 0.  0.
        -24    2    3    3    0    0 -0.28096399530E+02 -0.47682290933E+02 -0.14337986748E+03  0.17255621994E+03  0.78452878257E+02 0.  0.
          6    2    1    2  501    0 -0.13285168538E+02  0.23101368574E+02 -0.26507386251E+02  0.17812834330E+03  0.17411747824E+03 0.  0.
         24    2    5    5    0    0 -0.29515432599E+02 -0.49339998647E+02  0.25304342582E+01  0.98275615259E+02  0.79662395325E+02 0.  0.
          5    1    5    5  501    0  0.16230264061E+02  0.72441367221E+02 -0.29037820510E+02  0.79852728045E+02  0.47000000000E+01 0. -1.
        -13    1    6    6    0    0 -0.97087748767E+01  0.13320709218E+02 -0.22553109674E+02  0.27934644434E+02  0.00000000000E+00 0.  1.
         14    1    6    6    0    0 -0.19806657722E+02 -0.62660707865E+02  0.25083543933E+02  0.70340970824E+02  0.00000000000E+00 0. -1.
         -5    1    3    3    0  503  0.41381568068E+02  0.24580922359E+02 -0.30919168157E+03  0.31295086175E+03  0.47000000000E+01 0.  1.
         11    1    4    4    0    0 -0.81425009007E+01 -0.36696854507E+02 -0.14493021733E+03  0.14972550666E+03  0.00000000000E+00 0. -1.
        -12    1    4    4    0    0 -0.19953898629E+02 -0.10985436426E+02  0.15503498494E+01  0.22830713275E+02  0.00000000000E+00 0.  1.
</event>
<event>
12    1  0.9873238E-001  0.2873319E+03  0.7818608E-02  0.1091924E+00
         21   -1    0    0  501  502  0.00000000000E+00  0.00000000000E+00  0.26420713751E+04  0.26420713751E+04  0.00000000000E+00 0.  1.
         21   -1    0    0  502  503 -0.00000000000E+00 -0.00000000000E+00 -0.50708608475E+02  0.50708608475E+02  0.00000000000E+00 0.  1.
         -6    2    1    2    0  503  0.14499852059E+03 -0.17802007336E+03  0.21346102890E+04  0.21538618061E+04  0.17275380346E+03 0.  0.
        -24    2    3    3    0    0  0.90848029665E+02 -0.16271217344E+03  0.19546142698E+04  0.19652159358E+04  0.82632407671E+02 0.  0.
          6    2    1    2  501    0 -0.14499852059E+03  0.17802007336E+03  0.45675247768E+03  0.53891817748E+03  0.17057039209E+03 0.  0.
         24    2    5    5    0    0 -0.77059650030E+01  0.42215292933E+02  0.18789304220E+03  0.20785976835E+03  0.77848411279E+02 0.  0.
          5    1    5    5  501    0 -0.13729255558E+03  0.13580478042E+03  0.26885943548E+03  0.33105840913E+03  0.47000000000E+01 0. -1.
        -13    1    6    6    0    0 -0.13228189718E+02  0.64436467817E+02  0.13282683758E+03  0.14822284632E+03  0.00000000000E+00 0.  1.
         14    1    6    6    0    0  0.55222247147E+01 -0.22221174884E+02  0.55066204619E+02  0.59636922038E+02  0.00000000000E+00 0. -1.
         -5    1    3    3    0  503  0.54150490922E+02 -0.15307899915E+02  0.17999601915E+03  0.18864587029E+03  0.47000000000E+01 0.  1.
         11    1    4    4    0    0  0.50410342271E+02 -0.14937740420E+03  0.16713839927E+04  0.16788029254E+04  0.00000000000E+00 0. -1.
        -12    1    4    4    0    0  0.40437687394E+02 -0.13334769240E+02  0.28323027715E+03  0.28641301040E+03  0.00000000000E+00 0.  1.
</event>
<event>
12    1  0.9873238E-001  0.1744142E+03  0.7818608E-02  0.1174466E+00
         21   -1    0    0  501  502  0.00000000000E+00  0.00000000000E+00  0.64119204863E+02  0.64119204863E+02  0.00000000000E+00 0.  1.
         21   -1    0    0  502  503 -0.00000000000E+00 -0.00000000000E+00 -0.46719666781E+03  0.46719666781E+03  0.00000000000E+00 0.  1.
         -6    2    1    2    0  503  0.17568629791E+02  0.26351095280E+01 -0.22604130994E+03  0.28279605321E+03  0.16900690329E+03 0.  0.
        -24    2    3    3    0    0  0.19411315118E+02  0.65771624438E+02 -0.15947782598E+03  0.19091350644E+03  0.79448626335E+02 0.  0.
          6    2    1    2  501    0 -0.17568629791E+02 -0.26351095280E+01 -0.17703615301E+03  0.24851981946E+03  0.17350706222E+03 0.  0.
         24    2    5    5    0    0  0.19316671049E+02  0.57822861289E+02 -0.13399206005E+03  0.16551032849E+03  0.75651699333E+02 0.  0.
          5    1    5    5  501    0 -0.36885300841E+02 -0.60457970817E+02 -0.43044092966E+02  0.83009490979E+02  0.47000000000E+01 0. -1.
        -13    1    6    6    0    0  0.33317232234E+02  0.58050474578E+02 -0.59005091252E+02  0.89227217575E+02  0.00000000000E+00 0.  1.
         14    1    6    6    0    0 -0.14000561185E+02 -0.22761328971E+00 -0.74986968794E+02  0.76283110910E+02  0.00000000000E+00 0. -1.
         -5    1    3    3    0  503 -0.18426853265E+01 -0.63136514910E+02 -0.66563483956E+02  0.91882546768E+02  0.47000000000E+01 0.  1.
         11    1    4    4    0    0  0.15501126836E+02 -0.14179802425E+02 -0.57852045978E+02  0.61548443960E+02  0.00000000000E+00 0. -1.
        -12    1    4    4    0    0  0.39101882815E+01  0.79951426863E+02 -0.10162578000E+03  0.12936506248E+03  0.00000000000E+00 0.  1.
</event>
<event>
12    1  0.9873238E-001  0.2018021E+03  0.7818608E-02  0.1148811E+00
         21   -1    0    0  503  502  0.00000000000E+00  0.00000000000E+00  0.56396954605E+02  0.56396954605E+02  0.00000000000E+00 0. -1.
         21   -1    0    0  501  503 -0.00000000000E+00 -0.00000000000E+00 -0.17780780446E+04  0.17780780446E+04  0.00000000000E+00 0. -1.
          6    2    1    2  501    0  0.73092496271E+02 -0.65231666955E+02 -0.15306814748E+03  0.25328629245E+03  0.17642676890E+03 0.  0.
         24    2    3    3    0    0  0.61601620166E+02 -0.19755327049E+02 -0.85509525799E+01  0.10127495292E+03  0.77449756256E+02 0.  0.
         -6    2    1    2    0  502 -0.73092496271E+02  0.65231666955E+02 -0.15686129425E+04  0.15811887067E+04  0.17324398852E+03 0.  0.
        -24    2    5    5    0    0 -0.50933510702E+02 -0.12720070589E+02 -0.11947778233E+04  0.11986416111E+04  0.80570727475E+02 0.  0.
          5    1    3    3  501    0  0.11490876105E+02 -0.45476339907E+02 -0.14451719490E+03  0.15201133953E+03  0.47000000000E+01 0. -1.
        -11    1    4    4    0    0  0.16755796466E+00 -0.37064440549E+02 -0.21094422852E+01  0.37124797315E+02  0.00000000000E+00 0.  1.
         12    1    4    4    0    0  0.61434062201E+02  0.17309113501E+02 -0.64415102947E+01  0.64150155601E+02  0.00000000000E+00 0. -1.
         -5    1    5    5    0  502 -0.22158985569E+02  0.77951737544E+02 -0.37383511918E+03  0.38254709561E+03  0.47000000000E+01 0.  1.
         13    1    6    6    0    0 -0.47115299978E+00 -0.27613231703E+02 -0.14878979797E+03  0.15133114858E+03  0.00000000000E+00 0. -1.
        -14    1    6    6    0    0 -0.50462357702E+02  0.14893161114E+02 -0.10459880254E+04  0.10473104626E+04  0.00000000000E+00 0.  1.
</event>
<event>
12    1  0.9873238E-001  0.2206350E+03  0.7818608E-02  0.1133652E+00
         21   -1    0    0  503  502  0.00000000000E+00  0.00000000000E+00  0.29210447843E+03  0.29210447843E+03  0.00000000000E+00 0. -1.
         21   -1    0    0  501  503 -0.00000000000E+00 -0.00000000000E+00 -0.21340317856E+03  0.21340317856E+03  0.00000000000E+00 0. -1.
          6    2    1    2  501    0  0.49800548140E+02  0.12821837867E+03  0.15879114360E+03  0.27078617314E+03  0.17085220822E+03 0.  0.
         24    2    3    3    0    0 -0.28078392576E+02  0.96662499047E+02  0.12771227706E+03  0.18107057309E+03  0.79649807765E+02 0.  0.
         -6    2    1    2    0  502 -0.49800548140E+02 -0.12821837867E+03 -0.80089843725E+02  0.23472148385E+03  0.17251012924E+03 0.  0.
        -24    2    5    5    0    0 -0.88890255849E+02 -0.47896322386E+02 -0.30800788198E+02  0.13258853633E+03  0.80221544051E+02 0.  0.
          5    1    3    3  501    0  0.77878940716E+02  0.31555879624E+02  0.31078866542E+02  0.89715600045E+02  0.47000000000E+01 0. -1.
        -11    1    4    4    0    0 -0.79903381418E+01  0.10405644779E+03  0.90481580985E+02  0.13812496634E+03  0.00000000000E+00 0.  1.
         12    1    4    4    0    0 -0.20088054434E+02 -0.73939487414E+01  0.37230696071E+02  0.42945606747E+02  0.00000000000E+00 0. -1.
         -5    1    5    5    0  502  0.39089707709E+02 -0.80322056285E+02 -0.49289055526E+02  0.10213294752E+03  0.47000000000E+01 0.  1.
         11    1    6    6    0    0 -0.24006223939E+02  0.20994925703E+02  0.31501046352E+01  0.32046978833E+02  0.00000000000E+00 0. -1.
        -12    1    6    6    0    0 -0.64884031910E+02 -0.68891248089E+02 -0.33950892834E+02  0.10054155750E+03  0.00000000000E+00 0.  1.
</event>
<event>
12    1  0.9873238E-001  0.2509182E+03  0.7818608E-02  0.1112879E+00
         21   -1    0    0  501  502  0.00000000000E+00  0.00000000000E+00  0.86209060741E+03  0.86209060741E+03  0.00000000000E+00 0. -1.
         21   -1    0    0  502  503 -0.00000000000E+00 -0.00000000000E+00 -0.75488286316E+02  0.75488286316E+02  0.00000000000E+00 0. -1.
         -6    2    1    2    0  503 -0.17402955892E+03 -0.54242278378E+02  0.30325229599E+03  0.39298068111E+03  0.17100686699E+03 0.  0.
        -24    2    3    3    0    0 -0.10542501018E+03 -0.74469357229E+01  0.69926525429E+02  0.14527239822E+03  0.71024369778E+02 0.  0.
          6    2    1    2  501    0  0.17402955892E+03  0.54242278378E+02  0.48335002509E+03  0.54459821262E+03  0.17242811338E+03 0.  0.
         24    2    5    5    0    0  0.18068334951E+03  0.87889470470E+02  0.41394920436E+03  0.46704197248E+03  0.80020175333E+02 0.  0.
          5    1    5    5  501    0 -0.66537905951E+01 -0.33647192092E+02  0.69400820736E+02  0.77556240135E+02  0.47000000000E+01 0. -1.
        -11    1    6    6    0    0  0.16657512495E+03  0.49018619605E+02  0.35292051631E+03  0.39332300741E+03  0.00000000000E+00 0.  1.
         12    1    6    6    0    0  0.14108224559E+02  0.38870850864E+02  0.61028688044E+02  0.73718965073E+02  0.00000000000E+00 0. -1.
         -5    1    3    3    0  503 -0.68604548735E+02 -0.46795342655E+02  0.23332577057E+03  0.24770828289E+03  0.47000000000E+01 0.  1.
         11    1    4    4    0    0 -0.19837527183E+01 -0.20178698399E+02  0.96114959295E+00  0.20298742633E+02  0.00000000000E+00 0. -1.
        -12    1    4    4    0    0 -0.10344125746E+03  0.12731762677E+02  0.68965375836E+02  0.12497365558E+03  0.00000000000E+00 0.  1.
</event>
<event>
12    1  0.9873238E-001  0.2017825E+03  0.7818608E-02  0.1148554E+00
         21   -1    0    0  501  502  0.00000000000E+00  0.00000000000E+00  0.95810860120E+02  0.95810860120E+02  0.00000000000E+00 0. -1.
         21   -1    0    0  502  503 -0.00000000000E+00 -0.00000000000E+00 -0.44239933528E+03  0.44239933528E+03  0.00000000000E+00 0. -1.
         -6    2    1    2    0  503  0.96684411243E+01 -0.10552408502E+03 -0.11589910301E+03  0.23269889068E+03  0.17171884105E+03 0.  0.
        -24    2    3    3    0    0  0.30627555493E+02 -0.39787256276E+02 -0.13194286503E+03  0.16170517667E+03  0.78857920416E+02 0.  0.
          6    2    1    2  501    0 -0.96684411243E+01  0.10552408502E+03 -0.23068937216E+03  0.30551130472E+03  0.16997282023E+03 0.  0.
         24    2    5    5    0    0 -0.13352421072E+01  0.12152959378E+03 -0.24309671289E+03  0.28311374636E+03  0.79285285647E+02 0.  0.
          5    1    5    5  501    0 -0.83331990171E+01 -0.16005508762E+02  0.12407340739E+02  0.22397558367E+02  0.47000000000E+01 0. -1.
        -11    1    6    6    0    0 -0.19629533822E+02  0.49667116023E+02 -0.39479040558E+02  0.66413369554E+02  0.00000000000E+00 0.  1.
         12    1    6    6    0    0  0.18294291715E+02  0.71862477758E+02 -0.20361767234E+03  0.21670037680E+03  0.00000000000E+00 0. -1.
         -5    1    3    3    0  503 -0.20959114369E+02 -0.65736828743E+02  0.16043762026E+02  0.70993714005E+02  0.47000000000E+01 0.  1.
         13    1    4    4    0    0  0.54545101761E+02 -0.42010473573E+02 -0.89255538838E+02  0.11272355224E+03  0.00000000000E+00 0. -1.
        -14    1    4    4    0    0 -0.23917546268E+02  0.22232172969E+01 -0.42687326194E+02  0.48981624434E+02  0.00000000000E+00 0.  1.
</event>
<event>
12    1  0.9873238E-001  0.1862536E+03  0.7818608E-02  0.1162225E+00
         21   -1    0    0  503  502  0.00000000000E+00  0.00000000000E+00  0.53189212531E+03  0.53189212531E+03  0.00000000000E+00 0.  1.
         21   -1    0    0  501  503 -0.00000000000E+00 -0.00000000000E+00 -0.20026818831E+03  0.20026818831E+03  0.00000000000E+00 0.  1.
          6    2    1    2  501    0  0.21815321414E+02 -0.68106692080E+02  0.46720860167E+03  0.50296547166E+03  0.17197662183E+03 0.  0.
         24    2    3    3    0    0  0.59869346868E+02 -0.58163280316E+02  0.43888198998E+03  0.45426775898E+03  0.82307289143E+02 0.  0.
         -6    2    1    2    0  502 -0.21815321414E+02  0.68106692080E+02 -0.13558466467E+03  0.22919484196E+03  0.17038968435E+03 0.  0.
        -24    2    5    5    0    0  0.31201313255E+02  0.53155358816E+02 -0.14131202076E+03  0.17361428308E+03  0.79836194543E+02 0.  0.
          5    1    3    3  501    0 -0.38054025454E+02 -0.99434117633E+01  0.28326611688E+02  0.48697712682E+02  0.47000000000E+01 0. -1.
        -11    1    4    4    0    0  0.21638594119E+02  0.16744536238E+02  0.18001341700E+03  0.18208085717E+03  0.00000000000E+00 0.  1.
         12    1    4    4    0    0  0.38230752749E+02 -0.74907816554E+02  0.25886857299E+03  0.27218690181E+03  0.00000000000E+00 0. -1.
         -5    1    5    5    0  502 -0.53016634669E+02  0.14951333264E+02  0.57273560841E+01  0.55580558883E+02  0.47000000000E+01 0.  1.
         13    1    6    6    0    0  0.10965513783E+02 -0.11503699729E+02 -0.82132446020E+02  0.83655939952E+02  0.00000000000E+00 0. -1.
        -14    1    6    6    0    0  0.20235799472E+02  0.64659058546E+02 -0.59179574738E+02  0.89958343128E+02  0.00000000000E+00 0.  1.
</event>
<event>
12    1  0.9873238E-001  0.2216619E+03  0.7818608E-02  0.1132754E+00
         21   -1    0    0  501  502  0.00000000000E+00  0.00000000000E+00  0.65505779308E+03  0.65505779308E+03  0.00000000000E+00 0. -1.
         21   -1    0    0  502  503 -0.00000000000E+00 -0.00000000000E+00 -0.97432305160E+02  0.97432305160E+02  0.00000000000E+00 0. -1.
         -6    2    1    2    0  503 -0.13869831425E+03  0.18315248864E+02  0.45981021043E+03  0.51020553553E+03  0.17120627367E+03 0.  0.
        -24    2    3    3    0    0 -0.67420261522E+02 -0.52941800039E+02  0.29192027846E+03  0.31432994471E+03  0.78978093866E+02 0.  0.
          6    2    1    2  501    0  0.13869831425E+03 -0.18315248864E+02  0.97815277485E+02  0.24228456271E+03  0.17193402834E+03 0.  0.
         24    2    5    5    0    0  0.48076100048E+02  0.51602000686E+02  0.52139963691E+02  0.11895925395E+03  0.80365729113E+02 0.  0.
          5    1    5    5  501    0  0.90622214201E+02 -0.69917249550E+02  0.45675313793E+02  0.12332530876E+03  0.47000000000E+01 0. -1.
        -11    1    6    6    0    0  0.25828146083E+02  0.42548882895E+02  0.72179735796E+02  0.87677903861E+02  0.00000000000E+00 0.  1.
         12    1    6    6    0    0  0.22247953965E+02  0.90531177903E+01 -0.20039772105E+02  0.31281350089E+02  0.00000000000E+00 0. -1.
         -5    1    3    3    0  503 -0.71278052727E+02  0.71257048903E+02  0.16788993198E+03  0.19587559082E+03  0.47000000000E+01 0.  1.
         13    1    4    4    0    0 -0.44842477480E+02  0.13003711540E+02  0.10898409983E+03  0.11856423709E+03  0.00000000000E+00 0. -1.
        -14    1    4    4    0    0 -0.22577784042E+02 -0.65945511578E+02  0.18293617863E+03  0.19576570762E+03  0.00000000000E+00 0.  1.
</event>
<event>
12    1  0.9873238E-001  0.1825424E+03  0.7818608E-02  0.1165527E+00
         21   -1    0    0  503  502  0.00000000000E+00  0.00000000000E+00  0.35757390914E+03  0.35757390914E+03  0.00000000000E+00 0.  1.
         21   -1    0    0  501  503 -0.00000000000E+00 -0.00000000000E+00 -0.10040063015E+03  0.10040063015E+03  0.00000000000E+00 0.  1.
          6    2    1    2  501    0  0.49424370696E+02 -0.31576978996E+02  0.19163927860E+03  0.26466458651E+03  0.17286369263E+03 0.  0.
         24    2    3    3    0    0 -0.34075469216E+02  0.10619962280E+02  0.10312323199E+03  0.13578485333E+03  0.80803491357E+02 0.  0.
         -6    2    1    2    0  502 -0.49424370696E+02  0.31576978996E+02  0.65534000385E+02  0.19330995278E+03  0.17214574818E+03 0.  0.
        -24    2    5    5    0    0  0.30674575030E+02  0.49110182970E+02  0.14915943100E+02  0.96834401108E+02  0.76168735416E+02 0.  0.
          5    1    3    3  501    0  0.83499839912E+02 -0.42196941275E+02  0.88516046613E+02  0.12887973319E+03  0.47000000000E+01 0. -1.
        -11    1    4    4    0    0  0.25317437722E+02 -0.71910537541E+01  0.29781898495E+02  0.39744752922E+02  0.00000000000E+00 0.  1.
         12    1    4    4    0    0 -0.59392906938E+02  0.17811016034E+02  0.73341333497E+02  0.96040100405E+02  0.00000000000E+00 0. -1.
         -5    1    5    5    0  502 -0.80098945726E+02 -0.17533203974E+02  0.50618057285E+02  0.96475551677E+02  0.47000000000E+01 0.  1.
         11    1    6    6    0    0  0.12602090391E+02  0.55144240106E+02 -0.17519491417E+02  0.59216825975E+02  0.00000000000E+00 0. -1.
        -12    1    6    6    0    0  0.18072484640E+02 -0.60340571362E+01  0.32435434517E+02  0.37617575133E+02  0.00000000000E+00 0.  1.
</event>
<event>
12    1  0.9873238E-001  0.1862092E+03  0.7818608E-02  0.1161942E+00
         21   -1    0    0  503  502  0.00000000000E+00  0.00000000000E+00  0.27787812708E+03  0.27787812708E+03  0.00000000000E+00 0.  1.
         21   -1    0    0  501  503 -0.00000000000E+00 -0.00000000000E+00 -0.12742519935E+03  0.12742519935E+03  0.00000000000E+00 0.  1.
          6    2    1    2  501    0 -0.38181448249E+02 -0.58471695552E+02  0.45784544405E+02  0.19175527246E+03  0.17261835893E+03 0.  0.
         24    2    3    3    0    0 -0.14134326853E+02 -0.10434140760E+03  0.19374258308E+02  0.13342956850E+03  0.79631522221E+02 0.  0.
         -6    2    1    2    0  502  0.38181448249E+02  0.58471695552E+02  0.10466838332E+03  0.21354805397E+03  0.17254141160E+03 0.  0.
        -24    2    5    5    0    0 -0.13821814630E+02 -0.21592617090E+02  0.12764195524E+02  0.80946759694E+02  0.75711092616E+02 0.  0.
          5    1    3    3  501    0 -0.24047121395E+02  0.45869712045E+02  0.26410286097E+02  0.58325703958E+02  0.47000000000E+01 0. -1.
        -11    1    4    4    0    0  0.61099724693E+01 -0.88553680662E+02 -0.15517902741E+02  0.90110440171E+02  0.00000000000E+00 0.  1.
         12    1    4    4    0    0 -0.20244299322E+02 -0.15787726935E+02  0.34892161049E+02  0.43319128333E+02  0.00000000000E+00 0. -1.
         -5    1    5    5    0  502  0.52003262878E+02  0.80064312642E+02  0.91904187797E+02  0.13260129427E+03  0.47000000000E+01 0.  1.
         13    1    6    6    0    0  0.24640107960E+02  0.12040881975E+02 -0.27182308982E+01  0.27559146181E+02  0.00000000000E+00 0. -1.
        -14    1    6    6    0    0 -0.38461922590E+02 -0.33633499065E+02  0.15482426423E+02  0.53387613513E+02  0.00000000000E+00 0.  1.
</event>
<event>
12    1  0.9873238E-001  0.4953878E+03  0.7818608E-02  0.1014993E+00
         21   -1    0    0  503  502  0.00000000000E+00  0.00000000000E+00  0.37200469876E+03  0.37200469876E+03  0.00000000000E+00 0. -1.
         21   -1    0    0  501  503 -0.00000000000E+00 -0.00000000000E+00 -0.75547560693E+03  0.75547560693E+03  0.00000000000E+00 0. -1.
          6    2    1    2  501    0 -0.12348980598E+03 -0.44758260376E+03 -0.39253162693E+03  0.63200967581E+03  0.17255501384E+03 0.  0.
         24    2    3    3    0    0 -0.89735669397E+02 -0.25422185270E+03 -0.31131950179E+03  0.41953562784E+03  0.80056667960E+02 0.  0.
         -6    2    1    2    0  502  0.12348980598E+03  0.44758260376E+03  0.90607187624E+01  0.49547062989E+03  0.17271111454E+03 0.  0.
        -24    2    5    5    0    0  0.10436348949E+03  0.24861728186E+03  0.62515854074E+02  0.28851035159E+03  0.81410688392E+02 0.  0.
          5    1    3    3  501    0 -0.33754136579E+02 -0.19336075106E+03 -0.81212125143E+02  0.21247404796E+03  0.47000000000E+01 0. -1.
        -11    1    4    4    0    0 -0.13465091894E+02 -0.11384051614E+03 -0.85923599013E+02  0.14326142776E+03  0.00000000000E+00 0.  1.
         12    1    4    4    0    0 -0.76270577503E+02 -0.14038133655E+03 -0.22539590277E+03  0.27627420008E+03  0.00000000000E+00 0. -1.
         -5    1    5    5    0  502  0.19126316482E+02  0.19896532191E+03 -0.53455135312E+02  0.20696027830E+03  0.47000000000E+01 0.  1.
         13    1    6    6    0    0  0.90775621775E+02  0.23172946872E+03  0.79182675205E+02  0.26116786983E+03  0.00000000000E+00 0. -1.
        -14    1    6    6    0    0  0.13587867718E+02  0.16887813140E+02 -0.16666821131E+02  0.27342481753E+02  0.00000000000E+00 0.  1.
</event>
<event>
12    1  0.9873238E-001  0.2311078E+03  0.7818608E-02  0.1126092E+00
         21   -1    0    0  503  502  0.00000000000E+00  0.00000000000E+00  0.17382800085E+03  0.17382800085E+03  0.00000000000E+00 0.  1.
         21   -1    0    0  501  503 -0.00000000000E+00 -0.00000000000E+00 -0.35958406026E+03  0.35958406026E+03  0.00000000000E+00 0.  1.
          6    2    1    2  501    0 -0.15378045454E+03 -0.20345354761E-01 -0.19606692554E+03  0.30207436687E+03  0.17075788479E+03 0.  0.
         24    2    3    3    0    0 -0.18194194999E+03 -0.13742038881E+02 -0.16781003455E+03  0.25962561438E+03  0.77159154669E+02 0.  0.
         -6    2    1    2    0  502  0.15378045454E+03  0.20345354761E-01  0.10310866131E+02  0.23133769423E+03  0.17251778516E+03 0.  0.
        -24    2    5    5    0    0  0.57119280755E+02  0.49567800744E+02 -0.45150759418E+02  0.10928682466E+03  0.64694975572E+02 0.  0.
          5    1    3    3  501    0  0.28161495450E+02  0.13721693527E+02 -0.28256890994E+02  0.42448752489E+02  0.47000000000E+01 0. -1.
        -13    1    4    4    0    0 -0.76011590709E+02 -0.48085430438E+01 -0.12210272821E+03  0.14390955578E+03  0.00000000000E+00 0.  1.
         14    1    4    4    0    0 -0.10593035928E+03 -0.89334958376E+01 -0.45707306334E+02  0.11571605860E+03  0.00000000000E+00 0. -1.
         -5    1    5    5    0  502  0.96661173788E+02 -0.49547455389E+02  0.55461625549E+02  0.12205086957E+03  0.47000000000E+01 0.  1.
         11    1    6    6    0    0  0.59425669162E+02  0.10611909440E+02 -0.30179709749E+02  0.67489537395E+02  0.00000000000E+00 0. -1.
        -12    1    6    6    0    0 -0.23063884066E+01  0.38955891304E+02 -0.14971049669E+02  0.41797287268E+02  0.00000000000E+00 0.  1.
</event>
<event>
12    1  0.9873238E-001  0.1774495E+03  0.7818608E-02  0.1170447E+00
         21   -1    0    0  501  502  0.00000000000E+00  0.00000000000E+00  0.49912409651E+02  0.49912409651E+02  0.00000000000E+00 0. -1.
         21   -1    0    0  502  503 -0.00000000000E+00 -0.00000000000E+00 -0.64485301755E+03  0.64485301755E+03  0.00000000000E+00 0. -1.
         -6    2    1    2    0  503 -0.45836301374E+02  0.77866640220E+01 -0.24295217077E+03  0.30085559638E+03  0.17125050053E+03 0.  0.
        -24    2    3    3    0    0 -0.66986572302E+02  0.13875609645E+02 -0.79921978227E+02  0.13627934384E+03  0.86630269207E+02 0.  0.
          6    2    1    2  501    0  0.45836301374E+02 -0.77866640220E+01 -0.35198843713E+03  0.39390983081E+03  0.17060919167E+03 0.  0.
         24    2    5    5    0    0  0.16158798065E+01  0.56679245054E+02 -0.21719669598E+03  0.23801819346E+03  0.79139798995E+02 0.  0.
          5    1    5    5  501    0  0.44220421567E+02 -0.64465909076E+02 -0.13479174115E+03  0.15589163736E+03  0.47000000000E+01 0. -1.
        -13    1    6    6    0    0  0.13030629119E+02  0.93324376577E+01 -0.62742339024E+00  0.16040116832E+02  0.00000000000E+00 0.  1.
         14    1    6    6    0    0 -0.11414749313E+02  0.47346807397E+02 -0.21656927259E+03  0.22197807663E+03  0.00000000000E+00 0. -1.
         -5    1    3    3    0  503  0.21150270928E+02 -0.60889456233E+01 -0.16303019254E+03  0.16457625254E+03  0.47000000000E+01 0.  1.
         13    1    4    4    0    0 -0.68705793295E+01 -0.32871496657E+02 -0.17832252983E+02  0.38022748444E+02  0.00000000000E+00 0. -1.
        -14    1    4    4    0    0 -0.60115992972E+02  0.46747106302E+02 -0.62089725244E+02  0.98256595400E+02  0.00000000000E+00 0.  1.
</event>
<event>
12    1  0.9873238E-001  0.1915723E+03  0.7818608E-02  0.1160676E+00
         21   -1    0    0  501  502  0.00000000000E+00  0.00000000000E+00  0.12731569458E+03  0.12731569458E+03  0.00000000000E+00 0.  1.
         21   -1    0    0  502  503 -0.00000000000E+00 -0.00000000000E+00 -0.42876249666E+03  0.42876249666E+03  0.00000000000E+00 0.  1.
         -6    2    1    2    0  503 -0.34122667116E+02  0.69040777160E+01  0.24767920935E+02  0.17777145322E+03  0.17256076313E+03 0.  0.
        -24    2    3    3    0    0  0.22282403946E+02  0.34808139836E+02  0.56962463820E+02  0.10692833559E+03  0.80503630621E+02 0.  0.
          6    2    1    2  501    0  0.34122667116E+02 -0.69040777160E+01 -0.32621472302E+03  0.37830673802E+03  0.18838237661E+03 0.  0.
         24    2    5    5    0    0  0.92465024221E+02  0.23889365371E+02 -0.17188993718E+03  0.21040707664E+03  0.74863241391E+02 0.  0.
          5    1    5    5  501    0 -0.58342357106E+02 -0.30793443087E+02 -0.15432478583E+03  0.16789966138E+03  0.47000000000E+01 0. -1.
        -13    1    6    6    0    0  0.47054071457E+02 -0.47700659745E+01 -0.14041031469E+03  0.14816172124E+03  0.00000000000E+00 0.  1.
         14    1    6    6    0    0  0.45410952764E+02  0.28659431346E+02 -0.31479622498E+02  0.62245355398E+02  0.00000000000E+00 0. -1.
         -5    1    3    3    0  503 -0.56405071061E+02 -0.27904062120E+02 -0.32194542885E+02  0.70843117632E+02  0.47000000000E+01 0.  1.
         11    1    4    4    0    0 -0.27430489450E+02  0.29211739663E+02  0.20408383791E+02  0.44969540965E+02  0.00000000000E+00 0. -1.
        -12    1    4    4    0    0  0.49712893396E+02  0.55964001731E+01  0.36554080028E+02  0.61958794625E+02  0.00000000000E+00 0.  1.
</event>
<event>
12    1  0.9873238E-001  0.3034923E+03  0.7818608E-02  0.1083513E+00
         21   -1    0    0  503  502  0.00000000000E+00  0.00000000000E+00  0.15719798566E+03  0.15719798566E+03  0.00000000000E+00 0. -1.
         21   -1    0    0  501  503 -0.00000000000E+00 -0.00000000000E+00 -0.64963782487E+03  0.64963782487E+03  0.00000000000E+00 0. -1.
          6    2    1    2  501    0  0.10352413093E+03 -0.23139878805E+03 -0.11982282488E+03  0.32628983635E+03  0.16686792126E+03 0.  0.
         24    2    3    3    0    0  0.45261180340E+02 -0.20984599259E+03 -0.54575993574E+02  0.23607712439E+03  0.81669789610E+02 0.  0.
         -6    2    1    2    0  502 -0.10352413093E+03  0.23139878805E+03 -0.37261701434E+03  0.48054597418E+03  0.16678833631E+03 0.  0.
        -24    2    5    5    0    0 -0.43003519529E+02  0.95581322485E+02 -0.68364831560E+02  0.14187119053E+03  0.66847532547E+02 0.  0.
          5    1    3    3  501    0  0.58262950587E+02 -0.21552795468E+02 -0.65246831309E+02  0.90212711962E+02  0.47000000000E+01 0. -1.
        -13    1    4    4    0    0  0.21899527571E+02 -0.61896941483E+02  0.20163630023E+02  0.68683277794E+02  0.00000000000E+00 0.  1.
         14    1    4    4    0    0  0.23361652769E+02 -0.14794905110E+03 -0.74739623598E+02  0.16739384659E+03  0.00000000000E+00 0. -1.
         -5    1    5    5    0  502 -0.60520611399E+02  0.13581746557E+03 -0.30425218278E+03  0.33867478365E+03  0.47000000000E+01 0.  1.
         13    1    6    6    0    0  0.16160560046E+02  0.37698367021E+02 -0.28895331776E+02  0.50172410501E+02  0.00000000000E+00 0. -1.
        -14    1    6    6    0    0 -0.59164079575E+02  0.57882955464E+02 -0.39469499784E+02  0.91698780026E+02  0.00000000000E+00 0.  1.
</event>
<event>
12    1  0.9873238E-001  0.2244489E+03  0.7818608E-02  0.1130662E+00
         21   -1    0    0  503  502  0.00000000000E+00  0.00000000000E+00  0.98476264109E+02  0.98476264109E+02  0.00000000000E+00 0. -1.
         21   -1    0    0  501  503 -0.00000000000E+00 -0.00000000000E+00 -0.51997161398E+03  0.51997161398E+03  0.00000000000E+00 0. -1.
          6    2    1    2  501    0  0.13536005447E+02  0.14326221464E+03 -0.17005430646E+03  0.28159505459E+03  0.17224988254E+03 0.  0.
         24    2    3    3    0    0 -0.21469678079E+02  0.63001627724E+02 -0.16410602907E+03  0.19370517067E+03  0.78490459261E+02 0.  0.
         -6    2    1    2    0  502 -0.13536005447E+02 -0.14326221464E+03 -0.25144104340E+03  0.33685282350E+03  0.17187187322E+03 0.  0.
        -24    2    5    5    0    0  0.97486037732E+01 -0.50777850839E+02 -0.21533812124E+03  0.23476932061E+03  0.77927543430E+02 0.  0.
          5    1    3    3  501    0  0.35005683526E+02  0.80260586915E+02 -0.59482773937E+01  0.87889883918E+02  0.47000000000E+01 0. -1.
        -13    1    4    4    0    0  0.10357342020E+02  0.67266162948E+02 -0.89142161853E+02  0.11215318199E+03  0.00000000000E+00 0.  1.
         14    1    4    4    0    0 -0.31827020099E+02 -0.42645352247E+01 -0.74963867218E+02  0.81551988678E+02  0.00000000000E+00 0. -1.
         -5    1    5    5    0  502 -0.23284609220E+02 -0.92484363800E+02 -0.36102922159E+02  0.10208350289E+03  0.47000000000E+01 0.  1.
         11    1    6    6    0    0  0.38104215849E+02 -0.17434320923E+02 -0.58641711496E+02  0.72074524894E+02  0.00000000000E+00 0. -1.
        -12    1    6    6    0    0 -0.28355612076E+02 -0.33343529917E+02 -0.15669640975E+03  0.16269479571E+03  0.00000000000E+00 0.  1.
</event>
<event>
12    1  0.9873238E-001  0.2084719E+03  0.7818608E-02  0.1142852E+00
         21   -1    0    0  503  502  0.00000000000E+00  0.00000000000E+00  0.81489198567E+02  0.81489198567E+02  0.00000000000E+00 0.  1.
         21   -1    0    0  501  503 -0.00000000000E+00 -0.00000000000E+00 -0.53290804039E+03  0.53290804039E+03  0.00000000000E+00 0. -1.
          6    2    1    2  501    0  0.76189243870E+02  0.90202659200E+02 -0.23503146783E+03  0.31416606577E+03  0.17181154037E+03 0.  0.
         24    2    3    3    0    0  0.84439237894E+02  0.75848200363E+02 -0.86182496825E+02  0.16432542022E+03  0.81807619313E+02 0.  0.
         -6    2    1    2    0  502 -0.76189243870E+02 -0.90202659200E+02 -0.21638737400E+03  0.30023117319E+03  0.17138827591E+03 0.  0.
        -24    2    5    5    0    0 -0.96970306074E+02 -0.11290760089E+03 -0.20792596230E+03  0.26796582938E+03  0.80131849570E+02 0.  0.
          5    1    3    3  501    0 -0.82499940247E+01  0.14354458837E+02 -0.14884897100E+03  0.14984064555E+03  0.47000000000E+01 0. -1.
        -13    1    4    4    0    0  0.14208682472E+02  0.66974324628E+02 -0.34419032273E+02  0.76629737045E+02  0.00000000000E+00 0.  1.
         14    1    4    4    0    0  0.70230555422E+02  0.88738757351E+01 -0.51763464553E+02  0.87695683178E+02  0.00000000000E+00 0. -1.
         -5    1    5    5    0  502  0.20781062205E+02  0.22704941688E+02 -0.84614116933E+01  0.32265343811E+02  0.47000000000E+01 0.  1.
         11    1    6    6    0    0 -0.16593983950E+02 -0.49872107878E+02 -0.24442269921E+02  0.57965610550E+02  0.00000000000E+00 0. -1.
        -12    1    6    6    0    0 -0.80376322124E+02 -0.63035493010E+02 -0.18348369238E+03  0.21000021883E+03  0.00000000000E+00 0.  1.
</event>
<event>
12    1  0.9873238E-001  0.1832921E+03  0.7818608E-02  0.1164756E+00
         21   -1    0    0  503  502  0.00000000000E+00  0.00000000000E+00  0.45831103429E+03  0.45831103429E+03  0.00000000000E+00 0. -1.
         21   -1    0    0  501  503 -0.00000000000E+00 -0.00000000000E+00 -0.74743768387E+02  0.74743768387E+02  0.00000000000E+00 0. -1.
          6    2    1    2  501    0  0.76611166946E+01  0.60900268770E+02  0.15287074192E+03  0.23867438985E+03  0.17270919254E+03 0.  0.
         24    2    3    3    0    0  0.43993304967E+02 -0.20276279862E+02  0.62170963589E+02  0.11155948222E+03  0.78954106621E+02 0.  0.
         -6    2    1    2    0  502 -0.76611166946E+01 -0.60900268770E+02  0.23069652399E+03  0.29438041283E+03  0.17225389933E+03 0.  0.
        -24    2    5    5    0    0  0.16392602624E+02 -0.57660168547E+02  0.46292795912E+02  0.10832691356E+03  0.77448594505E+02 0.  0.
          5    1    3    3  501    0 -0.36332188273E+02  0.81176548633E+02  0.90699778331E+02  0.12711490763E+03  0.47000000000E+01 0. -1.
        -13    1    4    4    0    0  0.79973504630E+01 -0.15802632841E+02  0.71863611556E+02  0.74013914131E+02  0.00000000000E+00 0.  1.
         14    1    4    4    0    0  0.35995954504E+02 -0.44736470216E+01 -0.96926479677E+01  0.37545568087E+02  0.00000000000E+00 0. -1.
         -5    1    5    5    0  502 -0.24053719319E+02 -0.32401002236E+01  0.18440372807E+03  0.18605349927E+03  0.47000000000E+01 0.  1.
         11    1    6    6    0    0  0.37928801411E+02 -0.58833155149E+01  0.50429427437E+01  0.38712254513E+02  0.00000000000E+00 0. -1.
        -12    1    6    6    0    0 -0.21536198787E+02 -0.51776853032E+02  0.41249853168E+02  0.69614659049E+02  0.00000000000E+00 0.  1.
</event>
<event>
12    1  0.9873238E-001  0.2012933E+03  0.7818608E-02  0.1148740E+00
         21   -1    0    0  501  502  0.00000000000E+00  0.00000000000E+00  0.82629126479E+02  0.82629126479E+02  0.00000000000E+00 0.  1.
         21   -1    0    0  502  503 -0.00000000000E+00 -0.00000000000E+00 -0.49770164603E+03  0.49770164603E+03  0.00000000000E+00 0.  1.
         -6    2    1    2    0  503 -0.10389653349E+03  0.68816290664E+01 -0.16975542015E+03  0.26299897625E+03  0.17178391179E+03 0.  0.
        -24    2    3    3    0    0 -0.47701476923E+02 -0.33925547296E+02 -0.27407190721E+02  0.10454324601E+03  0.82169109296E+02 0.  0.
          6    2    1    2  501    0  0.10389653349E+03 -0.68816290664E+01 -0.24531709940E+03  0.31733179626E+03  0.17227055224E+03 0.  0.
         24    2    5    5    0    0  0.78806723340E+02 -0.71608479757E+02 -0.16540303307E+03  0.21137231452E+03  0.77342213435E+02 0.  0.
          5    1    5    5  501    0  0.25089810147E+02  0.64726850690E+02 -0.79914066330E+02  0.10595948174E+03  0.47000000000E+01 0. -1.
        -13    1    6    6    0    0  0.73857747971E+02 -0.16146367517E+02 -0.87893258389E+02  0.11593488254E+03  0.00000000000E+00 0.  1.
         14    1    6    6    0    0  0.49489753690E+01 -0.55462112239E+02 -0.77509774684E+02  0.95437431979E+02  0.00000000000E+00 0. -1.
         -5    1    3    3    0  503 -0.56195056564E+02  0.40807176363E+02 -0.14234822943E+03  0.15845573024E+03  0.47000000000E+01 0.  1.
         13    1    4    4    0    0  0.23123896681E+02 -0.43788893736E+01 -0.11398680809E+02  0.26149936789E+02  0.00000000000E+00 0. -1.
        -14    1    4    4    0    0 -0.70825373605E+02 -0.29546657923E+02 -0.16008509911E+02  0.78393309219E+02  0.00000000000E+00 0.  1.
</event>
<event>
12    1  0.9873238E-001  0.2072129E+03  0.7818608E-02  0.1144143E+00
         21   -1    0    0  501  502  0.00000000000E+00  0.00000000000E+00  0.11749459057E+04  0.11749459057E+04  0.00000000000E+00 0. -1.
         21   -1    0    0  502  503 -0.00000000000E+00 -0.00000000000E+00 -0.62265834236E+02  0.62265834236E+02  0.00000000000E+00 0. -1.
         -6    2    1    2    0  503  0.83288432105E+02  0.77301051983E+02  0.95492209142E+03  0.97677986627E+03  0.17120248512E+03 0.  0.
        -24    2    3    3    0    0  0.48216740861E+02  0.78417140630E+02  0.33984970392E+03  0.36068944998E+03  0.78262098293E+02 0.  0.
          6    2    1    2  501    0 -0.83288432105E+02 -0.77301051983E+02  0.15775798003E+03  0.26043187365E+03  0.17327655638E+03 0.  0.
         24    2    5    5    0    0  0.10992503160E+02 -0.42613014879E+02  0.12630925808E+03  0.15505983379E+03  0.78439908304E+02 0.  0.
          5    1    5    5  501    0 -0.94280935265E+02 -0.34688037105E+02  0.31448721953E+02  0.10537203986E+03  0.47000000000E+01 0. -1.
        -13    1    6    6    0    0 -0.31212257012E+00  0.21753239428E+02  0.16616173460E+02  0.27375135919E+02  0.00000000000E+00 0.  1.
         14    1    6    6    0    0  0.11304625731E+02 -0.64366254307E+02  0.10969308462E+03  0.12768469787E+03  0.00000000000E+00 0. -1.
         -5    1    3    3    0  503  0.35071691244E+02 -0.11160886470E+01  0.61507238750E+03  0.61609041629E+03  0.47000000000E+01 0.  1.
         13    1    4    4    0    0  0.15445233485E+02  0.50684950321E+02  0.71858367299E+02  0.89281265545E+02  0.00000000000E+00 0. -1.
        -14    1    4    4    0    0  0.32771507377E+02  0.27732190309E+02  0.26799133662E+03  0.27140818443E+03  0.00000000000E+00 0.  1.
</event>
<event>
12    1  0.9873238E-001  0.4397456E+03  0.7818608E-02  0.1030849E+00
         21   -1    0    0  501  502  0.00000000000E+00  0.00000000000E+00  0.29485561363E+03  0.29485561363E+03  0.00000000000E+00 0.  1.
         21   -1    0    0  502  503 -0.00000000000E+00 -0.00000000000E+00 -0.11263297772E+04  0.11263297772E+04  0.00000000000E+00 0.  1.
         -6    2    1    2    0  503 -0.22333411094E+03  0.33730693216E+03 -0.87532556820E+03  0.97957695618E+03  0.17240090240E+03 0.  0.
        -24    2    3    3    0    0 -0.16730301446E+03  0.17209981455E+03 -0.62797660372E+03  0.67686178360E+03  0.78604163148E+02 0.  0.
          6    2    1    2  501    0  0.22333411094E+03 -0.33730693216E+03  0.43851404629E+02  0.44160843465E+03  0.17158371797E+03 0.  0.
         24    2    5    5    0    0  0.10877252431E+03 -0.27738822444E+03  0.12930369759E+02  0.30859411563E+03  0.79293408560E+02 0.  0.
          5    1    5    5  501    0  0.11456158663E+03 -0.59918707725E+02  0.30921034870E+02  0.13301431901E+03  0.47000000000E+01 0. -1.
        -13    1    6    6    0    0  0.11204348570E+03 -0.26333447812E+03  0.28223806250E+02  0.28756803246E+03  0.00000000000E+00 0.  1.
         14    1    6    6    0    0 -0.32709613844E+01 -0.14053746311E+02 -0.15293436491E+02  0.21026083170E+02  0.00000000000E+00 0. -1.
         -5    1    3    3    0  503 -0.56031096478E+02  0.16520711761E+03 -0.24734896448E+03  0.30271517258E+03  0.47000000000E+01 0.  1.
         11    1    4    4    0    0 -0.10668280107E+03  0.13242079523E+03 -0.51771373329E+03  0.54492567997E+03  0.00000000000E+00 0. -1.
        -12    1    4    4    0    0 -0.60620213393E+02  0.39679019318E+02 -0.11026287043E+03  0.13193610363E+03  0.00000000000E+00 0.  1.
</event>
<event>
12    1  0.9873238E-001  0.3568778E+03  0.7818608E-02  0.1059897E+00
         21   -1    0    0  501  502  0.00000000000E+00  0.00000000000E+00  0.22556982300E+03  0.22556982300E+03  0.00000000000E+00 0.  1.
         21   -1    0    0  502  503 -0.00000000000E+00 -0.00000000000E+00 -0.76238840699E+03  0.76238840699E+03  0.00000000000E+00 0. -1.
         -6    2    1    2    0  503  0.12481292132E+01 -0.31265163147E+03 -0.15919297922E+02  0.35653298049E+03  0.17061577197E+03 0.  0.
        -24    2    3    3    0    0  0.51989876354E+02 -0.17692281774E+03 -0.52315760261E+02  0.20705445946E+03  0.78294187075E+02 0.  0.
          6    2    1    2  501    0 -0.12481292132E+01  0.31265163147E+03 -0.52089928606E+03  0.63142524950E+03  0.17207317919E+03 0.  0.
         24    2    5    5    0    0 -0.57589566648E+02  0.21018013712E+03 -0.28224441813E+03  0.36561892769E+03  0.80765342141E+02 0.  0.
          5    1    5    5  501    0  0.56341437435E+02  0.10247149435E+03 -0.23865486793E+03  0.26580632181E+03  0.47000000000E+01 0. -1.
        -11    1    6    6    0    0  0.46800077345E+01  0.11880892517E+03 -0.11715521081E+03  0.16692155820E+03  0.00000000000E+00 0.  1.
         12    1    6    6    0    0 -0.62269574383E+02  0.91371211953E+02 -0.16508920732E+03  0.19869736949E+03  0.00000000000E+00 0. -1.
         -5    1    3    3    0  503 -0.50741747141E+02 -0.13572881373E+03  0.36396462339E+02  0.14947852103E+03  0.47000000000E+01 0.  1.
         13    1    4    4    0    0 -0.20972125498E+02 -0.42010662578E+02 -0.12813667156E+02  0.48671509984E+02  0.00000000000E+00 0. -1.
        -14    1    4    4    0    0  0.72962001852E+02 -0.13491215517E+03 -0.39502093104E+02  0.15838294948E+03  0.00000000000E+00 0.  1.
</event>
<event>
12    1  0.9873238E-001  0.1863274E+03  0.7818608E-02  0.1161837E+00
         21   -1    0    0  503  502  0.00000000000E+00  0.00000000000E+00  0.41261100044E+03  0.41261100044E+03  0.00000000000E+00 0.  1.
         21   -1    0    0  501  503 -0.00000000000E+00 -0.00000000000E+00 -0.84771441040E+02  0.84771441040E+02  0.00000000000E+00 0.  1.
          6    2    1    2  501    0  0.67678905622E+02 -0.21969217386E+02  0.18608304029E+03  0.26333399770E+03  0.17220573649E+03 0.  0.
         24    2    3    3    0    0  0.31080750174E+02  0.52347941946E+02  0.12433815946E+03  0.15990776572E+03  0.80026218086E+02 0.  0.
         -6    2    1    2    0  502 -0.67678905622E+02  0.21969217386E+02  0.14175651911E+03  0.23404844378E+03  0.17210660228E+03 0.  0.
        -24    2    5    5    0    0 -0.18856850882E+02  0.76375591363E+02  0.69835912231E+02  0.13139217144E+03  0.78727608221E+02 0.  0.
          5    1    3    3  501    0  0.36598155447E+02 -0.74317159333E+02  0.61744880835E+02  0.10342623199E+03  0.47000000000E+01 0. -1.
        -11    1    4    4    0    0  0.42381090468E+02  0.45799657934E+02  0.13110566976E+03  0.14519801011E+03  0.00000000000E+00 0.  1.
         12    1    4    4    0    0 -0.11300340294E+02  0.65482840126E+01 -0.67675103037E+01  0.14709755606E+02  0.00000000000E+00 0. -1.
         -5    1    5    5    0  502 -0.48822054740E+02 -0.54406373977E+02  0.71920606878E+02  0.10265627235E+03  0.47000000000E+01 0.  1.
         13    1    6    6    0    0 -0.47985305887E+02  0.30200033094E+02  0.36073732097E+02  0.67200786657E+02  0.00000000000E+00 0. -1.
        -14    1    6    6    0    0  0.29128455005E+02  0.46175558269E+02  0.33762180134E+02  0.64191384779E+02  0.00000000000E+00 0.  1.
</event>
<event>
12    1  0.9873238E-001  0.2060842E+03  0.7818608E-02  0.1144726E+00
         21   -1    0    0  501  502  0.00000000000E+00  0.00000000000E+00  0.50600668950E+02  0.50600668950E+02  0.00000000000E+00 0.  1.
         21   -1    0    0  502  503 -0.00000000000E+00 -0.00000000000E+00 -0.12786251285E+04  0.12786251285E+04  0.00000000000E+00 0.  1.
         -6    2    1    2    0  503  0.31544118295E+02  0.10853291686E+03 -0.10038652589E+04  0.10248005507E+04  0.17232610152E+03 0.  0.
        -24    2    3    3    0    0  0.10874946901E+01 -0.19747847295E+02 -0.36272548982E+03  0.37022751898E+03  0.71466598671E+02 0.  0.
          6    2    1    2  501    0 -0.31544118295E+02 -0.10853291686E+03 -0.22415920067E+03  0.30442524676E+03  0.17220034315E+03 0.  0.
         24    2    5    5    0    0  0.44719342866E+02 -0.70283466279E+02 -0.93465277510E+02  0.14827747211E+03  0.79440955285E+02 0.  0.
          5    1    5    5  501    0 -0.76263461161E+02 -0.38249450579E+02 -0.13069392316E+03  0.15614777465E+03  0.47000000000E+01 0. -1.
        -13    1    6    6    0    0  0.10213296167E+01 -0.37151247465E+02 -0.85025556165E+02  0.92793337604E+02  0.00000000000E+00 0.  1.
         14    1    6    6    0    0  0.43698013249E+02 -0.33132218815E+02 -0.84397213445E+01  0.55484134506E+02  0.00000000000E+00 0. -1.
         -5    1    3    3    0  503  0.30456623605E+02  0.12828076415E+03 -0.64113976907E+03  0.65457303172E+03  0.47000000000E+01 0.  1.
         11    1    4    4    0    0 -0.25117788286E+02 -0.39369083492E+01 -0.29274645222E+03  0.29384840960E+03  0.00000000000E+00 0. -1.
        -12    1    4    4    0    0  0.26205282976E+02 -0.15810938946E+02 -0.69979037601E+02  0.76379109380E+02  0.00000000000E+00 0.  1.
</event>
<event>
12    1  0.9873238E-001  0.4518857E+03  0.7818608E-02  0.1027273E+00
         21   -1    0    0  501  502  0.00000000000E+00  0.00000000000E+00  0.32192690035E+03  0.32192690035E+03  0.00000000000E+00 0.  1.
         21   -1    0    0  502  503 -0.00000000000E+00 -0.00000000000E+00 -0.63447593319E+03  0.63447593319E+03  0.00000000000E+00 0. -1.
         -6    2    1    2    0  503 -0.36446381090E+03 -0.20076466879E+03 -0.18461786126E+03  0.48675711907E+03  0.17236129665E+03 0.  0.
        -24    2    3    3    0    0 -0.26977804490E+03 -0.11103881834E+03 -0.18821947080E+03  0.35617693638E+03  0.79533817542E+02 0.  0.
          6    2    1    2  501    0  0.36446381090E+03  0.20076466879E+03 -0.12793117159E+03  0.46964571447E+03  0.17623958343E+03 0.  0.
         24    2    5    5    0    0  0.30740304043E+03  0.94946728774E+02 -0.10237024891E+03  0.34664645137E+03  0.78565792904E+02 0.  0.
          5    1    5    5  501    0  0.57060770467E+02  0.10581794001E+03 -0.25560922683E+02  0.12299926310E+03  0.47000000000E+01 0. -1.
        -11    1    6    6    0    0  0.26473286380E+03  0.80653444657E+02 -0.11533191616E+03  0.29981647419E+03  0.00000000000E+00 0.  1.
         12    1    6    6    0    0  0.42670176627E+02  0.14293284117E+02  0.12961667254E+02  0.46829977175E+02  0.00000000000E+00 0. -1.
         -5    1    3    3    0  503 -0.94685765999E+02 -0.89725850444E+02  0.36016095397E+01  0.13058018269E+03  0.47000000000E+01 0.  1.
         13    1    4    4    0    0 -0.94186740945E+02 -0.26302851574E+01 -0.77430539303E+02  0.12195716046E+03  0.00000000000E+00 0. -1.
        -14    1    4    4    0    0 -0.17559130395E+03 -0.10840853319E+03 -0.11078893149E+03  0.23421977592E+03  0.00000000000E+00 0.  1.
</event>
<event>
12    1  0.9873238E-001  0.3202788E+03  0.7818608E-02  0.1075734E+00
         21   -1    0    0  503  502  0.00000000000E+00  0.00000000000E+00  0.58813579227E+02  0.58813579227E+02  0.00000000000E+00 0.  1.
         21   -1    0    0  501  503 -0.00000000000E+00 -0.00000000000E+00 -0.17356846633E+04  0.17356846633E+04  0.00000000000E+00 0. -1.
          6    2    1    2  501    0  0.26379050502E+03 -0.53071025427E+02 -0.86789721051E+03  0.92510759912E+03  0.17371395355E+03 0.  0.
         24    2    3    3    0    0  0.81078461267E+02  0.72521702343E+01 -0.20340273963E+03  0.23330013262E+03  0.80187072143E+02 0.  0.
         -6    2    1    2    0  502 -0.26379050502E+03  0.53071025427E+02 -0.80897387360E+03  0.86939064344E+03  0.17029209747E+03 0.  0.
        -24    2    5    5    0    0 -0.85206477381E+02  0.53303626941E+02 -0.21699839261E+03  0.25104658944E+03  0.76384993554E+02 0.  0.
          5    1    3    3  501    0  0.18271204376E+03 -0.60323195661E+02 -0.66449447088E+03  0.69180746649E+03  0.47000000000E+01 0. -1.
        -13    1    4    4    0    0  0.72684402400E+02 -0.72739105707E+01 -0.20382358941E+03  0.21651786930E+03  0.00000000000E+00 0.  1.
         14    1    4    4    0    0  0.83940588670E+01  0.14526080805E+02  0.42084977520E+00  0.16782263326E+02  0.00000000000E+00 0. -1.
         -5    1    5    5    0  502 -0.17858402764E+03 -0.23260151400E+00 -0.59197548098E+03  0.61834405400E+03  0.47000000000E+01 0.  1.
         13    1    6    6    0    0 -0.36952342017E+02  0.72806933503E+01 -0.19127024579E+02  0.42241296683E+02  0.00000000000E+00 0. -1.
        -14    1    6    6    0    0 -0.48254135365E+02  0.46022933591E+02 -0.19787136804E+03  0.20880529276E+03  0.00000000000E+00 0.  1.
</event>
<event>
12    1  0.9873238E-001  0.2607687E+03  0.7818608E-02  0.1106720E+00
         21   -1    0    0  503  502  0.00000000000E+00  0.00000000000E+00  0.28786564974E+03  0.28786564974E+03  0.00000000000E+00 0. -1.
         21   -1    0    0  501  503 -0.00000000000E+00 -0.00000000000E+00 -0.23628999996E+03  0.23628999996E+03  0.00000000000E+00 0. -1.
          6    2    1    2  501    0  0.10526525320E+03  0.16572842357E+03  0.35028249388E+02  0.26286244998E+03  0.17123961412E+03 0.  0.
         24    2    3    3    0    0  0.13460452928E+03  0.14130392669E+03  0.54662539851E+02  0.21967744643E+03  0.84764427723E+02 0.  0.
         -6    2    1    2    0  502 -0.10526525320E+03 -0.16572842357E+03  0.16547400395E+02  0.26129319973E+03  0.17162061605E+03 0.  0.
        -24    2    5    5    0    0 -0.11346990692E+03 -0.60824951763E+02  0.39548534824E+02  0.15348226835E+03  0.73604521297E+02 0.  0.
          5    1    3    3  501    0 -0.29339276086E+02  0.24424496885E+02 -0.19634290463E+02  0.43185003547E+02  0.47000000000E+01 0. -1.
        -11    1    4    4    0    0  0.48640052465E+02  0.11165346375E+03  0.29046073392E+02  0.12520393384E+03  0.00000000000E+00 0.  1.
         12    1    4    4    0    0  0.85964476816E+02  0.29650462942E+02  0.25616466459E+02  0.94473512589E+02  0.00000000000E+00 0. -1.
         -5    1    5    5    0  502  0.82046537292E+01 -0.10490347181E+03 -0.23001134429E+02  0.10781093138E+03  0.47000000000E+01 0.  1.
         11    1    6    6    0    0 -0.44811889687E+02 -0.15301040398E+02  0.51817227870E+02  0.70194390080E+02  0.00000000000E+00 0. -1.
        -12    1    6    6    0    0 -0.68658017237E+02 -0.45523911365E+02 -0.12268693046E+02  0.83287878266E+02  0.00000000000E+00 0.  1.
</event>
<event>
12    1  0.9873238E-001  0.2027831E+03  0.7818608E-02  0.1147606E+00
         21   -1    0    0  501  502  0.00000000000E+00  0.00000000000E+00  0.25327892034E+03  0.25327892034E+03  0.00000000000E+00 0. -1.
         21   -1    0    0  502  503 -0.00000000000E+00 -0.00000000000E+00 -0.16774031669E+03  0.16774031669E+03  0.00000000000E+00 0. -1.
         -6    2    1    2    0  503  0.73682940933E+02  0.76133052610E+02  0.82931323696E+02  0.21821942453E+03  0.17180423542E+03 0.  0.
        -24    2    3    3    0    0  0.24904305038E+01  0.32531741594E+02  0.10053058253E+03  0.13277194490E+03  0.80358415076E+02 0.  0.
          6    2    1    2  501    0 -0.73682940933E+02 -0.76133052610E+02  0.26072799503E+01  0.20279981250E+03  0.17290329250E+03 0.  0.
         24    2    5    5    0    0 -0.89818375215E+02 -0.12527955918E+02  0.39745140367E+02  0.12725332852E+03  0.79933992970E+02 0.  0.
          5    1    5    5  501    0  0.16135434282E+02 -0.63605096692E+02 -0.37137860416E+02  0.75546483975E+02  0.47000000000E+01 0. -1.
        -13    1    6    6    0    0 -0.53945037074E+02 -0.19924182247E+02 -0.16774069984E+02  0.59903334523E+02  0.00000000000E+00 0.  1.
         14    1    6    6    0    0 -0.35873338141E+02  0.73962263291E+01  0.56519210351E+02  0.67349994001E+02  0.00000000000E+00 0. -1.
         -5    1    3    3    0  503  0.71192510430E+02  0.43601311016E+02 -0.17599258832E+02  0.85447479629E+02  0.47000000000E+01 0.  1.
         13    1    4    4    0    0 -0.14250940278E+02  0.55678352179E+02  0.74763838940E+02  0.94301642686E+02  0.00000000000E+00 0. -1.
        -14    1    4    4    0    0  0.16741370782E+02 -0.23146610585E+02  0.25766743588E+02  0.38470302213E+02  0.00000000000E+00 0.  1.
</event>
<event>
12    1  0.9873238E-001  0.4910740E+03  0.7818608E-02  0.1016137E+00
         21   -1    0    0  503  502  0.00000000000E+00  0.00000000000E+00  0.90748898916E+02  0.90748898916E+02  0.00000000000E+00 0. -1.
         21   -1    0    0  501  503 -0.00000000000E+00 -0.00000000000E+00 -0.31616067749E+04  0.31616067749E+04  0.00000000000E+00 0.  1.
          6    2    1    2  501    0  0.44508572116E+03  0.11608665980E+03 -0.88595626130E+03  0.10129521986E+04  0.17197746361E+03 0.  0.
         24    2    3    3    0    0  0.93969230102E+02 -0.40373329714E+01 -0.18996780842E+03  0.22419711592E+03  0.73007275599E+02 0.  0.
         -6    2    1    2    0  502 -0.44508572116E+03 -0.11608665980E+03 -0.21849016147E+04  0.22394034752E+04  0.17191697737E+03 0.  0.
        -24    2    5    5    0    0 -0.10350589132E+03 -0.17289398491E+01 -0.61953191431E+03  0.63311618548E+03  0.79371611378E+02 0.  0.
          5    1    3    3  501    0  0.35111649106E+03  0.12012399277E+03 -0.69598845289E+03  0.78875508270E+03  0.47000000000E+01 0. -1.
        -13    1    4    4    0    0  0.99289562568E+02  0.11776721372E+02 -0.14411609946E+03  0.17540398663E+03  0.00000000000E+00 0.  1.
         14    1    4    4    0    0 -0.53203324654E+01 -0.15814054344E+02 -0.45851708956E+02  0.48793129296E+02  0.00000000000E+00 0. -1.
         -5    1    5    5    0  502 -0.34157982984E+03 -0.11435771995E+03 -0.15653697004E+04  0.16062872897E+04  0.47000000000E+01 0.  1.
         11    1    6    6    0    0 -0.54176976639E+02  0.29576054990E+02 -0.44022524334E+03  0.44453138551E+03  0.00000000000E+00 0. -1.
        -12    1    6    6    0    0 -0.49328914677E+02 -0.31304994839E+02 -0.17930667097E+03  0.18858479997E+03  0.00000000000E+00 0.  1.
</event>
<event>
12    1  0.1104755E+000  0.1867810E+03  0.7818608E-02  0.1161994E+00
         21   -1    0    0  503  502  0.00000000000E+00  0.00000000000E+00  0.29311863916E+03  0.29311863916E+03  0.00000000000E+00 0. -1.
         21   -1    0    0  501  503 -0.00000000000E+00 -0.00000000000E+00 -0.28266065072E+03  0.28266065072E+03  0.00000000000E+00 0. -1.
          6    2    1    2  501    0 -0.43298344471E+02 -0.54488498464E+02  0.22534806816E+03  0.29106033589E+03  0.17055973793E+03 0.  0.
         24    2    3    3    0    0  0.19042448310E+02  0.19737971069E+02  0.58859839744E+02  0.98352361412E+02  0.73868152278E+02 0.  0.
         -6    2    1    2    0  502  0.43298344471E+02  0.54488498464E+02 -0.21489007972E+03  0.28471895400E+03  0.17333030117E+03 0.  0.
        -24    2    5    5    0    0  0.11615447487E+02  0.10057755413E+03 -0.15852915531E+03  0.20517870749E+03  0.81951485083E+02 0.  0.
          5    1    3    3  501    0 -0.62340792781E+02 -0.74226469534E+02  0.16648822842E+03  0.19270797448E+03  0.47000000000E+01 0. -1.
        -13    1    4    4    0    0  0.68302784092E+01 -0.26331308746E+02  0.73555946713E+01  0.28179696528E+02  0.00000000000E+00 0.  1.
         14    1    4    4    0    0  0.12212169901E+02  0.46069279815E+02  0.51504245073E+02  0.70172664884E+02  0.00000000000E+00 0. -1.
         -5    1    5    5    0  502  0.31682896984E+02 -0.46089055670E+02 -0.56360924417E+02  0.79540246511E+02  0.47000000000E+01 0.  1.
         13    1    6    6    0    0  0.24755999772E+02  0.10498038082E+02 -0.81853072303E+02  0.86156797606E+02  0.00000000000E+00 0. -1.
        -14    1    6    6    0    0 -0.13140552286E+02  0.90079516053E+02 -0.76676083004E+02  0.11902190988E+03  0.00000000000E+00 0.  1.
</event>
<event>
12    1  0.9873238E-001  0.1933079E+03  0.7818608E-02  0.1155571E+00
         21   -1    0    0  503  502  0.00000000000E+00  0.00000000000E+00  0.32162787287E+02  0.32162787287E+02  0.00000000000E+00 0.  1.
         21   -1    0    0  501  503 -0.00000000000E+00 -0.00000000000E+00 -0.11607341582E+04  0.11607341582E+04  0.00000000000E+00 0.  1.
          6    2    1    2  501    0  0.80629355037E+02  0.28764479179E+02 -0.55194845281E+03  0.58482051698E+03  0.17331893828E+03 0.  0.
         24    2    3    3    0    0  0.49823444420E+02  0.57753918479E+02 -0.18617959474E+03  0.21658371918E+03  0.80173407084E+02 0.  0.
         -6    2    1    2    0  502 -0.80629355037E+02 -0.28764479179E+02 -0.57662291813E+03  0.60807642853E+03  0.17301579427E+03 0.  0.
        -24    2    5    5    0    0 -0.40377775704E+02  0.41762784367E+02 -0.43312119351E+03  0.44312455825E+03  0.73422822904E+02 0.  0.
          5    1    3    3  501    0  0.30805910617E+02 -0.28989439300E+02 -0.36576885807E+03  0.36823679780E+03  0.47000000000E+01 0. -1.
        -13    1    4    4    0    0  0.44062113892E+01 -0.68785408991E+01  0.51030458470E+01  0.96317236579E+01  0.00000000000E+00 0.  1.
         14    1    4    4    0    0  0.45417233031E+02  0.64632459378E+02 -0.19128264059E+03  0.20695199552E+03  0.00000000000E+00 0. -1.
         -5    1    5    5    0  502 -0.40251579333E+02 -0.70527263546E+02 -0.14350172462E+03  0.16495187028E+03  0.47000000000E+01 0.  1.
         13    1    6    6    0    0 -0.31610125681E+02 -0.29606034990E+01 -0.31370055355E+03  0.31530303284E+03  0.00000000000E+00 0. -1.
        -14    1    6    6    0    0 -0.87676500234E+01  0.44723387866E+02 -0.11942063996E+03  0.12782152541E+03  0.00000000000E+00 0.  1.
</event>
<event>
12    1  0.9873238E-001  0.1959574E+03  0.7818608E-02  0.1153597E+00
         21   -1    0    0  503  502  0.00000000000E+00  0.00000000000E+00  0.38407198347E+02  0.38407198347E+02  0.00000000000E+00 0. -1.
         21   -1    0    0  501  503 -0.00000000000E+00 -0.00000000000E+00 -0.10738538269E+04  0.10738538269E+04  0.00000000000E+00 0. -1.
          6    2    1    2  501    0  0.41478105455E+02 -0.80716408830E+02 -0.36044067862E+03  0.40938668469E+03  0.17159371467E+03 0.  0.
         24    2    3    3    0    0  0.22102149773E+02 -0.11395917943E+03 -0.22985877653E+03  0.27317276246E+03  0.91176210738E+02 0.  0.
         -6    2    1    2    0  502 -0.41478105455E+02  0.80716408830E+02 -0.67500594992E+03  0.70287434054E+03  0.17367709772E+03 0.  0.
        -24    2    5    5    0    0  0.73736247357E+01  0.34180984487E+02 -0.15547224010E+03  0.17895697788E+03  0.81432625195E+02 0.  0.
          5    1    3    3  501    0  0.19375955682E+02  0.33242770599E+02 -0.13058190209E+03  0.13621392223E+03  0.47000000000E+01 0. -1.
        -13    1    4    4    0    0  0.40303716092E+02 -0.64662507459E+02 -0.65038517630E+02  0.10017803241E+03  0.00000000000E+00 0.  1.
         14    1    4    4    0    0 -0.18201566319E+02 -0.49296671970E+02 -0.16482025890E+03  0.17299473006E+03  0.00000000000E+00 0. -1.
         -5    1    5    5    0  502 -0.48851730191E+02  0.46535424343E+02 -0.51953370982E+03  0.52391736266E+03  0.47000000000E+01 0.  1.
         13    1    6    6    0    0 -0.49184599303E+01  0.30644363875E+02 -0.95462805212E+01  0.32471522249E+02  0.00000000000E+00 0. -1.
        -14    1    6    6    0    0  0.12292084666E+02  0.35366206118E+01 -0.14592595958E+03  0.14648545563E+03  0.00000000000E+00 0.  1.
</event>
<event>
12    1  0.9873238E-001  0.1880207E+03  0.7818608E-02  0.1162672E+00
         21   -1    0    0  501  502  0.00000000000E+00  0.00000000000E+00  0.41468129999E+03  0.41468129999E+03  0.00000000000E+00 0. -1.
         21   -1    0    0  502  503 -0.00000000000E+00 -0.00000000000E+00 -0.80717024429E+02  0.80717024429E+02  0.00000000000E+00 0. -1.
         -6    2    1    2    0  503  0.73413294029E+02 -0.23076883706E+02  0.16555261767E+03  0.25051840128E+03  0.17155100075E+03 0.  0.
        -24    2    3    3    0    0  0.36864408084E+01 -0.50546095104E+02  0.65531766637E+02  0.12544781210E+03  0.94203203483E+02 0.  0.
          6    2    1    2  501    0 -0.73413294029E+02  0.23076883706E+02  0.16841165789E+03  0.24487992314E+03  0.16025490926E+03 0.  0.
         24    2    5    5    0    0 -0.78467128776E+02  0.11160227693E+02  0.43962958616E+02  0.11967162994E+03  0.78146761296E+02 0.  0.
          5    1    5    5  501    0  0.50538347469E+01  0.11916656012E+02  0.12444869927E+03  0.12520829320E+03  0.47000000000E+01 0. -1.
        -13    1    6    6    0    0 -0.42591432498E+02 -0.20732020656E+02  0.52722866378E+02  0.70876988098E+02  0.00000000000E+00 0.  1.
         14    1    6    6    0    0 -0.35875696278E+02  0.31892248350E+02 -0.87599077621E+01  0.48794641839E+02  0.00000000000E+00 0. -1.
         -5    1    3    3    0  503  0.69726853221E+02  0.27469211398E+02  0.10002085104E+03  0.12507058918E+03  0.47000000000E+01 0.  1.
         11    1    4    4    0    0 -0.27144577695E+02  0.10018931801E+02  0.46680965261E+02  0.54921030675E+02  0.00000000000E+00 0. -1.
        -12    1    4    4    0    0  0.30831018504E+02 -0.60565026905E+02  0.18850801377E+02  0.70526781428E+02  0.00000000000E+00 0.  1.
</event>
<event>
12    1  0.9873238E-001  0.2530120E+03  0.7818608E-02  0.1113536E+00
         21   -1    0    0  503  502  0.00000000000E+00  0.00000000000E+00  0.15029112021E+03  0.15029112021E+03  0.00000000000E+00 0.  1.
         21   -1    0    0  501  503 -0.00000000000E+00 -0.00000000000E+00 -0.49031328275E+03  0.49031328275E+03  0.00000000000E+00 0.  1.
          6    2    1    2  501    0 -0.13538026202E+03 -0.98311445111E+02 -0.39378539914E+02  0.25605808324E+03  0.18979493408E+03 0.  0.
         24    2    3    3    0    0 -0.17333301651E+01  0.13306229527E+02 -0.15861078788E+02  0.80287867717E+02  0.77553257214E+02 0.  0.
         -6    2    1    2    0  502  0.13538026202E+03  0.98311445111E+02 -0.30064362263E+03  0.38454631972E+03  0.17174495217E+03 0.  0.
        -24    2    5    5    0    0  0.23750305352E+01  0.27234794237E+02 -0.25680333548E+02  0.70907702444E+02  0.60175143935E+02 0.  0.
          5    1    3    3  501    0 -0.13364693186E+03 -0.11161767464E+03 -0.23517461126E+02  0.17577021552E+03  0.47000000000E+01 0. -1.
        -13    1    4    4    0    0  0.32954148841E+02 -0.10931138625E+02 -0.15367293070E+02  0.37968663577E+02  0.00000000000E+00 0.  1.
         14    1    4    4    0    0 -0.34687479006E+02  0.24237368151E+02 -0.49378571750E+00  0.42319204140E+02  0.00000000000E+00 0. -1.
         -5    1    5    5    0  502  0.13300523149E+03  0.71076650874E+02 -0.27496328908E+03  0.31363861727E+03  0.47000000000E+01 0.  1.
         11    1    6    6    0    0  0.24868492134E+01  0.44263443571E+02 -0.57681889278E+01  0.44706921827E+02  0.00000000000E+00 0. -1.
        -12    1    6    6    0    0 -0.11181867816E+00 -0.17028649334E+02 -0.19912144620E+02  0.26200780617E+02  0.00000000000E+00 0.  1.
</event>
<event>
12    1  0.9873238E-001  0.2185612E+03  0.7818608E-02  0.1135235E+00
         21   -1    0    0  503  502  0.00000000000E+00  0.00000000000E+00  0.56909938868E+02  0.56909938868E+02  0.00000000000E+00 0.  1.
         21   -1    0    0  501  503 -0.00000000000E+00 -0.00000000000E+00 -0.83644808334E+03  0.83644808334E+03  0.00000000000E+00 0.  1.
          6    2    1    2  501    0  0.80376072801E+02 -0.10749428573E+03 -0.36588221518E+03  0.42619104523E+03  0.17249254216E+03 0.  0.
         24    2    3    3    0    0 -0.14683537758E+02 -0.11709863686E+02 -0.11356681077E+03  0.14001603169E+03  0.79714123177E+02 0.  0.
         -6    2    1    2    0  502 -0.80376072801E+02  0.10749428573E+03 -0.41365592929E+03  0.46716697698E+03  0.17064120839E+03 0.  0.
        -24    2    5    5    0    0 -0.10766930822E+03  0.49994168748E+02 -0.34473695735E+03  0.37323562521E+03  0.79807050562E+02 0.  0.
          5    1    3    3  501    0  0.95059610560E+02 -0.95784422049E+02 -0.25231540441E+03  0.28617501353E+03  0.47000000000E+01 0. -1.
        -13    1    4    4    0    0  0.18301550455E+02  0.10183903229E+02 -0.93142513544E+02  0.95468248456E+02  0.00000000000E+00 0.  1.
         14    1    4    4    0    0 -0.32985088213E+02 -0.21893766915E+02 -0.20424297229E+02  0.44547783239E+02  0.00000000000E+00 0. -1.
         -5    1    5    5    0  502  0.27293235417E+02  0.57500116987E+02 -0.68918971937E+02  0.93931351773E+02  0.47000000000E+01 0.  1.
         11    1    6    6    0    0 -0.69589690222E+02  0.49996706097E+02 -0.13378022371E+03  0.15886958130E+03  0.00000000000E+00 0. -1.
        -12    1    6    6    0    0 -0.38079617996E+02 -0.25373493447E-02 -0.21095673364E+03  0.21436604391E+03  0.00000000000E+00 0.  1.
</event>
<event>
12    1  0.9873238E-001  0.1923641E+03  0.7818608E-02  0.1158570E+00
         21   -1    0    0  503  502  0.00000000000E+00  0.00000000000E+00  0.20957052652E+03  0.20957052652E+03  0.00000000000E+00 0. -1.
         21   -1    0    0  501  503 -0.00000000000E+00 -0.00000000000E+00 -0.16801857315E+03  0.16801857315E+03  0.00000000000E+00 0. -1.
          6    2    1    2  501    0  0.37913834718E+01  0.63534197475E+02  0.27952777700E+02  0.18474487060E+03  0.17116758044E+03 0.  0.
         24    2    3    3    0    0  0.12669387726E+01 -0.19048377005E+02  0.53800608685E+02  0.98047380463E+02  0.79714098630E+02 0.  0.
         -6    2    1    2    0  502 -0.37913834718E+01 -0.63534197475E+02  0.13599175672E+02  0.19284422908E+03  0.18152958512E+03 0.  0.
        -24    2    5    5    0    0 -0.15215527237E+02 -0.88163338398E+02  0.63780759330E+02  0.13559576201E+03  0.79460297680E+02 0.  0.
          5    1    3    3  501    0  0.25244446992E+01  0.82582574479E+02 -0.25847830985E+02  0.86697490133E+02  0.47000000000E+01 0. -1.
        -13    1    4    4    0    0  0.17999647758E+01  0.12719964310E+02 -0.16493403528E+02  0.20906212598E+02  0.00000000000E+00 0.  1.
         14    1    4    4    0    0 -0.53302600321E+00 -0.31768341314E+02  0.70294012213E+02  0.77141167865E+02  0.00000000000E+00 0. -1.
         -5    1    5    5    0  502  0.11424143766E+02  0.24629140923E+02 -0.50181583658E+02  0.57248467070E+02  0.47000000000E+01 0.  1.
         11    1    6    6    0    0  0.32529020504E+02 -0.34792610049E+02  0.19972099865E+02  0.51648307445E+02  0.00000000000E+00 0. -1.
        -12    1    6    6    0    0 -0.47744547741E+02 -0.53370728348E+02  0.43808659465E+02  0.83947454563E+02  0.00000000000E+00 0.  1.
</event>
<event>
12    1  0.9873238E-001  0.1809769E+03  0.7818608E-02  0.1167499E+00
         21   -1    0    0  501  502  0.00000000000E+00  0.00000000000E+00  0.71600365928E+03  0.71600365928E+03  0.00000000000E+00 0. -1.
         21   -1    0    0  502  503 -0.00000000000E+00 -0.00000000000E+00 -0.76103308231E+02  0.76103308231E+02  0.00000000000E+00 0. -1.
         -6    2    1    2    0  503 -0.49193329351E+02  0.28348342706E+02  0.57420671188E+03  0.60205149376E+03  0.17184016112E+03 0.  0.
        -24    2    3    3    0    0 -0.43595646353E+02  0.22166332934E+01  0.56688181505E+03  0.57394554411E+03  0.78441070398E+02 0.  0.
          6    2    1    2  501    0  0.49193329351E+02 -0.28348342706E+02  0.65693639167E+02  0.19005547376E+03  0.16906157663E+03 0.  0.
         24    2    5    5    0    0  0.57871129887E+02 -0.78049924910E+02  0.34022759868E+02  0.13030025565E+03  0.79873337104E+02 0.  0.
          5    1    5    5  501    0 -0.86778005365E+01  0.49701582204E+02  0.31670879299E+02  0.59755218109E+02  0.47000000000E+01 0. -1.
        -11    1    6    6    0    0  0.31583743759E+01  0.75232083159E+01  0.27317775063E+02  0.28510258267E+02  0.00000000000E+00 0.  1.
         12    1    6    6    0    0  0.54712755511E+02 -0.85573133226E+02  0.67049848058E+01  0.10178999738E+03  0.00000000000E+00 0. -1.
         -5    1    3    3    0  503 -0.55976829977E+01  0.26131709413E+02  0.73248968310E+01  0.28105949643E+02  0.47000000000E+01 0.  1.
         13    1    4    4    0    0 -0.18174099525E+01  0.22766469650E+02  0.40110653108E+03  0.40175622509E+03  0.00000000000E+00 0. -1.
        -14    1    4    4    0    0 -0.41778236401E+02 -0.20549836357E+02  0.16577528397E+03  0.17218931903E+03  0.00000000000E+00 0.  1.
</event>
<event>
12    1  0.9873238E-001  0.1707561E+03  0.7818608E-02  0.1177130E+00
         21   -1    0    0  503  502  0.00000000000E+00  0.00000000000E+00  0.49198869355E+02  0.49198869355E+02  0.00000000000E+00 0. -1.
         21   -1    0    0  501  503 -0.00000000000E+00 -0.00000000000E+00 -0.10181015956E+04  0.10181015956E+04  0.00000000000E+00 0. -1.
          6    2    1    2  501    0 -0.80965364442E+01 -0.11883943852E+02 -0.13889259990E+03  0.21990771581E+03  0.16988663026E+03 0.  0.
         24    2    3    3    0    0 -0.41818692728E+02 -0.37770738016E+02 -0.28370148508E+02  0.10139774914E+03  0.79380139163E+02 0.  0.
         -6    2    1    2    0  502  0.80965364442E+01  0.11883943852E+02 -0.83001012637E+03  0.84739274918E+03  0.17014957963E+03 0.  0.
        -24    2    5    5    0    0 -0.58852089881E+02  0.25332823207E+02 -0.46677739870E+03  0.47776713403E+03  0.79214733490E+02 0.  0.
          5    1    3    3  501    0  0.33722156284E+02  0.25886794164E+02 -0.11052245140E+03  0.11850996667E+03  0.47000000000E+01 0. -1.
        -13    1    4    4    0    0  0.19076587659E+02 -0.19603285825E+02  0.75825001898E+01  0.28384843156E+02  0.00000000000E+00 0.  1.
         14    1    4    4    0    0 -0.60895280388E+02 -0.18167452191E+02 -0.35952648697E+02  0.73012905989E+02  0.00000000000E+00 0. -1.
         -5    1    5    5    0  502  0.66948626325E+02 -0.13448879355E+02 -0.36323272767E+03  0.36962561515E+03  0.47000000000E+01 0.  1.
         13    1    6    6    0    0 -0.36491235153E+01  0.37695696468E+02 -0.10558740595E+03  0.11217389148E+03  0.00000000000E+00 0. -1.
        -14    1    6    6    0    0 -0.55202966365E+02 -0.12362873262E+02 -0.36118999275E+03  0.36559324255E+03  0.00000000000E+00 0.  1.
</event>
<event>
12    1  0.9873238E-001  0.1889671E+03  0.7818608E-02  0.1159693E+00
         21   -1    0    0  503  502  0.00000000000E+00  0.00000000000E+00  0.75321084104E+02  0.75321084104E+02  0.00000000000E+00 0.  1.
         21   -1    0    0  501  503 -0.00000000000E+00 -0.00000000000E+00 -0.58143480737E+03  0.58143480737E+03  0.00000000000E+00 0.  1.
          6    2    1    2  501    0  0.74048987447E+02  0.23295623986E+02 -0.39698650665E+03  0.43966675456E+03  0.17228647644E+03 0.  0.
         24    2    3    3    0    0  0.45579291280E+02  0.40583604625E+02 -0.39277542544E+03  0.40576659115E+03  0.81544410613E+02 0.  0.
         -6    2    1    2    0  502 -0.74048987447E+02 -0.23295623986E+02 -0.10912721662E+03  0.21708913692E+03  0.17085960705E+03 0.  0.
        -24    2    5    5    0    0 -0.94735292412E+02 -0.47219734712E+02 -0.12296015167E+03  0.18225056090E+03  0.83015595362E+02 0.  0.
          5    1    3    3  501    0  0.28469696167E+02 -0.17287980638E+02 -0.42110812058E+01  0.33900163412E+02  0.47000000000E+01 0. -1.
        -11    1    4    4    0    0 -0.75568624244E+01 -0.18259930657E+02 -0.12316301542E+03  0.12473836460E+03  0.00000000000E+00 0.  1.
         12    1    4    4    0    0  0.53136153704E+02  0.58843535282E+02 -0.26961241003E+03  0.28102822654E+03  0.00000000000E+00 0. -1.
         -5    1    5    5    0  502  0.20686304965E+02  0.23924110726E+02  0.13832935051E+02  0.34838576022E+02  0.47000000000E+01 0.  1.
         11    1    6    6    0    0 -0.97367812921E+02 -0.51401051498E+02 -0.73130430624E+02  0.13217646905E+03  0.00000000000E+00 0. -1.
        -12    1    6    6    0    0  0.26325205082E+01  0.41813167858E+01 -0.49829721047E+02  0.50074091843E+02  0.00000000000E+00 0.  1.
</event>
<event>
12    1  0.9873238E-001  0.3292062E+03  0.7818608E-02  0.1071552E+00
         21   -1    0    0  501  502  0.00000000000E+00  0.00000000000E+00  0.50693629912E+03  0.50693629912E+03  0.00000000000E+00 0.  1.
         21   -1    0    0  502  503 -0.00000000000E+00 -0.00000000000E+00 -0.39373118910E+03  0.39373118910E+03  0.00000000000E+00 0.  1.
         -6    2    1    2    0  503 -0.11217295528E+03 -0.25631108147E+03  0.36138023310E+03  0.48884800634E+03  0.17348936003E+03 0.  0.
        -24    2    3    3    0    0 -0.42090945159E+02 -0.23304619705E+03  0.31182842939E+03  0.39979625599E+03  0.80733507929E+02 0.  0.
          6    2    1    2  501    0  0.11217295528E+03  0.25631108147E+03 -0.24817512308E+03  0.41181948188E+03  0.17241302608E+03 0.  0.
         24    2    5    5    0    0  0.22811418953E+02  0.20578875234E+03 -0.19836794689E+03  0.29762300770E+03  0.79751118720E+02 0.  0.
          5    1    5    5  501    0  0.89361536323E+02  0.50522329135E+02 -0.49807176187E+02  0.11419647418E+03  0.47000000000E+01 0. -1.
        -13    1    6    6    0    0 -0.27419310852E+02  0.79818811316E+02 -0.95214467407E+02  0.12723464957E+03  0.00000000000E+00 0.  1.
         14    1    6    6    0    0  0.50230729805E+02  0.12596994102E+03 -0.10315347949E+03  0.17038835813E+03  0.00000000000E+00 0. -1.
         -5    1    3    3    0  503 -0.70082010118E+02 -0.23264884418E+02  0.49551803713E+02  0.89051750350E+02  0.47000000000E+01 0.  1.
         11    1    4    4    0    0 -0.48500572008E+02 -0.67166366296E+02  0.12392880312E+03  0.14907036758E+03  0.00000000000E+00 0. -1.
        -12    1    4    4    0    0  0.64096268496E+01 -0.16587983076E+03  0.18789962627E+03  0.25072588841E+03  0.00000000000E+00 0.  1.
</event>
<event>
12    1  0.9873238E-001  0.2575505E+03  0.7818608E-02  0.1108632E+00
         21   -1    0    0  503  502  0.00000000000E+00  0.00000000000E+00  0.37026669595E+03  0.37026669595E+03  0.00000000000E+00 0. -1.
         21   -1    0    0  501  503 -0.00000000000E+00 -0.00000000000E+00 -0.18240469031E+03  0.18240469031E+03  0.00000000000E+00 0. -1.
          6    2    1    2  501    0 -0.12743296195E+03 -0.14204156270E+03  0.13105307720E+03  0.28893002139E+03  0.17288922144E+03 0.  0.
         24    2    3    3    0    0 -0.20776392974E+02 -0.86468720822E+02  0.11788055427E+03  0.16785331091E+03  0.79814852756E+02 0.  0.
         -6    2    1    2    0  502  0.12743296195E+03  0.14204156270E+03  0.56808928447E+02  0.26374136487E+03  0.17296614659E+03 0.  0.
        -24    2    5    5    0    0  0.64899494867E+02  0.12298529164E+02  0.56510380069E+02  0.11963769251E+03  0.82198273462E+02 0.  0.
          5    1    3    3  501    0 -0.10665656898E+03 -0.55572841882E+02  0.13172522922E+02  0.12107671048E+03  0.47000000000E+01 0. -1.
        -13    1    4    4    0    0 -0.48914456771E+02 -0.38022239589E+02  0.48521512432E+02  0.78693404763E+02  0.00000000000E+00 0.  1.
         14    1    4    4    0    0  0.28138063797E+02 -0.48446481233E+02  0.69359041841E+02  0.89159906142E+02  0.00000000000E+00 0. -1.
         -5    1    5    5    0  502  0.62533467084E+02  0.12974303354E+03  0.29854837800E+00  0.14410367236E+03  0.47000000000E+01 0.  1.
         13    1    6    6    0    0 -0.23920297560E+01  0.88269217116E+01  0.51241264948E+02  0.52050971045E+02  0.00000000000E+00 0. -1.
        -14    1    6    6    0    0  0.67291524623E+02  0.34716074528E+01  0.52691151216E+01  0.67586721466E+02  0.00000000000E+00 0.  1.
</event>
<event>
12    1  0.9873238E-001  0.1933082E+03  0.7818608E-02  0.1158503E+00
         21   -1    0    0  503  502  0.00000000000E+00  0.00000000000E+00  0.25696433984E+03  0.25696433984E+03  0.00000000000E+00 0.  1.
         21   -1    0    0  501  503 -0.00000000000E+00 -0.00000000000E+00 -0.13582496893E+03  0.13582496893E+03  0.00000000000E+00 0.  1.
          6    2    1    2  501    0 -0.58311203112E+02 -0.60278909110E+02  0.67208488011E+02  0.20465834522E+03  0.17416748869E+03 0.  0.
         24    2    3    3    0    0 -0.38668505427E+02  0.35487463045E+02  0.32105341533E+02  0.10068068175E+03  0.79694625780E+02 0.  0.
         -6    2    1    2    0  502  0.58311203112E+02  0.60278909110E+02  0.53930882891E+02  0.18813096355E+03  0.15953362036E+03 0.  0.
        -24    2    5    5    0    0 -0.83992237083E+01 -0.56436406395E+01  0.46119406656E+02  0.93901600962E+02  0.81167193831E+02 0.  0.
          5    1    3    3  501    0 -0.19642697685E+02 -0.95766372155E+02  0.35103146478E+02  0.10397766347E+03  0.47000000000E+01 0. -1.
        -11    1    4    4    0    0 -0.62920826019E+02  0.30758418353E+02  0.18348478452E+02  0.72400119531E+02  0.00000000000E+00 0.  1.
         12    1    4    4    0    0  0.24252320593E+02  0.47290446918E+01  0.13756863081E+02  0.28280562223E+02  0.00000000000E+00 0. -1.
         -5    1    5    5    0  502  0.66710426820E+02  0.65922549750E+02  0.78114762346E+01  0.94229362584E+02  0.47000000000E+01 0.  1.
         11    1    6    6    0    0  0.25464446470E+02 -0.18107848516E+02 -0.46753911335E+01  0.31594168673E+02  0.00000000000E+00 0. -1.
        -12    1    6    6    0    0 -0.33863670178E+02  0.12464207877E+02  0.50794797790E+02  0.62307432289E+02  0.00000000000E+00 0.  1.
</event>
<event>
12    1  0.9873238E-001  0.1882313E+03  0.7818608E-02  0.1160698E+00
         21   -1    0    0  501  502  0.00000000000E+00  0.00000000000E+00  0.15409545669E+03  0.15409545669E+03  0.00000000000E+00 0.  1.
         21   -1    0    0  502  503 -0.00000000000E+00 -0.00000000000E+00 -0.28453004942E+03  0.28453004942E+03  0.00000000000E+00 0. -1.
         -6    2    1    2    0  503  0.12948542816E+02  0.74610816958E+02  0.33367993005E+02  0.19116600718E+03  0.17232695835E+03 0.  0.
        -24    2    3    3    0    0  0.21194988279E+02 -0.95920591287E+01  0.59837324899E+02  0.10239189082E+03  0.79764395117E+02 0.  0.
          6    2    1    2  501    0 -0.12948542816E+02 -0.74610816958E+02 -0.16380258573E+03  0.24745949894E+03  0.16932358889E+03 0.  0.
         24    2    5    5    0    0 -0.50572786665E+02 -0.81414532196E+02 -0.62405364237E+02  0.13899125108E+03  0.78982311866E+02 0.  0.
          5    1    5    5  501    0  0.37624243850E+02  0.68037152386E+01 -0.10139722150E+03  0.10846824786E+03  0.47000000000E+01 0. -1.
        -13    1    6    6    0    0 -0.33691556696E+02  0.25880235158E+01 -0.35904229584E+02  0.49304488238E+02  0.00000000000E+00 0.  1.
         14    1    6    6    0    0 -0.16881229969E+02 -0.84002555712E+02 -0.26501134653E+02  0.89686762844E+02  0.00000000000E+00 0. -1.
         -5    1    3    3    0  503 -0.82464454635E+01  0.84202876087E+02 -0.26469331894E+02  0.88774116357E+02  0.47000000000E+01 0.  1.
         11    1    4    4    0    0 -0.23146128428E+02  0.12276688386E+02  0.19615992336E+01  0.26273717104E+02  0.00000000000E+00 0. -1.
        -12    1    4    4    0    0  0.44341116707E+02 -0.21868747515E+02  0.57875725665E+02  0.76118173717E+02  0.00000000000E+00 0.  1.
</event>
<event>
12    1  0.9873238E-001  0.1771838E+03  0.7818608E-02  0.1170795E+00
         21   -1    0    0  501  502  0.00000000000E+00  0.00000000000E+00  0.90908973913E+02  0.90908973913E+02  0.00000000000E+00 0. -1.
         21   -1    0    0  502  503 -0.00000000000E+00 -0.00000000000E+00 -0.36839995508E+03  0.36839995508E+03  0.00000000000E+00 0. -1.
         -6    2    1    2    0  503  0.37864314715E+02 -0.81431591525E+01 -0.79347639139E+02  0.19413950058E+03  0.17289904707E+03 0.  0.
        -24    2    3    3    0    0 -0.38674150427E+02  0.19215332534E+02 -0.19079493680E+02  0.92843088647E+02  0.79943061705E+02 0.  0.
          6    2    1    2  501    0 -0.37864314715E+02  0.81431591525E+01 -0.19814334203E+03  0.26516942842E+03  0.17191283956E+03 0.  0.
         24    2    5    5    0    0 -0.87676226850E+02 -0.17085216459E+02 -0.13243967310E+03  0.17881689726E+03  0.80350422261E+02 0.  0.
          5    1    5    5  501    0  0.49811912135E+02  0.25228375611E+02 -0.65703668933E+02  0.86352531160E+02  0.47000000000E+01 0. -1.
        -13    1    6    6    0    0 -0.93669061351E+02  0.78689358200E+01 -0.97137787885E+02  0.13517234569E+03  0.00000000000E+00 0.  1.
         14    1    6    6    0    0  0.59928345013E+01 -0.24954152279E+02 -0.35301885215E+02  0.43644551562E+02  0.00000000000E+00 0. -1.
         -5    1    3    3    0  503  0.76538465143E+02 -0.27358491687E+02 -0.60268145459E+02  0.10129641193E+03  0.47000000000E+01 0.  1.
         13    1    4    4    0    0 -0.29372915026E+02 -0.23372774858E+02 -0.29828121885E+02  0.47945506535E+02  0.00000000000E+00 0. -1.
        -14    1    4    4    0    0 -0.93012354009E+01  0.42588107392E+02  0.10748628205E+02  0.44897582112E+02  0.00000000000E+00 0.  1.
</event>
<event>
12    1  0.9873238E-001  0.1852618E+03  0.7818608E-02  0.1163146E+00
         21   -1    0    0  501  502  0.00000000000E+00  0.00000000000E+00  0.26509561446E+03  0.26509561446E+03  0.00000000000E+00 0.  1.
         21   -1    0    0  502  503 -0.00000000000E+00 -0.00000000000E+00 -0.87801937897E+03  0.87801937897E+03  0.00000000000E+00 0.  1.
         -6    2    1    2    0  503 -0.12442351995E+02  0.65388505459E+02 -0.83473311837E+03  0.85504462364E+03  0.17289147100E+03 0.  0.
        -24    2    3    3    0    0  0.37834292801E+02  0.22159421770E+02 -0.68694033220E+03  0.69299126103E+03  0.80171030802E+02 0.  0.
          6    2    1    2  501    0  0.12442351995E+02 -0.65388505459E+02  0.22180935386E+03  0.28807036979E+03  0.17133207442E+03 0.  0.
         24    2    5    5    0    0 -0.39120910821E+01 -0.10841701557E+03  0.16920986843E+03  0.21801527463E+03  0.84434155870E+02 0.  0.
          5    1    5    5  501    0  0.16354443077E+02  0.43028510108E+02  0.52599485431E+02  0.70055095162E+02  0.47000000000E+01 0. -1.
        -13    1    6    6    0    0  0.34262461496E+02 -0.66218362964E+02  0.12661333928E+03  0.14693442600E+03  0.00000000000E+00 0.  1.
         14    1    6    6    0    0 -0.38174552578E+02 -0.42198652604E+02  0.42596529150E+02  0.71080848629E+02  0.00000000000E+00 0. -1.
         -5    1    3    3    0  503 -0.50276644796E+02  0.43229083689E+02 -0.14779278617E+03  0.16205336261E+03  0.47000000000E+01 0.  1.
         13    1    4    4    0    0 -0.33180944899E+01  0.23920716302E+02 -0.53564608158E+03  0.53619020425E+03  0.00000000000E+00 0. -1.
        -14    1    4    4    0    0  0.41152387291E+02 -0.17612945320E+01 -0.15129425062E+03  0.15680105678E+03  0.00000000000E+00 0.  1.
</event>
<event>
12    1  0.9873238E-001  0.1757312E+03  0.7818608E-02  0.1172314E+00
         21   -1    0    0  503  502  0.00000000000E+00  0.00000000000E+00  0.72160567201E+02  0.72160567201E+02  0.00000000000E+00 0. -1.
         21   -1    0    0  501  503 -0.00000000000E+00 -0.00000000000E+00 -0.43563393331E+03  0.43563393331E+03  0.00000000000E+00 0. -1.
          6    2    1    2  501    0 -0.67727693514E+01 -0.10046012501E+02 -0.14125523079E+03  0.22448841653E+03  0.17405521009E+03 0.  0.
         24    2    3    3    0    0  0.66688163514E+01 -0.54642706211E+02 -0.14821167067E+03  0.17715953136E+03  0.79928103778E+02 0.  0.
         -6    2    1    2    0  502  0.67727693514E+01  0.10046012501E+02 -0.22221813533E+03  0.28330608398E+03  0.17531299091E+03 0.  0.
        -24    2    5    5    0    0 -0.31854719557E+02 -0.11120434243E+02 -0.22263078347E+03  0.23900753270E+03  0.80135807994E+02 0.  0.
          5    1    3    3  501    0 -0.13441585703E+02  0.44596693710E+02  0.69564398852E+01  0.47328885176E+02  0.47000000000E+01 0. -1.
        -11    1    4    4    0    0  0.23616594391E+02 -0.66890856095E+02 -0.85739276226E+02  0.11128051782E+03  0.00000000000E+00 0.  1.
         12    1    4    4    0    0 -0.16947778039E+02  0.12248149883E+02 -0.62472394447E+02  0.65879013532E+02  0.00000000000E+00 0. -1.
         -5    1    5    5    0  502  0.38627488908E+02  0.21166446744E+02  0.41264814654E+00  0.44298551281E+02  0.47000000000E+01 0.  1.
         11    1    6    6    0    0 -0.99549044245E+01  0.16979333061E+02 -0.18897827692E+03  0.19000049216E+03  0.00000000000E+00 0. -1.
        -12    1    6    6    0    0 -0.21899815132E+02 -0.28099767304E+02 -0.33652506551E+02  0.49007040540E+02  0.00000000000E+00 0.  1.
</event>
<event>
12    1  0.9873238E-001  0.2206128E+03  0.7818608E-02  0.1133778E+00
         21   -1    0    0  503  502  0.00000000000E+00  0.00000000000E+00  0.71893237640E+03  0.71893237640E+03  0.00000000000E+00 0.  1.
         21   -1    0    0  501  503 -0.00000000000E+00 -0.00000000000E+00 -0.67151315223E+02  0.67151315223E+02  0.00000000000E+00 0.  1.
          6    2    1    2  501    0  0.72386855462E+01  0.13425642837E+03  0.31616390057E+03  0.38445089362E+03  0.17252736146E+03 0.  0.
         24    2    3    3    0    0 -0.18278090549E+02  0.16158098002E+03  0.26064500914E+03  0.31735265004E+03  0.79588830884E+02 0.  0.
         -6    2    1    2    0  502 -0.72386855462E+01 -0.13425642837E+03  0.33561716061E+03  0.40163279800E+03  0.17490808675E+03 0.  0.
        -24    2    5    5    0    0  0.11339460898E+02  0.34807665906E+01  0.93950743592E+02  0.12281129684E+03  0.78199573527E+02 0.  0.
          5    1    3    3  501    0  0.25516776095E+02 -0.27324551652E+02  0.55518891428E+02  0.67098243574E+02  0.47000000000E+01 0. -1.
        -11    1    4    4    0    0  0.12634638186E+02  0.20309603605E+02  0.92648143853E+02  0.95685906172E+02  0.00000000000E+00 0.  1.
         12    1    4    4    0    0 -0.30912728734E+02  0.14127137641E+03  0.16799686529E+03  0.22166674387E+03  0.00000000000E+00 0. -1.
         -5    1    5    5    0  502 -0.18578146444E+02 -0.13773719496E+03  0.24166641701E+03  0.27882150117E+03  0.47000000000E+01 0.  1.
         13    1    6    6    0    0 -0.31058222727E+02  0.70458708353E+01  0.20339002625E+02  0.37787994424E+02  0.00000000000E+00 0. -1.
        -14    1    6    6    0    0  0.42397683625E+02 -0.35651042446E+01  0.73611740967E+02  0.85023302413E+02  0.00000000000E+00 0.  1.
</event>
<event>
12    1  0.9873238E-001  0.1988093E+03  0.7818608E-02  0.1151085E+00
         21   -1    0    0  503  502  0.00000000000E+00  0.00000000000E+00  0.30090993689E+02  0.30090993689E+02  0.00000000000E+00 0. -1.
         21   -1    0    0  501  503 -0.00000000000E+00 -0.00000000000E+00 -0.13629301673E+04  0.13629301673E+04  0.00000000000E+00 0. -1.
          6    2    1    2  501    0 -0.90487330711E+02  0.40278735056E+02 -0.80981395080E+03  0.83348518813E+03  0.17055377566E+03 0.  0.
         24    2    3    3    0    0 -0.80819887839E+02 -0.24374209570E+02 -0.36818287222E+03  0.38701731440E+03  0.84248548261E+02 0.  0.
         -6    2    1    2    0  502  0.90487330711E+02 -0.40278735056E+02 -0.52302522280E+03  0.55953597286E+03  0.17237977758E+03 0.  0.
        -24    2    5    5    0    0  0.45177075106E+02 -0.92156525746E+02 -0.34494291244E+03  0.36853931401E+03  0.79384001985E+02 0.  0.
          5    1    3    3  501    0 -0.96674428717E+01  0.64652944627E+02 -0.44163107858E+03  0.44646787373E+03  0.47000000000E+01 0. -1.
        -11    1    4    4    0    0 -0.57164822082E+02 -0.40186019498E+02 -0.13411922134E+03  0.15123061390E+03  0.00000000000E+00 0.  1.
         12    1    4    4    0    0 -0.23655065757E+02  0.15811809928E+02 -0.23406365088E+03  0.23578670050E+03  0.00000000000E+00 0. -1.
         -5    1    5    5    0  502  0.45310255605E+02  0.51877790689E+02 -0.17808231036E+03  0.19099665885E+03  0.47000000000E+01 0.  1.
         13    1    6    6    0    0  0.46672874362E+01 -0.84905044278E+01  0.15337706945E+01  0.98094184330E+01  0.00000000000E+00 0. -1.
        -14    1    6    6    0    0  0.40509787670E+02 -0.83666021318E+02 -0.34647668314E+03  0.35872989558E+03  0.00000000000E+00 0.  1.
</event>
<event>
12    1  0.9873238E-001  0.1947559E+03  0.7818608E-02  0.1154518E+00
         21   -1    0    0  503  502  0.00000000000E+00  0.00000000000E+00  0.61632059378E+03  0.61632059378E+03  0.00000000000E+00 0. -1.
         21   -1    0    0  501  503 -0.00000000000E+00 -0.00000000000E+00 -0.63567231037E+02  0.63567231037E+02  0.00000000000E+00 0. -1.
          6    2    1    2  501    0  0.53945276827E+01 -0.90301057597E+02  0.34363848681E+03  0.39499021527E+03  0.17247167481E+03 0.  0.
         24    2    3    3    0    0  0.59993260505E+02 -0.94289995473E+02  0.27256922553E+03  0.30515779824E+03  0.79608445332E+02 0.  0.
         -6    2    1    2    0  502 -0.53945276827E+01  0.90301057597E+02  0.20911487593E+03  0.28489760954E+03  0.17103869344E+03 0.  0.
        -24    2    5    5    0    0  0.35041016920E+02  0.72679775603E+01  0.15584155620E+03  0.17817524899E+03  0.78607457326E+02 0.  0.
          5    1    3    3  501    0 -0.54598732822E+02  0.39889378759E+01  0.71069261278E+02  0.89832417031E+02  0.47000000000E+01 0. -1.
        -11    1    4    4    0    0  0.44814680261E+02 -0.33456600102E+01  0.84760536558E+02  0.95936945779E+02  0.00000000000E+00 0.  1.
         12    1    4    4    0    0  0.15178580244E+02 -0.90944335463E+02  0.18780868897E+03  0.20922085246E+03  0.00000000000E+00 0. -1.
         -5    1    5    5    0  502 -0.40435544603E+02  0.83033080037E+02  0.53273319730E+02  0.10672236056E+03  0.47000000000E+01 0.  1.
         13    1    6    6    0    0  0.50302922909E+02  0.93538571857E+01  0.51118975209E+02  0.72325848241E+02  0.00000000000E+00 0. -1.
        -14    1    6    6    0    0 -0.15261905989E+02 -0.20858796254E+01  0.10472258099E+03  0.10584940075E+03  0.00000000000E+00 0.  1.
</event>
<event>
12    1  0.9873238E-001  0.3389925E+03  0.7818608E-02  0.1067252E+00
         21   -1    0    0  501  502  0.00000000000E+00  0.00000000000E+00  0.27917919432E+03  0.27917919432E+03  0.00000000000E+00 0.  1.
         21   -1    0    0  502  503 -0.00000000000E+00 -0.00000000000E+00 -0.47330817500E+03  0.47330817500E+03  0.00000000000E+00 0.  1.
         -6    2    1    2    0  503  0.24927475672E+03 -0.15247738117E+03 -0.23324858075E+03  0.41148608350E+03  0.17183899555E+03 0.  0.
        -24    2    3    3    0    0  0.17945939526E+03 -0.73552060323E+02 -0.22566522026E+03  0.30573643422E+03  0.70245252194E+02 0.  0.
          6    2    1    2  501    0 -0.24927475672E+03  0.15247738117E+03  0.39119600066E+02  0.34100128582E+03  0.17136008204E+03 0.  0.
         24    2    5    5    0    0 -0.25643152337E+03  0.13345143886E+03  0.26531077836E+01  0.29898818252E+03  0.76292080797E+02 0.  0.
          5    1    5    5  501    0  0.71567666558E+01  0.19025942311E+02  0.36466492282E+02  0.42013103303E+02  0.47000000000E+01 0. -1.
        -13    1    6    6    0    0 -0.37245336965E+01 -0.53107673817E+01 -0.82370263952E+01  0.10484512639E+02  0.00000000000E+00 0.  1.
         14    1    6    6    0    0 -0.25270698967E+03  0.13876220624E+03  0.10890134179E+02  0.28850366988E+03  0.00000000000E+00 0. -1.
         -5    1    3    3    0  503  0.69815361460E+02 -0.78925320844E+02 -0.75833604944E+01  0.10574964928E+03  0.47000000000E+01 0.  1.
         11    1    4    4    0    0  0.10607402452E+03 -0.75990344123E+02 -0.16587161031E+03  0.21104412378E+03  0.00000000000E+00 0. -1.
        -12    1    4    4    0    0  0.73385370736E+02  0.24382837997E+01 -0.59793609950E+02  0.94692310442E+02  0.00000000000E+00 0.  1.
</event>
<event>
12    1  0.9873238E-001  0.1982441E+03  0.7818608E-02  0.1151334E+00
         21   -1    0    0  503  502  0.00000000000E+00  0.00000000000E+00  0.70240284643E+02  0.70240284643E+02  0.00000000000E+00 0. -1.
         21   -1    0    0  501  503 -0.00000000000E+00 -0.00000000000E+00 -0.11906783110E+04  0.11906783110E+04  0.00000000000E+00 0. -1.
          6    2    1    2  501    0  0.65916313479E+02  0.73287678691E+02 -0.10194142379E+04  0.10384179740E+04  0.17143644873E+03 0.  0.
         24    2    3    3    0    0 -0.29320475822E+02  0.14142756910E+02 -0.27861456239E+03  0.28916873835E+03  0.70233731122E+02 0.  0.
         -6    2    1    2    0  502 -0.65916313479E+02 -0.73287678691E+02 -0.10102378844E+03  0.22250062168E+03  0.17200196681E+03 0.  0.
        -24    2    5    5    0    0 -0.88040383747E+02 -0.94989323085E+02 -0.11173171440E+03  0.18937683063E+03  0.81274395156E+02 0.  0.
          5    1    3    3  501    0  0.95236789301E+02  0.59144921780E+02 -0.74079967553E+03  0.74924923562E+03  0.47000000000E+01 0. -1.
        -11    1    4    4    0    0 -0.36148673047E+02 -0.10636614638E+02 -0.23896064112E+03  0.24191331534E+03  0.00000000000E+00 0.  1.
         12    1    4    4    0    0  0.68281972258E+01  0.24779371548E+02 -0.39653921265E+02  0.47255423005E+02  0.00000000000E+00 0. -1.
         -5    1    5    5    0  502  0.22124070268E+02  0.21701644395E+02  0.10707925961E+02  0.33123791042E+02  0.47000000000E+01 0.  1.
         11    1    6    6    0    0 -0.79266432161E+02 -0.26790742860E+02 -0.68694270136E+02  0.10825808940E+03  0.00000000000E+00 0. -1.
        -12    1    6    6    0    0 -0.87739515861E+01 -0.68198580225E+02 -0.43037444264E+02  0.81118741237E+02  0.00000000000E+00 0.  1.
</event>
<event>
12    1  0.9873238E-001  0.1947619E+03  0.7818608E-02  0.1154251E+00
         21   -1    0    0  501  502  0.00000000000E+00  0.00000000000E+00  0.91434906207E+03  0.91434906207E+03  0.00000000000E+00 0.  1.
         21   -1    0    0  502  503 -0.00000000000E+00 -0.00000000000E+00 -0.55150119883E+02  0.55150119883E+02  0.00000000000E+00 0.  1.
         -6    2    1    2    0  503  0.18031835239E+02  0.90650480384E+02  0.67096774855E+03  0.69864279058E+03  0.17135160505E+03 0.  0.
        -24    2    3    3    0    0  0.19262212134E+02  0.98801045459E+02  0.26311482629E+03  0.29067950578E+03  0.71641355871E+02 0.  0.
          6    2    1    2  501    0 -0.18031835239E+02 -0.90650480384E+02  0.18823119364E+03  0.27085639138E+03  0.17143379427E+03 0.  0.
         24    2    5    5    0    0 -0.57895200923E+02 -0.82402257068E+02  0.19068491603E+03  0.22980481571E+03  0.79419958836E+02 0.  0.
          5    1    5    5  501    0  0.39863365684E+02 -0.82482233153E+01 -0.24537223906E+01  0.41051575671E+02  0.47000000000E+01 0. -1.
        -13    1    6    6    0    0 -0.97421790501E+01  0.15353747925E+02  0.39036294776E+02  0.43063673065E+02  0.00000000000E+00 0.  1.
         14    1    6    6    0    0 -0.48153021873E+02 -0.97756004993E+02  0.15164862125E+03  0.18674114264E+03  0.00000000000E+00 0. -1.
         -5    1    3    3    0  503 -0.12303768948E+01 -0.81505650752E+01  0.40785292227E+03  0.40796328479E+03  0.47000000000E+01 0.  1.
         13    1    4    4    0    0  0.51483353135E+01  0.10689831504E+03  0.23436086218E+03  0.25764077479E+03  0.00000000000E+00 0. -1.
        -14    1    4    4    0    0  0.14113876820E+02 -0.80972695812E+01  0.28753964111E+02  0.33038730993E+02  0.00000000000E+00 0.  1.
</event>
<event>
12    1  0.9873238E-001  0.1851260E+03  0.7818608E-02  0.1163172E+00
         21   -1    0    0  503  502  0.00000000000E+00  0.00000000000E+00  0.80947964144E+02  0.80947964144E+02  0.00000000000E+00 0. -1.
         21   -1    0    0  501  503 -0.00000000000E+00 -0.00000000000E+00 -0.42424504705E+03  0.42424504705E+03  0.00000000000E+00 0. -1.
          6    2    1    2  501    0 -0.40611855797E+02 -0.51365979323E+02 -0.15016180615E+03  0.23836986134E+03  0.17315841332E+03 0.  0.
         24    2    3    3    0    0 -0.38737138427E+02 -0.17995794115E+02 -0.17457026763E+03  0.19671716853E+03  0.79990321623E+02 0.  0.
         -6    2    1    2    0  502  0.40611855797E+02  0.51365979323E+02 -0.19313527676E+03  0.26682314986E+03  0.17206269645E+03 0.  0.
        -24    2    5    5    0    0 -0.39224716221E+02  0.69525774104E+01 -0.12163965313E+03  0.15071913314E+03  0.79580997641E+02 0.  0.
          5    1    3    3  501    0 -0.18747173695E+01 -0.33370185208E+02  0.24408461482E+02  0.41652692806E+02  0.47000000000E+01 0. -1.
        -13    1    4    4    0    0  0.18345319730E+02  0.69594206550E+01 -0.12959912700E+02  0.23514753433E+02  0.00000000000E+00 0.  1.
         14    1    4    4    0    0 -0.57082458157E+02 -0.24955214770E+02 -0.16161035493E+03  0.17320241510E+03  0.00000000000E+00 0. -1.
         -5    1    5    5    0  502  0.79836572018E+02  0.44413401913E+02 -0.71495623625E+02  0.11610401672E+03  0.47000000000E+01 0.  1.
         13    1    6    6    0    0  0.70041597047E+01  0.26613468603E+02 -0.82699594942E+02  0.87158235226E+02  0.00000000000E+00 0. -1.
        -14    1    6    6    0    0 -0.46228875926E+02 -0.19660891192E+02 -0.38940058189E+02  0.63560897914E+02  0.00000000000E+00 0.  1.
</event>
<event>
12    1  0.9873238E-001  0.2241163E+03  0.7818608E-02  0.1131048E+00
         21   -1    0    0  503  502  0.00000000000E+00  0.00000000000E+00  0.63382288662E+03  0.63382288662E+03  0.00000000000E+00 0.  1.
         21   -1    0    0  501  503 -0.00000000000E+00 -0.00000000000E+00 -0.82104236922E+02  0.82104236922E+02  0.00000000000E+00 0.  1.
          6    2    1    2  501    0 -0.10703572808E+03 -0.92801590077E+02  0.20539114421E+03  0.30399613809E+03  0.17366446858E+03 0.  0.
         24    2    3    3    0    0 -0.11023352982E+03 -0.94097252600E+01  0.96477493521E+02  0.16670556172E+03  0.79011793585E+02 0.  0.
         -6    2    1    2    0  502  0.10703572808E+03  0.92801590077E+02  0.34632750549E+03  0.41193098545E+03  0.17226611249E+03 0.  0.
        -24    2    5    5    0    0  0.40197669760E+00  0.67836603529E+02  0.11269639201E+03  0.15386201275E+03  0.79819019230E+02 0.  0.
          5    1    3    3  501    0  0.31978017398E+01 -0.83391864817E+02  0.10891365069E+03  0.13729057637E+03  0.47000000000E+01 0. -1.
        -11    1    4    4    0    0 -0.67136452833E+02 -0.13571075665E+02  0.10220184831E+03  0.12303127729E+03  0.00000000000E+00 0.  1.
         12    1    4    4    0    0 -0.43097076990E+02  0.41613504048E+01 -0.57243547937E+01  0.43674284426E+02  0.00000000000E+00 0. -1.
         -5    1    5    5    0  502  0.10663375139E+03  0.24964986547E+02  0.23363111348E+03  0.25806897271E+03  0.47000000000E+01 0.  1.
         11    1    6    6    0    0 -0.30343928828E+02  0.36260833752E+02  0.95481365783E+02  0.10654714118E+03  0.00000000000E+00 0. -1.
        -12    1    6    6    0    0  0.30745905526E+02  0.31575769777E+02  0.17215026225E+02  0.47314871569E+02  0.00000000000E+00 0.  1.
</event>
<event>
12    1  0.9873238E-001  0.2289008E+03  0.7818608E-02  0.1127435E+00
         21   -1    0    0  501  502  0.00000000000E+00  0.00000000000E+00  0.35811566273E+03  0.35811566273E+03  0.00000000000E+00 0.  1.
         21   -1    0    0  502  503 -0.00000000000E+00 -0.00000000000E+00 -0.17512252596E+03  0.17512252596E+03  0.00000000000E+00 0.  1.
         -6    2    1    2    0  503 -0.12482429301E+03  0.88910759957E+02 -0.16764751622E+02  0.22951390429E+03  0.17002749190E+03 0.  0.
        -24    2    3    3    0    0 -0.14639469053E+03  0.42765898643E+02  0.12700416182E+02  0.17048072388E+03  0.75113574961E+02 0.  0.
          6    2    1    2  501    0  0.12482429301E+03 -0.88910759957E+02  0.19975788839E+03  0.30372428440E+03  0.16987936779E+03 0.  0.
         24    2    5    5    0    0  0.89540408619E+02 -0.15772624776E+02  0.18561460442E+03  0.22116362914E+03  0.78703932636E+02 0.  0.
          5    1    5    5  501    0  0.35283884390E+02 -0.73138135182E+02  0.14143283970E+02  0.82560655260E+02  0.47000000000E+01 0. -1.
        -13    1    6    6    0    0  0.11492710127E+02  0.16242630338E+02  0.31544079247E+01  0.20145861007E+02  0.00000000000E+00 0.  1.
         14    1    6    6    0    0  0.78047698492E+02 -0.32015255113E+02  0.18246019650E+03  0.20101776814E+03  0.00000000000E+00 0. -1.
         -5    1    3    3    0  503  0.21570397519E+02  0.46144861315E+02 -0.29465167804E+02  0.59033180404E+02  0.47000000000E+01 0.  1.
         11    1    4    4    0    0 -0.11174854458E+03  0.58359337839E+02  0.28635318701E+02  0.12928082227E+03  0.00000000000E+00 0. -1.
        -12    1    4    4    0    0 -0.34646145944E+02 -0.15593439196E+02 -0.15934902519E+02  0.41199901614E+02  0.00000000000E+00 0.  1.
</event>
<event>
12    1  0.9873238E-001  0.1868873E+03  0.7818608E-02  0.1161706E+00
         21   -1    0    0  501  502  0.00000000000E+00  0.00000000000E+00  0.33110714920E+03  0.33110714920E+03  0.00000000000E+00 0.  1.
         21   -1    0    0  502  503 -0.00000000000E+00 -0.00000000000E+00 -0.10451009908E+03  0.10451009908E+03  0.00000000000E+00 0.  1.
         -6    2    1    2    0  503 -0.51415319204E+02  0.52932520964E+02  0.11017778514E+03  0.21543477080E+03  0.16978695270E+03 0.  0.
        -24    2    3    3    0    0 -0.79121975216E+02  0.30697268993E+02  0.12961370498E+03  0.17466823798E+03  0.80663942100E+02 0.  0.
          6    2    1    2  501    0  0.51415319204E+02 -0.52932520964E+02  0.11641926498E+03  0.22018247748E+03  0.17170175103E+03 0.  0.
         24    2    5    5    0    0  0.75776782533E+01 -0.54005574529E+02 -0.29517471786E+00  0.95413728822E+02  0.78292204157E+02 0.  0.
          5    1    5    5  501    0  0.43837640951E+02  0.10730535649E+01  0.11671443970E+03  0.12476874866E+03  0.47000000000E+01 0. -1.
        -11    1    6    6    0    0  0.19729260659E+02 -0.38581481753E+02 -0.34890847334E+02  0.55634033541E+02  0.00000000000E+00 0.  1.
         12    1    6    6    0    0 -0.12151582406E+02 -0.15424092776E+02  0.34595672616E+02  0.39779695281E+02  0.00000000000E+00 0. -1.
         -5    1    3    3    0  503  0.27706656012E+02  0.22235251970E+02 -0.19435919847E+02  0.40766532816E+02  0.47000000000E+01 0.  1.
         11    1    4    4    0    0 -0.29986839389E+02 -0.76416486747E+01  0.10646519601E+00  0.30945381979E+02  0.00000000000E+00 0. -1.
        -12    1    4    4    0    0 -0.49135135827E+02  0.38338917668E+02  0.12950723979E+03  0.14372285600E+03  0.00000000000E+00 0.  1.
</event>
<event>
12    1  0.9873238E-001  0.2348391E+03  0.7818608E-02  0.1123463E+00
         21   -1    0    0  503  502  0.00000000000E+00  0.00000000000E+00  0.66271264700E+02  0.66271264700E+02  0.00000000000E+00 0. -1.
         21   -1    0    0  501  503 -0.00000000000E+00 -0.00000000000E+00 -0.11521901153E+04  0.11521901153E+04  0.00000000000E+00 0. -1.
          6    2    1    2  501    0 -0.11814263073E+03 -0.10674335729E+03 -0.86503574423E+03  0.89606603447E+03  0.17115979031E+03 0.  0.
         24    2    3    3    0    0 -0.10654748176E+03 -0.57679359393E+02 -0.35483020513E+03  0.38335412170E+03  0.79853827607E+02 0.  0.
         -6    2    1    2    0  502  0.11814263073E+03  0.10674335729E+03 -0.22088310636E+03  0.32239534552E+03  0.17261977469E+03 0.  0.
        -24    2    5    5    0    0  0.31281784073E+02  0.20978500864E+02 -0.68685105183E+02  0.12723710500E+03  0.10026459845E+03 0.  0.
          5    1    3    3  501    0 -0.11595148974E+02 -0.49063997893E+02 -0.51020553910E+03  0.51271191277E+03  0.47000000000E+01 0. -1.
        -11    1    4    4    0    0 -0.23123131993E+02  0.69548071638E+01 -0.17283130765E+02  0.29694362848E+02  0.00000000000E+00 0.  1.
         12    1    4    4    0    0 -0.83424349767E+02 -0.64634166557E+02 -0.33754707436E+03  0.35365975885E+03  0.00000000000E+00 0. -1.
         -5    1    5    5    0  502  0.86860846662E+02  0.85764856423E+02 -0.15219800118E+03  0.19515824052E+03  0.47000000000E+01 0.  1.
         11    1    6    6    0    0 -0.34420785849E+02  0.14869653141E+02 -0.41335227349E+02  0.55807688565E+02  0.00000000000E+00 0. -1.
        -12    1    6    6    0    0  0.65702569922E+02  0.61088477229E+01 -0.27349877834E+02  0.71429416436E+02  0.00000000000E+00 0.  1.
</event>
<event>
12    1  0.9873238E-001  0.1792907E+03  0.7818608E-02  0.1168778E+00
         21   -1    0    0  503  502  0.00000000000E+00  0.00000000000E+00  0.17116850553E+03  0.17116850553E+03  0.00000000000E+00 0.  1.
         21   -1    0    0  501  503 -0.00000000000E+00 -0.00000000000E+00 -0.20915506050E+03  0.20915506050E+03  0.00000000000E+00 0.  1.
          6    2    1    2  501    0  0.19792223387E+02  0.45425569346E+02  0.43440301399E+02  0.18447821896E+03  0.17230768708E+03 0.  0.
         24    2    3    3    0    0 -0.51817679274E+02  0.31213875149E+02  0.42656118463E+02  0.11131637539E+03  0.83140923140E+02 0.  0.
         -6    2    1    2    0  502 -0.19792223387E+02 -0.45425569346E+02 -0.81426856374E+02  0.19584534707E+03  0.17108434345E+03 0.  0.
        -24    2    5    5    0    0 -0.30201054402E+01 -0.88068100053E+02 -0.91571634269E+02  0.14867866514E+03  0.77167804051E+02 0.  0.
          5    1    3    3  501    0  0.71609902661E+02  0.14211694197E+02  0.78418293584E+00  0.73161843566E+02  0.47000000000E+01 0. -1.
        -13    1    4    4    0    0 -0.59297717750E+02 -0.10072920861E+02  0.18634061806E+02  0.62967541833E+02  0.00000000000E+00 0.  1.
         14    1    4    4    0    0  0.74800384757E+01  0.41286796010E+02  0.24022056657E+02  0.48348833558E+02  0.00000000000E+00 0. -1.
         -5    1    5    5    0  502 -0.16772117947E+02  0.42642530708E+02  0.10144777895E+02  0.47166681928E+02  0.47000000000E+01 0.  1.
         11    1    6    6    0    0  0.32756086561E+01 -0.38245447859E+02 -0.90660151293E+02  0.98451546084E+02  0.00000000000E+00 0. -1.
        -12    1    6    6    0    0 -0.62957140963E+01 -0.49822652195E+02 -0.91148297610E+00  0.50227119058E+02  0.00000000000E+00 0.  1.
</event>
<event>
12    1  0.9873238E-001  0.2029454E+03  0.7818608E-02  0.1148565E+00
         21   -1    0    0  503  502  0.00000000000E+00  0.00000000000E+00  0.32326440398E+03  0.32326440398E+03  0.00000000000E+00 0. -1.
         21   -1    0    0  501  503 -0.00000000000E+00 -0.00000000000E+00 -0.13179662949E+03  0.13179662949E+03  0.00000000000E+00 0. -1.
          6    2    1    2  501    0  0.25284106450E+02 -0.91996349125E+02  0.37611492735E+02  0.20038749630E+03  0.17215664378E+03 0.  0.
         24    2    3    3    0    0  0.32163433749E+02 -0.10248534999E+03  0.80032573378E+02  0.15590174166E+03  0.79764696551E+02 0.  0.
         -6    2    1    2    0  502 -0.25284106450E+02  0.91996349125E+02  0.15385628175E+03  0.25467353717E+03  0.17912074366E+03 0.  0.
        -24    2    5    5    0    0 -0.76753804194E+02  0.10157159503E+03  0.10718868526E+03  0.18438292840E+03  0.79370741846E+02 0.  0.
          5    1    3    3  501    0 -0.68793272993E+01  0.10489000869E+02 -0.42421080643E+02  0.44485754644E+02  0.47000000000E+01 0. -1.
        -13    1    4    4    0    0 -0.15981424547E+02 -0.58409270775E+02  0.65161948199E+02  0.88955766176E+02  0.00000000000E+00 0.  1.
         14    1    4    4    0    0  0.48144858296E+02 -0.44076079219E+02  0.14870625179E+02  0.66945975479E+02  0.00000000000E+00 0. -1.
         -5    1    5    5    0  502  0.51469697744E+02 -0.95752459033E+01  0.46667596489E+02  0.70290608775E+02  0.47000000000E+01 0.  1.
         13    1    6    6    0    0 -0.24244932529E+02 -0.95067507679E+01  0.27850289014E+02  0.38129170744E+02  0.00000000000E+00 0. -1.
        -14    1    6    6    0    0 -0.52508871666E+02  0.11107834580E+03  0.79338396248E+02  0.14625375765E+03  0.00000000000E+00 0.  1.
</event>
<event>
12    1  0.9873238E-001  0.2004708E+03  0.7818608E-02  0.1149622E+00
         21   -1    0    0  501  502  0.00000000000E+00  0.00000000000E+00  0.15436801550E+04  0.15436801550E+04  0.00000000000E+00 0. -1.
         21   -1    0    0  502  503 -0.00000000000E+00 -0.00000000000E+00 -0.25949530865E+02  0.25949530865E+02  0.00000000000E+00 0. -1.
         -6    2    1    2    0  503  0.68938007944E+02  0.76000444745E+02  0.80182792983E+03  0.82618821308E+03  0.17067635409E+03 0.  0.
        -24    2    3    3    0    0  0.29499690581E+02  0.77711858875E+02  0.28788376778E+03  0.31070882309E+03  0.82179950321E+02 0.  0.
          6    2    1    2  501    0 -0.68938007944E+02 -0.76000444745E+02  0.71590269426E+03  0.74344147273E+03  0.17222090231E+03 0.  0.
         24    2    5    5    0    0 -0.92748701832E+02 -0.40957441775E+01  0.37808367476E+03  0.39720309381E+03  0.78765067111E+02 0.  0.
          5    1    5    5  501    0  0.23810693887E+02 -0.71904700567E+02  0.33781901950E+03  0.34623837893E+03  0.47000000000E+01 0. -1.
        -11    1    6    6    0    0 -0.94984871581E+02  0.18255346218E+02  0.33404695155E+03  0.34776824083E+03  0.00000000000E+00 0.  1.
         12    1    6    6    0    0  0.22361697496E+01 -0.22351090395E+02  0.44036723214E+02  0.49434852973E+02  0.00000000000E+00 0. -1.
         -5    1    3    3    0  503  0.39438317363E+02 -0.17114141300E+01  0.51394416204E+03  0.51547939000E+03  0.47000000000E+01 0.  1.
         11    1    4    4    0    0  0.19538050718E+02 -0.13583070303E+02  0.79521224252E+02  0.83005182557E+02  0.00000000000E+00 0. -1.
        -12    1    4    4    0    0  0.99616398634E+01  0.91294929178E+02  0.20836254353E+03  0.22770364053E+03  0.00000000000E+00 0.  1.
</event>
<event>
12    1  0.9873238E-001  0.4222966E+03  0.7818608E-02  0.1036356E+00
         21   -1    0    0  503  502  0.00000000000E+00  0.00000000000E+00  0.81103645170E+03  0.81103645170E+03  0.00000000000E+00 0. -1.
         21   -1    0    0  501  503 -0.00000000000E+00 -0.00000000000E+00 -0.30635252959E+03  0.30635252959E+03  0.00000000000E+00 0. -1.
          6    2    1    2  501    0  0.30624438717E+03 -0.23414682381E+03  0.54945369280E+03  0.69272587371E+03  0.17134589519E+03 0.  0.
         24    2    3    3    0    0  0.19087324143E+03 -0.16721961579E+03  0.46186446376E+03  0.53308967641E+03  0.80441444646E+02 0.  0.
         -6    2    1    2    0  502 -0.30624438717E+03  0.23414682381E+03 -0.44769770693E+02  0.42466310758E+03  0.17240667853E+03 0.  0.
        -24    2    5    5    0    0 -0.64469207327E+02  0.83698750845E+02 -0.45892537493E+02  0.13985929642E+03  0.79326781176E+02 0.  0.
          5    1    3    3  501    0  0.11537114574E+03 -0.66927208025E+02  0.87589229043E+02  0.15963619729E+03  0.47000000000E+01 0. -1.
        -13    1    4    4    0    0  0.47566777346E+02 -0.10927300799E+02  0.13418128071E+03  0.14278172258E+03  0.00000000000E+00 0.  1.
         14    1    4    4    0    0  0.14330646408E+03 -0.15629231499E+03  0.32768318305E+03  0.39030795383E+03  0.00000000000E+00 0. -1.
         -5    1    5    5    0  502 -0.24177517984E+03  0.15044807297E+03  0.11227668000E+01  0.28480381116E+03  0.47000000000E+01 0.  1.
         11    1    6    6    0    0 -0.41265688447E+02  0.95040828037E+02 -0.24865037551E+02  0.10655461571E+03  0.00000000000E+00 0. -1.
        -12    1    6    6    0    0 -0.23203518880E+02 -0.11342077192E+02 -0.21027499941E+02  0.33304680710E+02  0.00000000000E+00 0.  1.
</event>
<event>
12    1  0.9873238E-001  0.2455789E+03  0.7818608E-02  0.1116973E+00
         21   -1    0    0  503  502  0.00000000000E+00  0.00000000000E+00  0.21577355901E+03  0.21577355901E+03  0.00000000000E+00 0. -1.
         21   -1    0    0  501  503 -0.00000000000E+00 -0.00000000000E+00 -0.31322942051E+03  0.31322942051E+03  0.00000000000E+00 0. -1.
          6    2    1    2  501    0  0.14357863632E+02 -0.18004030921E+03  0.45716425076E+02  0.24473672787E+03  0.15869912810E+03 0.  0.
         24    2    3    3    0    0 -0.59777111731E+01 -0.19803350589E+03  0.42279159472E+02  0.21696632052E+03  0.77677888940E+02 0.  0.
         -6    2    1    2    0  502 -0.14357863632E+02  0.18004030921E+03 -0.14317228657E+03  0.28426625165E+03  0.16639812798E+03 0.  0.
        -24    2    5    5    0    0  0.52534994022E+02  0.10271455226E+03 -0.10398279963E+03  0.17466774354E+03  0.79913660737E+02 0.  0.
          5    1    3    3  501    0  0.20335574805E+02  0.17993196680E+02  0.34372656044E+01  0.27770407347E+02  0.47000000000E+01 0. -1.
        -13    1    4    4    0    0  0.15086185089E+02 -0.15671093842E+03  0.50919132752E+01  0.15751774117E+03  0.00000000000E+00 0.  1.
         14    1    4    4    0    0 -0.21063896262E+02 -0.41322567468E+02  0.37187246197E+02  0.59448579357E+02  0.00000000000E+00 0. -1.
         -5    1    5    5    0  502 -0.66892857654E+02  0.77325756953E+02 -0.39189486947E+02  0.10959850811E+03  0.47000000000E+01 0.  1.
         13    1    6    6    0    0  0.18117188722E+02  0.85573389973E+02 -0.32149788187E+02  0.93191450676E+02  0.00000000000E+00 0. -1.
        -14    1    6    6    0    0  0.34417805300E+02  0.17141162285E+02 -0.71833011439E+02  0.81476292862E+02  0.00000000000E+00 0.  1.
</event>
<event>
12    1  0.9873238E-001  0.2399895E+03  0.7818608E-02  0.1119814E+00
         21   -1    0    0  503  502  0.00000000000E+00  0.00000000000E+00  0.22243599465E+03  0.22243599465E+03  0.00000000000E+00 0. -1.
         21   -1    0    0  501  503 -0.00000000000E+00 -0.00000000000E+00 -0.28369297032E+03  0.28369297032E+03  0.00000000000E+00 0. -1.
          6    2    1    2  501    0  0.55517391189E+02  0.15865746531E+03 -0.10554331009E+03  0.26217240834E+03  0.17129100785E+03 0.  0.
         24    2    3    3    0    0  0.19370710024E+02  0.17884161193E+03 -0.74373005786E+02  0.21013722597E+03  0.79162890217E+02 0.  0.
         -6    2    1    2    0  502 -0.55517391189E+02 -0.15865746531E+03  0.44286334411E+02  0.24395655663E+03  0.17116994503E+03 0.  0.
        -24    2    5    5    0    0 -0.60165230419E+02 -0.41623810290E+02 -0.23699246865E+02  0.10844785551E+03  0.76464936596E+02 0.  0.
          5    1    3    3  501    0  0.36146681165E+02 -0.20184146617E+02 -0.31170304302E+02  0.52035182369E+02  0.47000000000E+01 0. -1.
        -11    1    4    4    0    0 -0.11597563600E+01  0.52256506265E+02 -0.62312365036E+02  0.81332148122E+02  0.00000000000E+00 0.  1.
         12    1    4    4    0    0  0.20530466384E+02  0.12658510566E+03 -0.12060640750E+02  0.12880507785E+03  0.00000000000E+00 0. -1.
         -5    1    5    5    0  502  0.46478392306E+01 -0.11703365502E+03  0.67985581276E+02  0.13550870112E+03  0.47000000000E+01 0.  1.
         11    1    6    6    0    0 -0.52510638465E+02  0.63328885247E+01  0.30972356043E+01  0.52981746833E+02  0.00000000000E+00 0. -1.
        -12    1    6    6    0    0 -0.76545919538E+01 -0.47956698814E+02 -0.26796482469E+02  0.55466108678E+02  0.00000000000E+00 0.  1.
</event>
<event>
12    1  0.9873238E-001  0.2955787E+03  0.7818608E-02  0.1087486E+00
         21   -1    0    0  503  502  0.00000000000E+00  0.00000000000E+00  0.33192930512E+03  0.33192930512E+03  0.00000000000E+00 0. -1.
         21   -1    0    0  501  503 -0.00000000000E+00 -0.00000000000E+00 -0.82063480673E+03  0.82063480673E+03  0.00000000000E+00 0. -1.
          6    2    1    2  501    0  0.17440193622E+03  0.16454507070E+03  0.23066095303E+03  0.37483995133E+03  0.17265398404E+03 0.  0.
         24    2    3    3    0    0  0.10824136747E+03  0.12540764006E+03  0.70303163465E+02  0.19694765242E+03  0.80016080774E+02 0.  0.
         -6    2    1    2    0  502 -0.17440193622E+03 -0.16454507070E+03 -0.71936645464E+03  0.77772416053E+03  0.17284576407E+03 0.  0.
        -24    2    5    5    0    0 -0.99346036102E+02 -0.16255432401E+03 -0.41229216605E+03  0.46156904048E+03  0.82265459368E+02 0.  0.
          5    1    3    3  501    0  0.66160568753E+02  0.39137430636E+02  0.16035778957E+03  0.17789229890E+03  0.47000000000E+01 0. -1.
        -11    1    4    4    0    0  0.48327199455E+02  0.30595771622E+02  0.62196897029E+02  0.84498955309E+02  0.00000000000E+00 0.  1.
         12    1    4    4    0    0  0.59914168017E+02  0.94811868442E+02  0.81062664354E+01  0.11244869711E+03  0.00000000000E+00 0. -1.
         -5    1    5    5    0  502 -0.75055900123E+02 -0.19907466927E+01 -0.30707428860E+03  0.31615512005E+03  0.47000000000E+01 0.  1.
         13    1    6    6    0    0 -0.28345972227E+02 -0.66011708423E+02 -0.24811749033E+03  0.25830859218E+03  0.00000000000E+00 0. -1.
        -14    1    6    6    0    0 -0.71000063875E+02 -0.96542615584E+02 -0.16417467572E+03  0.20326044830E+03  0.00000000000E+00 0.  1.
</event>
<event>
12    1  0.9873238E-001  0.2038670E+03  0.7818608E-02  0.1146651E+00
         21   -1    0    0  501  502  0.00000000000E+00  0.00000000000E+00  0.38948659919E+03  0.38948659919E+03  0.00000000000E+00 0.  1.
         21   -1    0    0  502  503 -0.00000000000E+00 -0.00000000000E+00 -0.11288347883E+03  0.11288347883E+03  0.00000000000E+00 0.  1.
         -6    2    1    2    0  503 -0.97218973480E+02 -0.43089165215E+02  0.19885071989E+03  0.28478651388E+03  0.17393546138E+03 0.  0.
        -24    2    3    3    0    0 -0.32987932554E+02 -0.41803792333E+02  0.19853382780E+03  0.22037014001E+03  0.79445308747E+02 0.  0.
          6    2    1    2  501    0  0.97218973480E+02  0.43089165215E+02  0.77752400465E+02  0.21758356414E+03  0.17317322727E+03 0.  0.
         24    2    5    5    0    0  0.10743402078E+03  0.37636245179E+01  0.10252300357E+03  0.16976601380E+03  0.82178461222E+02 0.  0.
          5    1    5    5  501    0 -0.10215047300E+02  0.39325540697E+02 -0.24770603106E+02  0.47817550342E+02  0.47000000000E+01 0. -1.
        -13    1    6    6    0    0  0.41491923406E+02  0.28906442763E+02  0.81878918965E+02  0.96235749656E+02  0.00000000000E+00 0.  1.
         14    1    6    6    0    0  0.65942097374E+02 -0.25142818245E+02  0.20644084607E+02  0.73530264141E+02  0.00000000000E+00 0. -1.
         -5    1    3    3    0  503 -0.64231040926E+02 -0.12853728814E+01  0.31689209445E+00  0.64416373869E+02  0.47000000000E+01 0.  1.
         13    1    4    4    0    0 -0.54017776224E+02 -0.41641838747E+02  0.11046230979E+03  0.12982251255E+03  0.00000000000E+00 0. -1.
        -14    1    4    4    0    0  0.21029843670E+02 -0.16195358616E+00  0.88071518009E+02  0.90547627457E+02  0.00000000000E+00 0.  1.
</event>
<event>
12    1  0.9873238E-001  0.1843437E+03  0.7818608E-02  0.1164013E+00
         21   -1    0    0  503  502  0.00000000000E+00  0.00000000000E+00  0.14542516344E+04  0.14542516344E+04  0.00000000000E+00 0.  1.
         21   -1    0    0  501  503 -0.00000000000E+00 -0.00000000000E+00 -0.23239416428E+02  0.23239416428E+02  0.00000000000E+00 0.  1.
          6    2    1    2  501    0 -0.28081760751E+02 -0.59545076548E+02  0.74978773802E+03  0.77176490732E+03  0.17060251654E+03 0.  0.
         24    2    3    3    0    0 -0.67999891008E+00 -0.95229662973E+02  0.39729201566E+03  0.41637839865E+03  0.80379562356E+02 0.  0.
         -6    2    1    2    0  502  0.28081760751E+02  0.59545076548E+02  0.68122448000E+03  0.70572614356E+03  0.17218709628E+03 0.  0.
        -24    2    5    5    0    0 -0.49940654288E+02  0.24279738272E+01  0.27919738554E+03  0.29220741926E+03  0.70242663446E+02 0.  0.
          5    1    3    3  501    0 -0.27401761841E+02  0.35684586426E+02  0.35249572236E+03  0.35538650867E+03  0.47000000000E+01 0. -1.
        -11    1    4    4    0    0 -0.20444614991E+02 -0.82140902729E+02  0.37281521301E+03  0.38230392783E+03  0.00000000000E+00 0.  1.
         12    1    4    4    0    0  0.19764616081E+02 -0.13088760245E+02  0.24476802655E+02  0.34074470822E+02  0.00000000000E+00 0. -1.
         -5    1    5    5    0  502  0.78022415038E+02  0.57117102721E+02  0.40202709445E+03  0.41351872430E+03  0.47000000000E+01 0.  1.
         11    1    6    6    0    0 -0.32969131416E+02  0.27935222222E+02  0.82439511573E+02  0.93078533160E+02  0.00000000000E+00 0. -1.
        -12    1    6    6    0    0 -0.16971522872E+02 -0.25507248395E+02  0.19675787397E+03  0.19912888610E+03  0.00000000000E+00 0.  1.
</event>
<event>
12    1  0.9873238E-001  0.3000416E+03  0.7818608E-02  0.1085298E+00
         21   -1    0    0  503  502  0.00000000000E+00  0.00000000000E+00  0.28991502502E+03  0.28991502502E+03  0.00000000000E+00 0. -1.
         21   -1    0    0  501  503 -0.00000000000E+00 -0.00000000000E+00 -0.31596959593E+03  0.31596959593E+03  0.00000000000E+00 0. -1.
          6    2    1    2  501    0  0.23442813752E+03 -0.73518157281E+02  0.29024237450E+02  0.30144211732E+03  0.17223087012E+03 0.  0.
         24    2    3    3    0    0  0.17599606225E+03 -0.60160543808E+02  0.84757759674E+02  0.21946011467E+03  0.79905939383E+02 0.  0.
         -6    2    1    2    0  502 -0.23442813752E+03  0.73518157281E+02 -0.55078808363E+02  0.30444250363E+03  0.17114348301E+03 0.  0.
        -24    2    5    5    0    0 -0.63086633055E+02  0.97524783632E+00  0.21347351730E+02  0.10323755139E+03  0.78875903873E+02 0.  0.
          5    1    3    3  501    0  0.58432075271E+02 -0.13357613473E+02 -0.55733522223E+02  0.81982002644E+02  0.47000000000E+01 0. -1.
        -13    1    4    4    0    0  0.17609067733E+03 -0.67917453835E+02  0.90977044162E+02  0.20951737336E+03  0.00000000000E+00 0.  1.
         14    1    4    4    0    0 -0.94615078774E-01  0.77569100266E+01 -0.62192844882E+01  0.99427413081E+01  0.00000000000E+00 0. -1.
         -5    1    5    5    0  502 -0.17134150446E+03  0.72542909444E+02 -0.76426160093E+02  0.20120495225E+03  0.47000000000E+01 0.  1.
         11    1    6    6    0    0  0.92094016164E+00  0.12560843525E+02  0.34628650108E+02  0.36847880931E+02  0.00000000000E+00 0. -1.
        -12    1    6    6    0    0 -0.64007573216E+02 -0.11585595688E+02 -0.13281298378E+02  0.66389670455E+02  0.00000000000E+00 0.  1.
</event>
<event>
12    1  0.9873238E-001  0.1999901E+03  0.7818608E-02  0.1149814E+00
         21   -1    0    0  503  502  0.00000000000E+00  0.00000000000E+00  0.36991842698E+02  0.36991842698E+02  0.00000000000E+00 0. -1.
         21   -1    0    0  501  503 -0.00000000000E+00 -0.00000000000E+00 -0.11091958443E+04  0.11091958443E+04  0.00000000000E+00 0.  1.
          6    2    1    2  501    0 -0.54210407730E+01 -0.10274799429E+03 -0.63028308506E+03  0.66125092683E+03  0.17149193248E+03 0.  0.
         24    2    3    3    0    0  0.52695272813E+02 -0.18363229972E+02 -0.32824142011E+03  0.34226887135E+03  0.79319294161E+02 0.  0.
         -6    2    1    2    0  502  0.54210407730E+01  0.10274799429E+03 -0.44192091655E+03  0.48493676017E+03  0.17112284147E+03 0.  0.
        -24    2    5    5    0    0  0.59000319809E+02  0.22680073877E+02 -0.23153749121E+03  0.25349586777E+03  0.81578928964E+02 0.  0.
          5    1    3    3  501    0 -0.58116313586E+02 -0.84384764316E+02 -0.30204166494E+03  0.31898205548E+03  0.47000000000E+01 0. -1.
        -11    1    4    4    0    0 -0.72756639354E+01 -0.90556251317E+01 -0.20058093933E+03  0.20091702978E+03  0.00000000000E+00 0.  1.
         12    1    4    4    0    0  0.59970936748E+02 -0.93076048406E+01 -0.12766048078E+03  0.14135184157E+03  0.00000000000E+00 0. -1.
         -5    1    5    5    0  502 -0.53579279036E+02  0.80067920411E+02 -0.21038342533E+03  0.23144089240E+03  0.47000000000E+01 0.  1.
         11    1    6    6    0    0  0.26389472401E+02  0.46919511444E+02 -0.17994164126E+03  0.18782129556E+03  0.00000000000E+00 0. -1.
        -12    1    6    6    0    0  0.32610847408E+02 -0.24239437567E+02 -0.51595849954E+02  0.65674572208E+02  0.00000000000E+00 0.  1.
</event>
<event>
12    1  0.9873238E-001  0.1905841E+03  0.7818608E-02  0.1161528E+00
         21   -1    0    0  503  502  0.00000000000E+00  0.00000000000E+00  0.25621273614E+04  0.25621273614E+04  0.00000000000E+00 0. -1.
         21   -1    0    0  501  503 -0.00000000000E+00 -0.00000000000E+00 -0.49108092258E+02  0.49108092258E+02  0.00000000000E+00 0.  1.
          6    2    1    2  501    0  0.22526491455E+02  0.23263106176E+02  0.23888104999E+04  0.23964010317E+04  0.18781290017E+03 0.  0.
         24    2    3    3    0    0  0.43978443896E+02 -0.38263042579E+02  0.72387867944E+03  0.73018804713E+03  0.76000510954E+02 0.  0.
         -6    2    1    2    0  502 -0.22526491455E+02 -0.23263106176E+02  0.12420876923E+03  0.21483442193E+03  0.17227128479E+03 0.  0.
        -24    2    5    5    0    0  0.39370036981E+02 -0.12447110901E+02  0.26650619998E+02  0.98697225180E+02  0.85591800602E+02 0.  0.
          5    1    3    3  501    0 -0.21451952440E+02  0.61526148755E+02  0.16649318205E+04  0.16662129846E+04  0.47000000000E+01 0. -1.
        -11    1    4    4    0    0  0.57690340058E+02 -0.50624148299E+02  0.61241712444E+03  0.61720799900E+03  0.00000000000E+00 0.  1.
         12    1    4    4    0    0 -0.13711896162E+02  0.12361105720E+02  0.11146155501E+03  0.11298004813E+03  0.00000000000E+00 0. -1.
         -5    1    5    5    0  502 -0.61896528437E+02 -0.10815995275E+02  0.97558149232E+02  0.11613719675E+03  0.47000000000E+01 0.  1.
         13    1    6    6    0    0  0.52973920752E+01  0.14221422147E+02  0.48076202370E+02  0.50414605473E+02  0.00000000000E+00 0. -1.
        -14    1    6    6    0    0  0.34072644906E+02 -0.26668533048E+02 -0.21425582371E+02  0.48282619707E+02  0.00000000000E+00 0.  1.
</event>
<event>
12    1  0.9873238E-001  0.2804726E+03  0.7818608E-02  0.1095447E+00
         21   -1    0    0  503  502  0.00000000000E+00  0.00000000000E+00  0.30448229581E+03  0.30448229581E+03  0.00000000000E+00 0.  1.
         21   -1    0    0  501  503 -0.00000000000E+00 -0.00000000000E+00 -0.33183417534E+03  0.33183417534E+03  0.00000000000E+00 0.  1.
          6    2    1    2  501    0 -0.19215795098E+03 -0.10961873182E+03  0.13615227248E+03  0.31166517166E+03  0.17221147882E+03 0.  0.
         24    2    3    3    0    0 -0.10525139217E+03 -0.12491018680E+03  0.13026546392E+03  0.22310263402E+03  0.78264192942E+02 0.  0.
         -6    2    1    2    0  502  0.19215795098E+03  0.10961873182E+03 -0.16350415202E+03  0.32465129948E+03  0.17240624710E+03 0.  0.
        -24    2    5    5    0    0  0.59006744459E+02  0.81272228462E+02 -0.13304606025E+03  0.18507138186E+03  0.80393975049E+02 0.  0.
          5    1    3    3  501    0 -0.86906558810E+02  0.15291454977E+02  0.58868085614E+01  0.88562537648E+02  0.47000000000E+01 0. -1.
        -13    1    4    4    0    0 -0.49936367538E+02 -0.22227804097E+02  0.78117457028E+02  0.95341770333E+02  0.00000000000E+00 0.  1.
         14    1    4    4    0    0 -0.55315024629E+02 -0.10268238270E+03  0.52148006892E+02  0.12776086368E+03  0.00000000000E+00 0. -1.
         -5    1    5    5    0  502  0.13315120652E+03  0.28346503357E+02 -0.30458091766E+02  0.13957991762E+03  0.47000000000E+01 0.  1.
         11    1    6    6    0    0  0.51442812821E+02  0.99651774901E+01 -0.32798135393E+02  0.61817355481E+02  0.00000000000E+00 0. -1.
        -12    1    6    6    0    0  0.75639316376E+01  0.71307050972E+02 -0.10024792486E+03  0.12325402638E+03  0.00000000000E+00 0.  1.
</event>
<event>
12    1  0.9873238E-001  0.1847532E+03  0.7818608E-02  0.1163281E+00
         21   -1    0    0  501  502  0.00000000000E+00  0.00000000000E+00  0.36295437742E+03  0.36295437742E+03  0.00000000000E+00 0.  1.
         21   -1    0    0  502  503 -0.00000000000E+00 -0.00000000000E+00 -0.94491932682E+02  0.94491932682E+02  0.00000000000E+00 0.  1.
         -6    2    1    2    0  503  0.62009306690E+02 -0.27457379555E+02  0.11847220497E+03  0.21947396887E+03  0.17185487440E+03 0.  0.
        -24    2    3    3    0    0  0.81099416683E+01  0.16386421143E+02  0.24630808044E+00  0.82262915728E+02  0.80204991644E+02 0.  0.
          6    2    1    2  501    0 -0.62009306690E+02  0.27457379555E+02  0.14999023977E+03  0.23797234123E+03  0.17185663024E+03 0.  0.
         24    2    5    5    0    0 -0.83517438522E+02  0.68968526107E+02  0.91064243288E+02  0.16260565042E+03  0.80100443265E+02 0.  0.
          5    1    5    5  501    0  0.21508131832E+02 -0.41511146552E+02  0.58925996479E+02  0.75366690813E+02  0.47000000000E+01 0. -1.
        -11    1    6    6    0    0  0.51900406432E+01  0.36819986134E+02  0.42558619946E+02  0.56514458614E+02  0.00000000000E+00 0.  1.
         12    1    6    6    0    0 -0.88707479165E+02  0.32148539973E+02  0.48505623342E+02  0.10609119180E+03  0.00000000000E+00 0. -1.
         -5    1    3    3    0  503  0.53899365021E+02 -0.43843800697E+02  0.11822589689E+03  0.13721105314E+03  0.47000000000E+01 0.  1.
         11    1    4    4    0    0  0.43741215942E+02  0.48504188829E+01  0.58406606604E+01  0.44395200781E+02  0.00000000000E+00 0. -1.
        -12    1    4    4    0    0 -0.35631274274E+02  0.11536002260E+02 -0.55943525800E+01  0.37867714947E+02  0.00000000000E+00 0.  1.
</event>
<event>
12    1  0.9873238E-001  0.2281911E+03  0.7818608E-02  0.1128000E+00
         21   -1    0    0  501  502  0.00000000000E+00  0.00000000000E+00  0.21755396392E+03  0.21755396392E+03  0.00000000000E+00 0. -1.
         21   -1    0    0  502  503 -0.00000000000E+00 -0.00000000000E+00 -0.43242471550E+03  0.43242471550E+03  0.00000000000E+00 0.  1.
         -6    2    1    2    0  503 -0.13718142536E+03 -0.62111239019E+02  0.11005067991E+03  0.25293322553E+03  0.17084353940E+03 0.  0.
        -24    2    3    3    0    0 -0.60635862693E+02  0.31683134345E+02  0.60186839105E+02  0.12191757663E+03  0.80999450876E+02 0.  0.
          6    2    1    2  501    0  0.13718142536E+03  0.62111239019E+02 -0.32492143148E+03  0.39704545389E+03  0.17144855306E+03 0.  0.
         24    2    5    5    0    0  0.85353406058E+02  0.94030273615E+02 -0.15474622947E+03  0.21625093591E+03  0.81799605532E+02 0.  0.
          5    1    5    5  501    0  0.51828019298E+02 -0.31919034596E+02 -0.17017520201E+03  0.18079451798E+03  0.47000000000E+01 0. -1.
        -13    1    6    6    0    0  0.50914116257E+02  0.70634084236E+02 -0.15118295524E+03  0.17446405660E+03  0.00000000000E+00 0.  1.
         14    1    6    6    0    0  0.34439289801E+02  0.23396189379E+02 -0.35632742326E+01  0.41786879313E+02  0.00000000000E+00 0. -1.
         -5    1    3    3    0  503 -0.76545562663E+02 -0.93794373365E+02  0.49863840801E+02  0.13101564890E+03  0.47000000000E+01 0.  1.
         11    1    4    4    0    0  0.16653392282E+02 -0.83437573520E+01  0.14576292036E+02  0.23652104574E+02  0.00000000000E+00 0. -1.
        -12    1    4    4    0    0 -0.77289254975E+02  0.40026891697E+02  0.45610547069E+02  0.98265472051E+02  0.00000000000E+00 0.  1.
</event>
<event>
12    1  0.9873238E-001  0.4348113E+03  0.7818608E-02  0.1032413E+00
         21   -1    0    0  501  502  0.00000000000E+00  0.00000000000E+00  0.28968560430E+03  0.28968560430E+03  0.00000000000E+00 0. -1.
         21   -1    0    0  502  503 -0.00000000000E+00 -0.00000000000E+00 -0.95281746378E+03  0.95281746378E+03  0.00000000000E+00 0.  1.
         -6    2    1    2    0  503 -0.32682798916E+03  0.22894346158E+03 -0.68116459517E+03  0.80811265384E+03  0.17271135602E+03 0.  0.
        -24    2    3    3    0    0 -0.12868398916E+03  0.12131935741E+03 -0.21276816296E+03  0.28824603611E+03  0.80854997459E+02 0.  0.
          6    2    1    2  501    0  0.32682798916E+03 -0.22894346158E+03  0.18032735687E+02  0.43439041424E+03  0.17069917789E+03 0.  0.
         24    2    5    5    0    0  0.26169405753E+03 -0.23982644918E+03  0.36255357471E+02  0.36572439344E+03  0.80245719732E+02 0.  0.
          5    1    5    5  501    0  0.65133931629E+02  0.10882987605E+02 -0.18222621784E+02  0.68666020806E+02  0.47000000000E+01 0. -1.
        -11    1    6    6    0    0  0.16848232841E+03 -0.12177536667E+03 -0.10678853596E+02  0.20815756731E+03  0.00000000000E+00 0.  1.
         12    1    6    6    0    0  0.93211729126E+02 -0.11805108251E+03  0.46934211066E+02  0.15756682613E+03  0.00000000000E+00 0. -1.
         -5    1    3    3    0  503 -0.19814400000E+03  0.10762410417E+03 -0.46839643220E+03  0.51986661773E+03  0.47000000000E+01 0.  1.
         11    1    4    4    0    0  0.70450820534E+01  0.94162293534E+01 -0.39960134580E+02  0.41654662549E+02  0.00000000000E+00 0. -1.
        -12    1    4    4    0    0 -0.13572907122E+03  0.11190312806E+03 -0.17280802838E+03  0.24659137356E+03  0.00000000000E+00 0.  1.
</event>
<event>
12    1  0.9873238E-001  0.1906840E+03  0.7818608E-02  0.1157994E+00
         21   -1    0    0  501  502  0.00000000000E+00  0.00000000000E+00  0.32442585574E+02  0.32442585574E+02  0.00000000000E+00 0.  1.
         21   -1    0    0  502  503 -0.00000000000E+00 -0.00000000000E+00 -0.24190657547E+04  0.24190657547E+04  0.00000000000E+00 0.  1.
         -6    2    1    2    0  503 -0.39580412269E+02 -0.69653877285E+02 -0.29494581196E+03  0.35121705419E+03  0.17303790194E+03 0.  0.
        -24    2    3    3    0    0 -0.11513848667E-01  0.24271393167E+02 -0.15977584452E+03  0.18186338801E+03  0.83407857831E+02 0.  0.
          6    2    1    2  501    0  0.39580412269E+02  0.69653877285E+02 -0.20916773572E+04  0.21002912861E+04  0.17231090578E+03 0.  0.
         24    2    5    5    0    0  0.25781754408E+01  0.48374607382E+02 -0.19510032433E+04  0.19532087610E+04  0.79145810040E+02 0.  0.
          5    1    5    5  501    0  0.37002236828E+02  0.21279269903E+02 -0.14067411390E+03  0.14708252506E+03  0.47000000000E+01 0. -1.
        -11    1    6    6    0    0  0.39007579922E+02  0.27796456434E+02 -0.12851525846E+04  0.12860448671E+04  0.00000000000E+00 0.  1.
         12    1    6    6    0    0 -0.36429404481E+02  0.20578150948E+02 -0.66585065864E+03  0.66716389397E+03  0.00000000000E+00 0. -1.
         -5    1    3    3    0  503 -0.39568898420E+02 -0.93925270452E+02 -0.13516996744E+03  0.16935366618E+03  0.47000000000E+01 0.  1.
         11    1    4    4    0    0 -0.31983908577E+02 -0.10782880052E+02 -0.10002690105E+03  0.10556809103E+03  0.00000000000E+00 0. -1.
        -12    1    4    4    0    0  0.31972394729E+02  0.35054273219E+02 -0.59748943468E+02  0.76295296979E+02  0.00000000000E+00 0.  1.
</event>
<event>
12    1  0.9873238E-001  0.1808517E+03  0.7818608E-02  0.1167813E+00
         21   -1    0    0  501  502  0.00000000000E+00  0.00000000000E+00  0.43192821178E+03  0.43192821178E+03  0.00000000000E+00 0. -1.
         21   -1    0    0  502  503 -0.00000000000E+00 -0.00000000000E+00 -0.75123362915E+02  0.75123362915E+02  0.00000000000E+00 0. -1.
         -6    2    1    2    0  503  0.49069530454E+02  0.15451307675E+02  0.20329787863E+03  0.26983497694E+03  0.16980673013E+03 0.  0.
        -24    2    3    3    0    0  0.89528618200E+02  0.32278461257E+02  0.18419534247E+03  0.22180282348E+03  0.78811774349E+02 0.  0.
          6    2    1    2  501    0 -0.49069530454E+02 -0.15451307675E+02  0.15350697024E+03  0.23721659775E+03  0.17338039858E+03 0.  0.
         24    2    5    5    0    0 -0.93418693629E+02 -0.73752883408E+01  0.14674189936E+03  0.19139164226E+03  0.79474074380E+02 0.  0.
          5    1    5    5  501    0  0.44349163176E+02 -0.80760193339E+01  0.67650708710E+01  0.45824955500E+02  0.47000000000E+01 0. -1.
        -11    1    6    6    0    0 -0.56788649590E+02 -0.37687150606E+02  0.53203891343E+02  0.86463437921E+02  0.00000000000E+00 0.  1.
         12    1    6    6    0    0 -0.36630044039E+02  0.30311862265E+02  0.93538008021E+02  0.10492820433E+03  0.00000000000E+00 0. -1.
         -5    1    3    3    0  503 -0.40459087746E+02 -0.16827153582E+02  0.19102536163E+02  0.48032153468E+02  0.47000000000E+01 0.  1.
         13    1    4    4    0    0  0.50270750365E+02  0.29375970403E+02  0.17042858271E+03  0.18009996609E+03  0.00000000000E+00 0. -1.
        -14    1    4    4    0    0  0.39257867835E+02  0.29024908545E+01  0.13766759758E+02  0.41702857388E+02  0.00000000000E+00 0.  1.
</event>
<event>
12    1  0.9873238E-001  0.1986670E+03  0.7818608E-02  0.1151509E+00
         21   -1    0    0  503  502  0.00000000000E+00  0.00000000000E+00  0.29404908625E+03  0.29404908625E+03  0.00000000000E+00 0.  1.
         21   -1    0    0  501  503 -0.00000000000E+00 -0.00000000000E+00 -0.28864451433E+03  0.28864451433E+03  0.00000000000E+00 0.  1.
          6    2    1    2  501    0  0.59918778302E+02  0.73512850669E+02  0.21717034475E+03  0.29232602200E+03  0.17116408879E+03 0.  0.
         24    2    3    3    0    0  0.46271748780E+02  0.11759210392E+03  0.16767827132E+03  0.22449699197E+03  0.79460172989E+02 0.  0.
         -6    2    1    2    0  502 -0.59918778302E+02 -0.73512850669E+02 -0.21176577282E+03  0.29036757858E+03  0.17456857949E+03 0.  0.
        -24    2    5    5    0    0  0.50077981922E+01 -0.79423523949E+02 -0.67058563087E+02  0.13158262040E+03  0.80523045828E+02 0.  0.
          5    1    3    3  501    0  0.13647029522E+02 -0.44079253253E+02  0.49492073425E+02  0.67829030024E+02  0.47000000000E+01 0. -1.
        -11    1    4    4    0    0 -0.11347576853E+01 -0.10009642308E+02  0.26650316202E+02  0.28490699672E+02  0.00000000000E+00 0.  1.
         12    1    4    4    0    0  0.47406506465E+02  0.12760174623E+03  0.14102795512E+03  0.19600629230E+03  0.00000000000E+00 0. -1.
         -5    1    5    5    0  502 -0.64926576494E+02  0.59106732808E+01 -0.14470720974E+03  0.15878495818E+03  0.47000000000E+01 0.  1.
         13    1    6    6    0    0 -0.20859058964E+01 -0.20856974770E+02  0.18297101181E+02  0.27823520834E+02  0.00000000000E+00 0. -1.
        -14    1    6    6    0    0  0.70937040885E+01 -0.58566549180E+02 -0.85355664269E+02  0.10375909957E+03  0.00000000000E+00 0.  1.
</event>
<event>
12    1  0.9873238E-001  0.2381862E+03  0.7818608E-02  0.1121810E+00
         21   -1    0    0  503  502  0.00000000000E+00  0.00000000000E+00  0.83887310354E+02  0.83887310354E+02  0.00000000000E+00 0.  1.
         21   -1    0    0  501  503 -0.00000000000E+00 -0.00000000000E+00 -0.67430964140E+03  0.67430964140E+03  0.00000000000E+00 0.  1.
          6    2    1    2  501    0 -0.34950872469E+01  0.16331774563E+03 -0.24893180220E+03  0.34452826125E+03  0.17334295192E+03 0.  0.
         24    2    3    3    0    0  0.48496295624E+02  0.97231287484E+02 -0.88724923272E+02  0.16353417875E+03  0.84056538440E+02 0.  0.
         -6    2    1    2    0  502  0.34950872469E+01 -0.16331774563E+03 -0.34149052884E+03  0.41366869050E+03  0.16679659032E+03 0.  0.
        -24    2    5    5    0    0  0.48688360171E+02 -0.41316157839E+02 -0.17136261081E+03  0.19944353364E+03  0.79592696969E+02 0.  0.
          5    1    3    3  501    0 -0.51991382871E+02  0.66086458146E+02 -0.16020687893E+03  0.18099408250E+03  0.47000000000E+01 0. -1.
        -11    1    4    4    0    0 -0.18847914912E+02  0.47712501827E+02 -0.49163235034E+02  0.71054559362E+02  0.00000000000E+00 0.  1.
         12    1    4    4    0    0  0.67344210536E+02  0.49518785657E+02 -0.39561688238E+02  0.92479619387E+02  0.00000000000E+00 0. -1.
         -5    1    5    5    0  502 -0.45193272925E+02 -0.12200158779E+03 -0.17012791803E+03  0.21422515686E+03  0.47000000000E+01 0.  1.
         11    1    6    6    0    0  0.54602839709E+02 -0.39531920860E+02 -0.67497057268E+02  0.95394421278E+02  0.00000000000E+00 0. -1.
        -12    1    6    6    0    0 -0.59144795373E+01 -0.17842369791E+01 -0.10386555355E+03  0.10404911236E+03  0.00000000000E+00 0.  1.
</event>
<event>
12    1  0.9873238E-001  0.1897907E+03  0.7818608E-02  0.1158897E+00
         21   -1    0    0  501  502  0.00000000000E+00  0.00000000000E+00  0.33732669498E+03  0.33732669498E+03  0.00000000000E+00 0. -1.
         21   -1    0    0  502  503 -0.00000000000E+00 -0.00000000000E+00 -0.12942393377E+03  0.12942393377E+03  0.00000000000E+00 0. -1.
         -6    2    1    2    0  503 -0.78664091793E+02 -0.34537212759E+02  0.52739737283E+01  0.18986392817E+03  0.16923249693E+03 0.  0.
        -24    2    3    3    0    0 -0.29944989734E+02  0.66039069046E+00  0.63495533215E+02  0.10605305666E+03  0.79488549886E+02 0.  0.
          6    2    1    2  501    0  0.78664091793E+02  0.34537212759E+02  0.20262878748E+03  0.27688670058E+03  0.16800881238E+03 0.  0.
         24    2    5    5    0    0  0.55319095324E+02  0.84499441011E+02  0.11856959439E+03  0.17624252014E+03  0.82476174464E+02 0.  0.
          5    1    5    5  501    0  0.23344996469E+02 -0.49962228252E+02  0.84059193094E+02  0.10064418044E+03  0.47000000000E+01 0. -1.
        -11    1    6    6    0    0  0.43844644416E+02  0.40467316767E+02  0.12690776521E+02  0.61000101467E+02  0.00000000000E+00 0.  1.
         12    1    6    6    0    0  0.11474450908E+02  0.44032124244E+02  0.10587881787E+03  0.11524241868E+03  0.00000000000E+00 0. -1.
         -5    1    3    3    0  503 -0.48719102059E+02 -0.35197603450E+02 -0.58221559487E+02  0.83810871509E+02  0.47000000000E+01 0.  1.
         13    1    4    4    0    0 -0.24685072696E+01 -0.25578037107E+02  0.63020131955E+02  0.68057817641E+02  0.00000000000E+00 0. -1.
        -14    1    4    4    0    0 -0.27476482464E+02  0.26238427797E+02  0.47540125934E+00  0.37995239021E+02  0.00000000000E+00 0.  1.
</event>
<event>
12    1  0.9873238E-001  0.2553489E+03  0.7818608E-02  0.1110356E+00
         21   -1    0    0  503  502  0.00000000000E+00  0.00000000000E+00  0.13808030378E+04  0.13808030378E+04  0.00000000000E+00 0.  1.
         21   -1    0    0  501  503 -0.00000000000E+00 -0.00000000000E+00 -0.47177294881E+02  0.47177294881E+02  0.00000000000E+00 0.  1.
          6    2    1    2  501    0  0.17869595266E+03 -0.50000179215E+02  0.73064660620E+03  0.77316210242E+03  0.17176411747E+03 0.  0.
         24    2    3    3    0    0  0.60455153418E+02  0.34261104015E+02  0.25503813430E+03  0.27586303848E+03  0.78913352654E+02 0.  0.
         -6    2    1    2    0  502 -0.17869595266E+03  0.50000179215E+02  0.60297913673E+03  0.65481823027E+03  0.17541611654E+03 0.  0.
        -24    2    5    5    0    0 -0.45254921037E+02  0.10841295288E+02  0.38780882166E+03  0.39857560774E+03  0.79380673773E+02 0.  0.
          5    1    3    3  501    0  0.11824079925E+03 -0.84261283230E+02  0.47560847190E+03  0.49729906395E+03  0.47000000000E+01 0. -1.
        -13    1    4    4    0    0  0.41400912095E+02  0.30202257225E+02  0.56138032839E+02  0.76011121520E+02  0.00000000000E+00 0.  1.
         14    1    4    4    0    0  0.19054241323E+02  0.40588467901E+01  0.19890010146E+03  0.19985191696E+03  0.00000000000E+00 0. -1.
         -5    1    5    5    0  502 -0.13344103163E+03  0.39158883927E+02  0.21517031507E+03  0.25624262253E+03  0.47000000000E+01 0.  1.
         13    1    6    6    0    0 -0.52652492160E+02 -0.11571074454E+02  0.14629877828E+03  0.15591506413E+03  0.00000000000E+00 0. -1.
        -14    1    6    6    0    0  0.73975711227E+01  0.22412369741E+02  0.24151004338E+03  0.24266054362E+03  0.00000000000E+00 0.  1.
</event>
<event>
12    1  0.9873238E-001  0.2127903E+03  0.7818608E-02  0.1140043E+00
         21   -1    0    0  501  502  0.00000000000E+00  0.00000000000E+00  0.17833682430E+03  0.17833682430E+03  0.00000000000E+00 0. -1.
         21   -1    0    0  502  503 -0.00000000000E+00 -0.00000000000E+00 -0.39144707725E+03  0.39144707725E+03  0.00000000000E+00 0. -1.
         -6    2    1    2    0  503 -0.29025961700E+02  0.12219603571E+03  0.65328825449E+02  0.21934410260E+03  0.16753985292E+03 0.  0.
        -24    2    3    3    0    0  0.44928063794E+02  0.74475773828E+02  0.17653239605E+02  0.11913695333E+03  0.79478330226E+02 0.  0.
          6    2    1    2  501    0  0.29025961700E+02 -0.12219603571E+03 -0.27843907841E+03  0.35043979895E+03  0.17177122782E+03 0.  0.
         24    2    5    5    0    0  0.46159542145E+02 -0.77329440164E+01 -0.83832803968E+02  0.12396893771E+03  0.78421022318E+02 0.  0.
          5    1    5    5  501    0 -0.17133580445E+02 -0.11446309169E+03 -0.19460627444E+03  0.22647086124E+03  0.47000000000E+01 0. -1.
        -13    1    6    6    0    0  0.32942542306E+02 -0.42617203924E+02 -0.53070469594E+02  0.75616875807E+02  0.00000000000E+00 0.  1.
         14    1    6    6    0    0  0.13216999839E+02  0.34884259907E+02 -0.30762334374E+02  0.48352061902E+02  0.00000000000E+00 0. -1.
         -5    1    3    3    0  503 -0.73954025494E+02  0.47720261882E+02  0.47675585844E+02  0.10020714928E+03  0.47000000000E+01 0.  1.
         13    1    4    4    0    0  0.12754156043E+02  0.67938923580E+02  0.39581679615E+02  0.79655980282E+02  0.00000000000E+00 0. -1.
        -14    1    4    4    0    0  0.32173907751E+02  0.65368502486E+01 -0.21928440011E+02  0.39480973043E+02  0.00000000000E+00 0.  1.
</event>
<event>
12    1  0.9873238E-001  0.1913234E+03  0.7818608E-02  0.1157318E+00
         21   -1    0    0  503  502  0.00000000000E+00  0.00000000000E+00  0.53016653519E+02  0.53016653519E+02  0.00000000000E+00 0.  1.
         21   -1    0    0  501  503 -0.00000000000E+00 -0.00000000000E+00 -0.72322747398E+03  0.72322747398E+03  0.00000000000E+00 0.  1.
          6    2    1    2  501    0  0.47576700987E+02 -0.68541559681E+02 -0.41849214943E+03  0.46006862505E+03  0.17194758721E+03 0.  0.
         24    2    3    3    0    0  0.86518034971E+02 -0.10149783921E+02 -0.19809902022E+03  0.22872202713E+03  0.74041578824E+02 0.  0.
         -6    2    1    2    0  502 -0.47576700987E+02  0.68541559681E+02 -0.25171867103E+03  0.31617550244E+03  0.17217192314E+03 0.  0.
        -24    2    5    5    0    0 -0.26937776273E+02  0.79572217012E+01 -0.32028240699E+02  0.87303480556E+02  0.76204516580E+02 0.  0.
          5    1    3    3  501    0 -0.38941333984E+02 -0.58391775760E+02 -0.22039312921E+03  0.23134659792E+03  0.47000000000E+01 0. -1.
        -13    1    4    4    0    0 -0.41659396128E+01 -0.18746495775E+02 -0.62373472593E+02  0.65262824334E+02  0.00000000000E+00 0.  1.
         14    1    4    4    0    0  0.90683974584E+02  0.85967118540E+01 -0.13572554762E+03  0.16345920280E+03  0.00000000000E+00 0. -1.
         -5    1    5    5    0  502 -0.20638924713E+02  0.60584337980E+02 -0.21969043033E+03  0.22887202189E+03  0.47000000000E+01 0.  1.
         11    1    6    6    0    0 -0.53259387958E+02  0.34085923251E+01 -0.28069764453E+02  0.60300021424E+02  0.00000000000E+00 0. -1.
        -12    1    6    6    0    0  0.26321611685E+02  0.45486293761E+01 -0.39584762457E+01  0.27003459132E+02  0.00000000000E+00 0.  1.
</event>
<event>
12    1  0.9873238E-001  0.2255060E+03  0.7818608E-02  0.1129892E+00
         21   -1    0    0  503  502  0.00000000000E+00  0.00000000000E+00  0.40731312595E+03  0.40731312595E+03  0.00000000000E+00 0.  1.
         21   -1    0    0  501  503 -0.00000000000E+00 -0.00000000000E+00 -0.12515069440E+03  0.12515069440E+03  0.00000000000E+00 0.  1.
          6    2    1    2  501    0 -0.27597703769E+02 -0.14250771852E+03  0.15693400732E+03  0.27451977850E+03  0.17222875208E+03 0.  0.
         24    2    3    3    0    0  0.25884625138E+02 -0.14686864207E+03  0.13225639356E+03  0.21527071285E+03  0.81297689593E+02 0.  0.
         -6    2    1    2    0  502  0.27597703769E+02  0.14250771852E+03  0.12522842423E+03  0.25794404185E+03  0.17257719259E+03 0.  0.
        -24    2    5    5    0    0 -0.24963132199E+01  0.15998897208E+03  0.13141465546E+03  0.22228449136E+03  0.80857162085E+02 0.  0.
          5    1    3    3  501    0 -0.53482328908E+02  0.43609235431E+01  0.24677613767E+02  0.59249065653E+02  0.47000000000E+01 0. -1.
        -11    1    4    4    0    0 -0.74461403879E+01  0.82938854523E+01  0.83167608249E+01  0.13906906672E+02  0.00000000000E+00 0.  1.
         12    1    4    4    0    0  0.33330765526E+02 -0.15516252752E+03  0.12393963273E+03  0.20136380618E+03  0.00000000000E+00 0. -1.
         -5    1    5    5    0  502  0.30094016989E+02 -0.17481253561E+02 -0.61862312339E+01  0.35659550495E+02  0.47000000000E+01 0.  1.
         11    1    6    6    0    0 -0.30370839941E+02  0.10349571353E+03  0.11397215285E+03  0.15691845737E+03  0.00000000000E+00 0. -1.
        -12    1    6    6    0    0  0.27874526721E+02  0.56493258558E+02  0.17442502609E+02  0.65366033991E+02  0.00000000000E+00 0.  1.
</event>
<event>
12    1  0.9873238E-001  0.1775380E+03  0.7818608E-02  0.1170476E+00
         21   -1    0    0  503  502  0.00000000000E+00  0.00000000000E+00  0.17532468832E+03  0.17532468832E+03  0.00000000000E+00 0. -1.
         21   -1    0    0  501  503 -0.00000000000E+00 -0.00000000000E+00 -0.18397780511E+03  0.18397780511E+03  0.00000000000E+00 0.  1.
          6    2    1    2  501    0  0.21594320855E+01  0.44192726495E+02  0.26170535218E+02  0.17838142491E+03  0.17081386249E+03 0.  0.
         24    2    3    3    0    0  0.14901235679E+02  0.92814851868E+02  0.45364268153E+01  0.12345793921E+03  0.79903942547E+02 0.  0.
         -6    2    1    2    0  502 -0.21594320855E+01 -0.44192726495E+02 -0.34823652012E+02  0.18092106852E+03  0.17193628492E+03 0.  0.
        -24    2    5    5    0    0 -0.27286084059E+02 -0.89195749469E+02 -0.97497681946E+01  0.12341097927E+03  0.80217203375E+02 0.  0.
          5    1    3    3  501    0 -0.12741803593E+02 -0.48622125373E+02  0.21634108403E+02  0.54923485696E+02  0.47000000000E+01 0. -1.
        -11    1    4    4    0    0 -0.37302755563E+01  0.81157336310E+02  0.32834828688E+02  0.87627359698E+02  0.00000000000E+00 0.  1.
         12    1    4    4    0    0  0.18631511235E+02  0.11657515558E+02 -0.28298401872E+02  0.35830579516E+02  0.00000000000E+00 0. -1.
         -5    1    5    5    0  502  0.25126651974E+02  0.45003022974E+02 -0.25073883817E+02  0.57510089253E+02  0.47000000000E+01 0.  1.
         11    1    6    6    0    0 -0.24557633061E+02 -0.46149661615E+02  0.33691962152E+02  0.62193383269E+02  0.00000000000E+00 0. -1.
        -12    1    6    6    0    0 -0.27284509989E+01 -0.43046087854E+02 -0.43441730347E+02  0.61217595999E+02  0.00000000000E+00 0.  1.
</event>
<event>
12    1  0.9873238E-001  0.1816044E+03  0.7818608E-02  0.1166513E+00
         21   -1    0    0  501  502  0.00000000000E+00  0.00000000000E+00  0.21545998079E+03  0.21545998079E+03  0.00000000000E+00 0.  1.
         21   -1    0    0  502  503 -0.00000000000E+00 -0.00000000000E+00 -0.20597985864E+03  0.20597985864E+03  0.00000000000E+00 0.  1.
         -6    2    1    2    0  503 -0.46168513468E+01  0.57094105434E+02  0.11242309270E+03  0.21268782830E+03  0.17121947419E+03 0.  0.
        -24    2    3    3    0    0 -0.45342572221E+02  0.38729680344E+02  0.82135475617E+01  0.99208509707E+02  0.78860186657E+02 0.  0.
          6    2    1    2  501    0  0.46168513468E+01 -0.57094105434E+02 -0.10294297055E+03  0.20875201113E+03  0.17233425305E+03 0.  0.
         24    2    5    5    0    0  0.20488545721E+02  0.17170309514E+02 -0.10284258754E+03  0.13266512602E+03  0.79428192817E+02 0.  0.
          5    1    5    5  501    0 -0.15871694374E+02 -0.74264414948E+02 -0.10038300920E+00  0.76086885116E+02  0.47000000000E+01 0. -1.
        -11    1    6    6    0    0 -0.79033740240E+01  0.36355298535E+02 -0.18339828762E+02  0.41479155868E+02  0.00000000000E+00 0.  1.
         12    1    6    6    0    0  0.28391919745E+02 -0.19184989021E+02 -0.84502758778E+02  0.91185970147E+02  0.00000000000E+00 0. -1.
         -5    1    3    3    0  503  0.40725720874E+02  0.18364425090E+02  0.10420954514E+03  0.11347931859E+03  0.47000000000E+01 0.  1.
         13    1    4    4    0    0 -0.58542701399E+02  0.11407065421E+01  0.96479411495E+01  0.59343338859E+02  0.00000000000E+00 0. -1.
        -14    1    4    4    0    0  0.13200129178E+02  0.37588973802E+02 -0.14343935878E+01  0.39865170848E+02  0.00000000000E+00 0.  1.
</event>
<event>
12    1  0.9873238E-001  0.2099374E+03  0.7818608E-02  0.1141964E+00
         21   -1    0    0  501  502  0.00000000000E+00  0.00000000000E+00  0.55990854228E+03  0.55990854228E+03  0.00000000000E+00 0. -1.
         21   -1    0    0  502  503 -0.00000000000E+00 -0.00000000000E+00 -0.82691096471E+02  0.82691096471E+02  0.00000000000E+00 0. -1.
         -6    2    1    2    0  503  0.20364258083E+02  0.11773910459E+03  0.16163428375E+03  0.26356609555E+03  0.17048238996E+03 0.  0.
        -24    2    3    3    0    0 -0.11176354273E+02  0.60742196178E+02  0.16956155645E+03  0.19777559891E+03  0.80929233326E+02 0.  0.
          6    2    1    2  501    0 -0.20364258083E+02 -0.11773910459E+03  0.31558316206E+03  0.37903354320E+03  0.17261661257E+03 0.  0.
         24    2    5    5    0    0 -0.71506199406E+02 -0.81145681478E+02  0.26988472272E+03  0.30115534255E+03  0.78479415233E+02 0.  0.
          5    1    5    5  501    0  0.51141941323E+02 -0.36593423114E+02  0.45698439345E+02  0.77878200647E+02  0.47000000000E+01 0. -1.
        -13    1    6    6    0    0 -0.16008752012E+02 -0.67106981341E+01  0.18043166323E+01  0.17451910180E+02  0.00000000000E+00 0.  1.
         14    1    6    6    0    0 -0.55497447394E+02 -0.74434983344E+02  0.26808040609E+03  0.28370343237E+03  0.00000000000E+00 0. -1.
         -5    1    3    3    0  503  0.31540612356E+02  0.56996908414E+02 -0.79272727004E+01  0.65790496646E+02  0.47000000000E+01 0.  1.
         13    1    4    4    0    0  0.20891350696E+02 -0.59270395465E+01  0.14915687290E+02  0.26344943709E+02  0.00000000000E+00 0. -1.
        -14    1    4    4    0    0 -0.32067704969E+02  0.66669235725E+02  0.15464586916E+03  0.17143065520E+03  0.00000000000E+00 0.  1.
</event>
<event>
12    1  0.9873238E-001  0.2037470E+03  0.7818608E-02  0.1146923E+00
         21   -1    0    0  503  502  0.00000000000E+00  0.00000000000E+00  0.31137631416E+03  0.31137631416E+03  0.00000000000E+00 0. -1.
         21   -1    0    0  501  503 -0.00000000000E+00 -0.00000000000E+00 -0.14124689470E+03  0.14124689470E+03  0.00000000000E+00 0. -1.
          6    2    1    2  501    0  0.79484108965E+02  0.76051930104E+02  0.28555133913E+02  0.20573829007E+03  0.17149702236E+03 0.  0.
         24    2    3    3    0    0  0.66824835269E+02  0.88901142123E+02  0.74905658789E+02  0.15578010139E+03  0.79294454981E+02 0.  0.
         -6    2    1    2    0  502 -0.79484108965E+02 -0.76051930104E+02  0.14157428555E+03  0.24688491880E+03  0.16972703129E+03 0.  0.
        -24    2    5    5    0    0 -0.11563049715E+03 -0.66738184773E+02  0.77601256071E+02  0.17266938315E+03  0.77255185946E+02 0.  0.
          5    1    3    3  501    0  0.12659273695E+02 -0.12849212019E+02 -0.46350524875E+02  0.49958188680E+02  0.47000000000E+01 0. -1.
        -13    1    4    4    0    0  0.84576397864E+02  0.72884533815E+02  0.68652420877E+02  0.13106669004E+03  0.00000000000E+00 0.  1.
         14    1    4    4    0    0 -0.17751562595E+02  0.16016608307E+02  0.62532379114E+01  0.24713411351E+02  0.00000000000E+00 0. -1.
         -5    1    5    5    0  502  0.36146388183E+02 -0.93137453307E+01  0.63973029480E+02  0.74215535648E+02  0.47000000000E+01 0.  1.
         11    1    6    6    0    0 -0.44226930757E+02 -0.18619382393E+02 -0.10883326575E+02  0.49205178611E+02  0.00000000000E+00 0. -1.
        -12    1    6    6    0    0 -0.71403566391E+02 -0.48118802380E+02  0.88484582646E+02  0.12346420454E+03  0.00000000000E+00 0.  1.
</event>
<event>
12    1  0.9873238E-001  0.5356378E+03  0.7818608E-02  0.1005106E+00
         21   -1    0    0  501  502  0.00000000000E+00  0.00000000000E+00  0.28730976138E+03  0.28730976138E+03  0.00000000000E+00 0.  1.
         21   -1    0    0  502  503 -0.00000000000E+00 -0.00000000000E+00 -0.10088077180E+04  0.10088077180E+04  0.00000000000E+00 0.  1.
         -6    2    1    2    0  503  0.14866356479E+03  0.48248298971E+03 -0.27435034532E+03  0.59837196557E+03  0.16700361181E+03 0.  0.
        -24    2    3    3    0    0  0.14802862250E+03  0.46062665363E+03 -0.21654309117E+03  0.53638913561E+03  0.82054904495E+02 0.  0.
          6    2    1    2  501    0 -0.14866356479E+03 -0.48248298971E+03 -0.44714761128E+03  0.69774551379E+03  0.17893329732E+03 0.  0.
         24    2    5    5    0    0 -0.49947261856E+02 -0.30147222855E+03 -0.34495462242E+03  0.46758187398E+03  0.79113107586E+02 0.  0.
          5    1    5    5  501    0 -0.98716302929E+02 -0.18101076116E+03 -0.10219298886E+03  0.23016363981E+03  0.47000000000E+01 0. -1.
        -11    1    6    6    0    0 -0.21054534922E+02 -0.54702498310E+02 -0.28298351850E+02  0.65088044060E+02  0.00000000000E+00 0.  1.
         12    1    6    6    0    0 -0.28892726934E+02 -0.24676973024E+03 -0.31665627057E+03  0.40249382992E+03  0.00000000000E+00 0. -1.
         -5    1    3    3    0  503  0.63494228559E+00  0.21856336078E+02 -0.57807254146E+02  0.61982829964E+02  0.47000000000E+01 0.  1.
         13    1    4    4    0    0  0.70280907183E+02  0.11649009685E+03 -0.81659709843E+02  0.15867468856E+03  0.00000000000E+00 0. -1.
        -14    1    4    4    0    0  0.77747715317E+02  0.34413655678E+03 -0.13488338133E+03  0.37771444705E+03  0.00000000000E+00 0.  1.
</event>
<event>
12    1  0.9873238E-001  0.1755942E+03  0.7818608E-02  0.1172674E+00
         21   -1    0    0  501  502  0.00000000000E+00  0.00000000000E+00  0.39098827124E+03  0.39098827124E+03  0.00000000000E+00 0. -1.
         21   -1    0    0  502  503 -0.00000000000E+00 -0.00000000000E+00 -0.15845929905E+03  0.15845929905E+03  0.00000000000E+00 0. -1.
         -6    2    1    2    0  503  0.71367637553E+01 -0.68266798013E+01  0.31179104783E+03  0.35679298982E+03  0.17317633536E+03 0.  0.
        -24    2    3    3    0    0  0.12495188427E+02 -0.63106520289E+02  0.13224107090E+03  0.16849424481E+03  0.82243826905E+02 0.  0.
          6    2    1    2  501    0 -0.71367637553E+01  0.68266798013E+01 -0.79262075638E+02  0.19265458047E+03  0.17531621085E+03 0.  0.
         24    2    5    5    0    0 -0.19193060128E+02  0.82074839102E+01 -0.12476409384E+03  0.14532821823E+03  0.71543522085E+02 0.  0.
          5    1    5    5  501    0  0.12056296373E+02 -0.13808041089E+01  0.45502018205E+02  0.47326362241E+02  0.47000000000E+01 0. -1.
        -11    1    6    6    0    0 -0.44403010194E+02  0.67521854620E+00 -0.54514284080E+02  0.70312803978E+02  0.00000000000E+00 0.  1.
         12    1    6    6    0    0  0.25209950066E+02  0.75322653640E+01 -0.70249809763E+02  0.75015414253E+02  0.00000000000E+00 0. -1.
         -5    1    3    3    0  503 -0.53584246719E+01  0.56279840488E+02  0.17954997693E+03  0.18829874502E+03  0.47000000000E+01 0.  1.
         11    1    4    4    0    0  0.18100927055E+02 -0.55782536655E+01  0.10105947743E+03  0.10281915411E+03  0.00000000000E+00 0. -1.
        -12    1    4    4    0    0 -0.56057386274E+01 -0.57528266623E+02  0.31181593466E+02  0.65675090691E+02  0.00000000000E+00 0.  1.
</event>
<event>
12    1  0.9873238E-001  0.2397023E+03  0.7818608E-02  0.1120643E+00
         21   -1    0    0  501  502  0.00000000000E+00  0.00000000000E+00  0.43087098574E+03  0.43087098574E+03  0.00000000000E+00 0. -1.
         21   -1    0    0  502  503 -0.00000000000E+00 -0.00000000000E+00 -0.13560446675E+03  0.13560446675E+03  0.00000000000E+00 0. -1.
         -6    2    1    2    0  503 -0.56986128556E+02 -0.15564774475E+03  0.95453428451E+02  0.25441378592E+03  0.16775392147E+03 0.  0.
        -24    2    3    3    0    0 -0.45972036658E+02 -0.12095751997E+03 -0.27932453959E+00  0.15188782867E+03  0.79534173043E+02 0.  0.
          6    2    1    2  501    0  0.56986128556E+02  0.15564774475E+03  0.19981309054E+03  0.31206166657E+03  0.17315765446E+03 0.  0.
         24    2    5    5    0    0  0.60718668271E+01  0.15821077832E+03  0.14425102792E+03  0.23650993601E+03  0.10030489934E+03 0.  0.
          5    1    5    5  501    0  0.50914261729E+02 -0.25630335677E+01  0.55562062619E+02  0.75551730562E+02  0.47000000000E+01 0. -1.
        -11    1    6    6    0    0 -0.41454386938E+02  0.94293874610E+02  0.54574614901E+02  0.11656839013E+03  0.00000000000E+00 0.  1.
         12    1    6    6    0    0  0.47526253765E+02  0.63916903708E+02  0.89676413017E+02  0.11994154588E+03  0.00000000000E+00 0. -1.
         -5    1    3    3    0  503 -0.11014091899E+02 -0.34690224776E+02  0.95732752990E+02  0.10252595725E+03  0.47000000000E+01 0.  1.
         11    1    4    4    0    0 -0.28788885491E+02 -0.10765300570E+03  0.29262246091E+02  0.11521392542E+03  0.00000000000E+00 0. -1.
        -12    1    4    4    0    0 -0.17183151166E+02 -0.13304514276E+02 -0.29541570631E+02  0.36673903248E+02  0.00000000000E+00 0.  1.
</event>
<event>
12    1  0.9873238E-001  0.4823545E+03  0.7818608E-02  0.1018514E+00
         21   -1    0    0  501  502  0.00000000000E+00  0.00000000000E+00  0.26910430292E+03  0.26910430292E+03  0.00000000000E+00 0.  1.
         21   -1    0    0  502  503 -0.00000000000E+00 -0.00000000000E+00 -0.87579639849E+03  0.87579639849E+03  0.00000000000E+00 0.  1.
         -6    2    1    2    0  503 -0.36268293355E+03  0.26723717967E+03 -0.36976129767E+03  0.60749764570E+03  0.17139239128E+03 0.  0.
        -24    2    3    3    0    0 -0.33130535455E+03  0.27785805060E+03 -0.30699218657E+03  0.53636813937E+03  0.80487539877E+02 0.  0.
          6    2    1    2  501    0  0.36268293355E+03 -0.26723717967E+03 -0.23693079790E+03  0.53740305572E+03  0.17236943121E+03 0.  0.
         24    2    5    5    0    0  0.12052403523E+03 -0.15215140713E+03 -0.68228802520E+02  0.22059377504E+03  0.79563498760E+02 0.  0.
          5    1    5    5  501    0  0.24215889832E+03 -0.11508577254E+03 -0.16870199538E+03  0.31680928068E+03  0.47000000000E+01 0. -1.
        -11    1    6    6    0    0  0.30034383694E+01  0.66902185548E+01 -0.13827306939E+02  0.15651647949E+02  0.00000000000E+00 0.  1.
         12    1    6    6    0    0  0.11752059686E+03 -0.15884162568E+03 -0.54401495581E+02  0.20494212709E+03  0.00000000000E+00 0. -1.
         -5    1    3    3    0  503 -0.31377579000E+02 -0.10620870928E+02 -0.62769111096E+02  0.71129506331E+02  0.47000000000E+01 0.  1.
         13    1    4    4    0    0 -0.16828482000E+03  0.90137456453E+02 -0.14310832304E+03  0.23858862886E+03  0.00000000000E+00 0. -1.
        -14    1    4    4    0    0 -0.16302053455E+03  0.18772059415E+03 -0.16388386354E+03  0.29777951051E+03  0.00000000000E+00 0.  1.
</event>
<event>
12    1  0.9873238E-001  0.2252054E+03  0.7818608E-02  0.1131880E+00
         21   -1    0    0  501  502  0.00000000000E+00  0.00000000000E+00  0.24453200392E+03  0.24453200392E+03  0.00000000000E+00 0. -1.
         21   -1    0    0  502  503 -0.00000000000E+00 -0.00000000000E+00 -0.25478721333E+03  0.25478721333E+03  0.00000000000E+00 0.  1.
         -6    2    1    2    0  503  0.33467178554E+01 -0.13163048032E+03  0.11215107987E+03  0.25158567816E+03  0.18270113537E+03 0.  0.
        -24    2    3    3    0    0 -0.25378511753E+02 -0.14309301023E+03  0.36095979760E+02  0.16934823741E+03  0.79096316744E+02 0.  0.
          6    2    1    2  501    0 -0.33467178554E+01  0.13163048032E+03 -0.12240628928E+03  0.24773353910E+03  0.17044301942E+03 0.  0.
         24    2    5    5    0    0  0.52339521639E+02  0.53104038589E+02 -0.26385248063E+02  0.11168395374E+03  0.78852138636E+02 0.  0.
          5    1    5    5  501    0 -0.55686239494E+02  0.78526441732E+02 -0.96021041220E+02  0.13604958536E+03  0.47000000000E+01 0. -1.
        -11    1    6    6    0    0  0.93131068660E+01 -0.15551166990E+01 -0.39744428135E+02  0.40850604833E+02  0.00000000000E+00 0.  1.
         12    1    6    6    0    0  0.43026414773E+02  0.54659155288E+02  0.13359180072E+02  0.70833348906E+02  0.00000000000E+00 0. -1.
         -5    1    3    3    0  503  0.28725229608E+02  0.11462529909E+02  0.76055100111E+02  0.82237440749E+02  0.47000000000E+01 0.  1.
         11    1    4    4    0    0  0.93125232410E+01  0.50655888612E+01  0.10728191573E+02  0.15082353067E+02  0.00000000000E+00 0. -1.
        -12    1    4    4    0    0 -0.34691034994E+02 -0.14815859909E+03  0.25367788188E+02  0.15426588434E+03  0.00000000000E+00 0.  1.
</event>
<event>
12    1  0.9873238E-001  0.2189121E+03  0.7818608E-02  0.1135342E+00
         21   -1    0    0  501  502  0.00000000000E+00  0.00000000000E+00  0.12825389394E+03  0.12825389394E+03  0.00000000000E+00 0.  1.
         21   -1    0    0  502  503 -0.00000000000E+00 -0.00000000000E+00 -0.37037522294E+03  0.37037522294E+03  0.00000000000E+00 0.  1.
         -6    2    1    2    0  503 -0.11105367120E+03  0.68682136921E+02 -0.14069450572E+03  0.25736184927E+03  0.17143518805E+03 0.  0.
        -24    2    3    3    0    0 -0.71746893537E+02  0.10090667438E+03 -0.52213033071E+02  0.15521242643E+03  0.77684765741E+02 0.  0.
          6    2    1    2  501    0  0.11105367120E+03 -0.68682136921E+02 -0.10142682329E+03  0.24126726761E+03  0.17570526491E+03 0.  0.
         24    2    5    5    0    0  0.18217249540E+02 -0.15644406300E+01 -0.89568742701E+02  0.12600196312E+03  0.86715738981E+02 0.  0.
          5    1    5    5  501    0  0.92836421662E+02 -0.67117696291E+02 -0.11858080588E+02  0.11526530448E+03  0.47000000000E+01 0. -1.
        -13    1    6    6    0    0  0.43501944188E+02 -0.28157535472E+01 -0.90730501025E+02  0.10065968127E+03  0.00000000000E+00 0.  1.
         14    1    6    6    0    0 -0.25284694648E+02  0.12513129172E+01  0.11617583241E+01  0.25342281860E+02  0.00000000000E+00 0. -1.
         -5    1    3    3    0  503 -0.39306777665E+02 -0.32224537461E+02 -0.88481472647E+02  0.10214942284E+03  0.47000000000E+01 0.  1.
         11    1    4    4    0    0 -0.38467577502E+02  0.14579153672E+01 -0.27952907736E+02  0.47573575512E+02  0.00000000000E+00 0. -1.
        -12    1    4    4    0    0 -0.33279316035E+02  0.99448759015E+02 -0.24260125335E+02  0.10763885092E+03  0.00000000000E+00 0.  1.
</event>
<event>
12    1  0.9873238E-001  0.2120076E+03  0.7818608E-02  0.1140052E+00
         21   -1    0    0  501  502  0.00000000000E+00  0.00000000000E+00  0.11638618642E+04  0.11638618642E+04  0.00000000000E+00 0.  1.
         21   -1    0    0  502  503 -0.00000000000E+00 -0.00000000000E+00 -0.62234506909E+02  0.62234506909E+02  0.00000000000E+00 0.  1.
         -6    2    1    2    0  503 -0.91448335870E+02  0.82503642408E+02  0.17295397826E+03  0.27360613914E+03  0.17256184872E+03 0.  0.
        -24    2    3    3    0    0 -0.12068670416E+02  0.29491372798E+02  0.16119266216E+02  0.89947082953E+02  0.82554546292E+02 0.  0.
          6    2    1    2  501    0  0.91448335870E+02 -0.82503642408E+02  0.92867337907E+03  0.95249023201E+03  0.17214455534E+03 0.  0.
         24    2    5    5    0    0  0.20340700248E+02 -0.55311919532E+02  0.25620352715E+03  0.27570852616E+03  0.83077021743E+02 0.  0.
          5    1    5    5  501    0  0.71107635622E+02 -0.27191722876E+02  0.67246985192E+03  0.67678170586E+03  0.47000000000E+01 0. -1.
        -13    1    6    6    0    0  0.32882545119E+01 -0.53597188112E+02  0.25253618732E+03  0.25818210065E+03  0.00000000000E+00 0.  1.
         14    1    6    6    0    0  0.17052445736E+02 -0.17147314202E+01  0.36673398284E+01  0.17526425501E+02  0.00000000000E+00 0. -1.
         -5    1    3    3    0  503 -0.79379665454E+02  0.53012269611E+02  0.15683471205E+03  0.18365905619E+03  0.47000000000E+01 0.  1.
         13    1    4    4    0    0 -0.31582706573E+02  0.41275353119E+02  0.33015298556E+02  0.61572169593E+02  0.00000000000E+00 0. -1.
        -14    1    4    4    0    0  0.19514036157E+02 -0.11783980321E+02 -0.16896032341E+02  0.28374913361E+02  0.00000000000E+00 0.  1.
</event>
<event>
12    1  0.9873238E-001  0.3004258E+03  0.7818608E-02  0.1085152E+00
         21   -1    0    0  503  502  0.00000000000E+00  0.00000000000E+00  0.93451088680E+03  0.93451088680E+03  0.00000000000E+00 0. -1.
         21   -1    0    0  501  503 -0.00000000000E+00 -0.00000000000E+00 -0.14157327534E+03  0.14157327534E+03  0.00000000000E+00 0. -1.
          6    2    1    2  501    0 -0.42743269687E+02 -0.24237444794E+03  0.91635052233E+02  0.31314186602E+03  0.17055346768E+03 0.  0.
         24    2    3    3    0    0 -0.81717893835E+02 -0.23128951638E+03  0.84914761991E+02  0.27180000665E+03  0.80573396665E+02 0.  0.
         -6    2    1    2    0  502  0.42743269687E+02  0.24237444794E+03  0.70130255922E+03  0.76294229612E+03  0.17228844283E+03 0.  0.
        -24    2    5    5    0    0  0.50199200717E+01  0.35020476000E+02  0.23630981895E+03  0.25239449299E+03  0.81295856118E+02 0.  0.
          5    1    3    3  501    0  0.38974624148E+02 -0.11084931557E+02  0.67202902419E+01  0.41341859368E+02  0.47000000000E+01 0. -1.
        -13    1    4    4    0    0 -0.59695074720E+02 -0.13214133241E+03  0.89032886947E+02  0.17015195748E+03  0.00000000000E+00 0.  1.
         14    1    4    4    0    0 -0.22022819115E+02 -0.99148183967E+02 -0.41181249561E+01  0.10164804916E+03  0.00000000000E+00 0. -1.
         -5    1    5    5    0  502  0.37723349615E+02  0.20735397194E+03  0.46499274027E+03  0.51054780313E+03  0.47000000000E+01 0.  1.
         13    1    6    6    0    0 -0.17148228361E+02  0.13439514972E+02  0.99874376035E+01  0.23967294559E+02  0.00000000000E+00 0. -1.
        -14    1    6    6    0    0  0.22168148433E+02  0.21580961028E+02  0.22632238135E+03  0.22842719843E+03  0.00000000000E+00 0.  1.
</event>
<event>
12    1  0.9873238E-001  0.4646639E+03  0.7818608E-02  0.1023448E+00
         21   -1    0    0  501  502  0.00000000000E+00  0.00000000000E+00  0.51286376848E+03  0.51286376848E+03  0.00000000000E+00 0.  1.
         21   -1    0    0  502  503 -0.00000000000E+00 -0.00000000000E+00 -0.59406280970E+03  0.59406280970E+03  0.00000000000E+00 0.  1.
         -6    2    1    2    0  503  0.10081125948E+03 -0.41950178349E+03 -0.33945640345E+03  0.57545046378E+03  0.17253385187E+03 0.  0.
        -24    2    3    3    0    0  0.69784775681E+02 -0.33064435769E+03 -0.18204693508E+03  0.39198898131E+03  0.79490054177E+02 0.  0.
          6    2    1    2  501    0 -0.10081125948E+03  0.41950178349E+03  0.25825736222E+03  0.53147611440E+03  0.17212012854E+03 0.  0.
         24    2    5    5    0    0 -0.12709633403E+03  0.27273949308E+03  0.20580550023E+03  0.37335159747E+03  0.80592817253E+02 0.  0.
          5    1    5    5  501    0  0.26285074551E+02  0.14676229040E+03  0.52451861986E+02  0.15812451693E+03  0.47000000000E+01 0. -1.
        -11    1    6    6    0    0 -0.42706376210E+01  0.65022993751E+01 -0.74695752465E+01  0.10784841084E+02  0.00000000000E+00 0.  1.
         12    1    6    6    0    0 -0.12282569641E+03  0.26623719371E+03  0.21327507548E+03  0.36256675638E+03  0.00000000000E+00 0. -1.
         -5    1    3    3    0  503  0.31026483799E+02 -0.88857425797E+02 -0.15740946837E+03  0.18346148247E+03  0.47000000000E+01 0.  1.
         11    1    4    4    0    0  0.48493586262E+02 -0.67376851291E+02 -0.44865267663E+02  0.94361857978E+02  0.00000000000E+00 0. -1.
        -12    1    4    4    0    0  0.21291189419E+02 -0.26326750640E+03 -0.13718166741E+03  0.29762712334E+03  0.00000000000E+00 0.  1.
</event>
<event>
12    1  0.9873238E-001  0.1980559E+03  0.7818608E-02  0.1151416E+00
         21   -1    0    0  501  502  0.00000000000E+00  0.00000000000E+00  0.18180560633E+03  0.18180560633E+03  0.00000000000E+00 0.  1.
         21   -1    0    0  502  503 -0.00000000000E+00 -0.00000000000E+00 -0.21793109555E+03  0.21793109555E+03  0.00000000000E+00 0.  1.
         -6    2    1    2    0  503 -0.78049774622E+02 -0.59799088482E+02  0.25008941795E+01  0.19807173254E+03  0.17192573530E+03 0.  0.
        -24    2    3    3    0    0 -0.71269159965E+02 -0.10304597631E+03  0.18045769133E+02  0.15138122837E+03  0.83023250500E+02 0.  0.
          6    2    1    2  501    0  0.78049774622E+02  0.59799088482E+02 -0.38626383406E+02  0.20166496934E+03  0.17178202485E+03 0.  0.
         24    2    5    5    0    0  0.11784482774E+02 -0.10957800875E+02  0.23600441824E+02  0.86374492399E+02  0.81514567095E+02 0.  0.
          5    1    5    5  501    0  0.66265291848E+02  0.70756889357E+02 -0.62226825230E+02  0.11529047694E+03  0.47000000000E+01 0. -1.
        -13    1    6    6    0    0  0.32829163009E+02 -0.35550101367E+02  0.40457340663E+01  0.48558538026E+02  0.00000000000E+00 0.  1.
         14    1    6    6    0    0 -0.21044680235E+02  0.24592300492E+02  0.19554707758E+02  0.37815954373E+02  0.00000000000E+00 0. -1.
         -5    1    3    3    0  503 -0.67806146573E+01  0.43246887829E+02 -0.15544874953E+02  0.46690504167E+02  0.47000000000E+01 0.  1.
         11    1    4    4    0    0  0.16283060070E+02 -0.36864185216E+02  0.87301333088E+01  0.41234953916E+02  0.00000000000E+00 0. -1.
        -12    1    4    4    0    0 -0.87552220035E+02 -0.66181791095E+02  0.93156358241E+01  0.11014627446E+03  0.00000000000E+00 0.  1.
</event>
<event>
12    1  0.9873238E-001  0.2266713E+03  0.7818608E-02  0.1129272E+00
         21   -1    0    0  501  502  0.00000000000E+00  0.00000000000E+00  0.27155693215E+03  0.27155693215E+03  0.00000000000E+00 0.  1.
         21   -1    0    0  502  503 -0.00000000000E+00 -0.00000000000E+00 -0.22640824243E+03  0.22640824243E+03  0.00000000000E+00 0.  1.
         -6    2    1    2    0  503 -0.50353646669E+01  0.14670270032E+03  0.12522843736E+03  0.25896337676E+03  0.17272183359E+03 0.  0.
        -24    2    3    3    0    0 -0.47348286940E+02  0.31103965859E+02  0.81200580366E+02  0.12814291585E+03  0.81349589199E+02 0.  0.
          6    2    1    2  501    0  0.50353646669E+01 -0.14670270032E+03 -0.80079747648E+02  0.23900179782E+03  0.17076901417E+03 0.  0.
         24    2    5    5    0    0 -0.39565805677E+02 -0.10250050539E+03  0.27212290655E+00  0.13691550328E+03  0.81694396398E+02 0.  0.
          5    1    5    5  501    0  0.44601170344E+02 -0.44202194927E+02 -0.80351870555E+02  0.10208629455E+03  0.47000000000E+01 0. -1.
        -11    1    6    6    0    0 -0.11672686919E+02  0.11906915495E+02  0.87902055762E+01  0.18849243237E+02  0.00000000000E+00 0.  1.
         12    1    6    6    0    0 -0.27893118758E+02 -0.11440742088E+03 -0.85180826696E+01  0.11806626004E+03  0.00000000000E+00 0. -1.
         -5    1    3    3    0  503  0.42312922273E+02  0.11559873446E+03  0.44027856996E+02  0.13082046090E+03  0.47000000000E+01 0.  1.
         11    1    4    4    0    0 -0.92406009044E+00  0.35692839577E+02  0.14306434171E+01  0.35733449662E+02  0.00000000000E+00 0. -1.
        -12    1    4    4    0    0 -0.46424226850E+02 -0.45888737186E+01  0.79769936949E+02  0.92409466190E+02  0.00000000000E+00 0.  1.
</event>
<event>
12    1  0.9873238E-001  0.2872240E+03  0.7818608E-02  0.1091826E+00
         21   -1    0    0  503  502  0.00000000000E+00  0.00000000000E+00  0.95685044289E+03  0.95685044289E+03  0.00000000000E+00 0. -1.
         21   -1    0    0  501  503 -0.00000000000E+00 -0.00000000000E+00 -0.11760079015E+03  0.11760079015E+03  0.00000000000E+00 0. -1.
          6    2    1    2  501    0  0.25643395218E+02 -0.22836104852E+03  0.69740424591E+03  0.75423492408E+03  0.17231159650E+03 0.  0.
         24    2    3    3    0    0 -0.15544776625E+02 -0.13373317156E+03  0.25103150453E+03  0.29606288778E+03  0.80685909544E+02 0.  0.
         -6    2    1    2    0  502 -0.25643395218E+02  0.22836104852E+03  0.14184540683E+03  0.32021630896E+03  0.17208141355E+03 0.  0.
        -24    2    5    5    0    0  0.26977709643E+02  0.20806510568E+03  0.83314993187E+02  0.23879883360E+03  0.77875604801E+02 0.  0.
          5    1    3    3  501    0  0.41188171843E+02 -0.94627876953E+02  0.44637274138E+03  0.45817203629E+03  0.47000000000E+01 0. -1.
        -13    1    4    4    0    0 -0.22298543458E+01 -0.11342495122E+03  0.24650931712E+03  0.27136144758E+03  0.00000000000E+00 0.  1.
         14    1    4    4    0    0 -0.13314922279E+02 -0.20308220346E+02  0.45221874131E+01  0.24701440199E+02  0.00000000000E+00 0. -1.
         -5    1    5    5    0  502 -0.52621104861E+02  0.20295942840E+02  0.58530413644E+02  0.81417475359E+02  0.47000000000E+01 0.  1.
         11    1    6    6    0    0  0.31370351574E+02  0.50448601412E+02  0.49982621357E+02  0.77636478411E+02  0.00000000000E+00 0. -1.
        -12    1    6    6    0    0 -0.43926419314E+01  0.15761650426E+03  0.33332371830E+02  0.16116235519E+03  0.00000000000E+00 0.  1.
</event>
<event>
12    1  0.9873238E-001  0.2018691E+03  0.7818608E-02  0.1148336E+00
         21   -1    0    0  503  502  0.00000000000E+00  0.00000000000E+00  0.81961856578E+03  0.81961856578E+03  0.00000000000E+00 0. -1.
         21   -1    0    0  501  503 -0.00000000000E+00 -0.00000000000E+00 -0.68714391780E+02  0.68714391780E+02  0.00000000000E+00 0. -1.
          6    2    1    2  501    0 -0.85549131886E+02  0.63069557509E+02  0.14126547977E+03  0.24638800835E+03  0.17162369251E+03 0.  0.
         24    2    3    3    0    0 -0.45271171912E+02 -0.30786193989E+02  0.48701448878E+02  0.10846989509E+03  0.79978861400E+02 0.  0.
         -6    2    1    2    0  502  0.85549131886E+02 -0.63069557509E+02  0.60963869423E+03  0.64194494922E+03  0.17069726792E+03 0.  0.
        -24    2    5    5    0    0  0.26931530554E+02 -0.36381822997E+02  0.13757298642E+03  0.16548258885E+03  0.80057580759E+02 0.  0.
          5    1    3    3  501    0 -0.40277959974E+02  0.93855751498E+02  0.92564030896E+02  0.13791811326E+03  0.47000000000E+01 0. -1.
        -11    1    4    4    0    0  0.22661403455E+02 -0.11084400943E+02  0.19765838406E+02  0.32048268576E+02  0.00000000000E+00 0.  1.
         12    1    4    4    0    0 -0.67932575367E+02 -0.19701793046E+02  0.28935610472E+02  0.76421626511E+02  0.00000000000E+00 0. -1.
         -5    1    5    5    0  502  0.58617601332E+02 -0.26687734512E+02  0.47206570781E+03  0.47646236037E+03  0.47000000000E+01 0.  1.
         13    1    6    6    0    0 -0.11858169890E+02 -0.48643859684E+02  0.89066714906E+02  0.10217495281E+03  0.00000000000E+00 0. -1.
        -14    1    6    6    0    0  0.38789700445E+02  0.12262036687E+02  0.48506271515E+02  0.63307636037E+02  0.00000000000E+00 0.  1.
</event>
<event>
12    1  0.9873238E-001  0.2027552E+03  0.7818608E-02  0.1148423E+00
         21   -1    0    0  503  502  0.00000000000E+00  0.00000000000E+00  0.71995843289E+03  0.71995843289E+03  0.00000000000E+00 0. -1.
         21   -1    0    0  501  503 -0.00000000000E+00 -0.00000000000E+00 -0.78134216223E+02  0.78134216223E+02  0.00000000000E+00 0. -1.
          6    2    1    2  501    0  0.95635427537E+01  0.10004550473E+03  0.10479960170E+03  0.22406728691E+03  0.17065353258E+03 0.  0.
         24    2    3    3    0    0 -0.32590941317E+02  0.23385702780E+01  0.19319250321E+02  0.87492669805E+02  0.78829534248E+02 0.  0.
         -6    2    1    2    0  502 -0.95635427537E+01 -0.10004550473E+03  0.53702461498E+03  0.57402536220E+03  0.17609405157E+03 0.  0.
        -24    2    5    5    0    0 -0.63119379717E+02 -0.37847093226E+02  0.39741139556E+03  0.41200434165E+03  0.79970629950E+02 0.  0.
          5    1    3    3  501    0  0.42154484071E+02  0.97706934451E+02  0.85480351374E+02  0.13657461711E+03  0.47000000000E+01 0. -1.
        -11    1    4    4    0    0  0.51337618131E+01 -0.30331898645E+02  0.21513446828E+02  0.37539419018E+02  0.00000000000E+00 0.  1.
         12    1    4    4    0    0 -0.37724703131E+02  0.32670468923E+02 -0.21941965068E+01  0.49953250787E+02  0.00000000000E+00 0. -1.
         -5    1    5    5    0  502  0.53555836964E+02 -0.62198411503E+02  0.13961321941E+03  0.16202102055E+03  0.47000000000E+01 0.  1.
         13    1    6    6    0    0  0.53106381377E+01  0.75627392365E+01  0.39271347507E+01  0.10040930711E+02  0.00000000000E+00 0. -1.
        -14    1    6    6    0    0 -0.68430017855E+02 -0.45409832462E+02  0.39348426081E+03  0.40196341094E+03  0.00000000000E+00 0.  1.
</event>
<event>
12    1  0.9873238E-001  0.6365606E+03  0.7818608E-02  0.9832895E-01
         21   -1    0    0  503  502  0.00000000000E+00  0.00000000000E+00  0.51545140489E+03  0.51545140489E+03  0.00000000000E+00 0.  1.
         21   -1    0    0  501  503 -0.00000000000E+00 -0.00000000000E+00 -0.81956689360E+03  0.81956689360E+03  0.00000000000E+00 0.  1.
          6    2    1    2  501    0 -0.42538534504E+03  0.43937680651E+03 -0.14197650444E+02  0.63554582121E+03  0.17237240992E+03 0.  0.
         24    2    3    3    0    0 -0.15434899952E+03  0.16168097812E+03 -0.61019628570E+02  0.24466212836E+03  0.78560865861E+02 0.  0.
         -6    2    1    2    0  502  0.42538534504E+03 -0.43937680651E+03 -0.28991783827E+03  0.69947247728E+03  0.17664858804E+03 0.  0.
        -24    2    5    5    0    0  0.36979633917E+03 -0.36826108656E+03 -0.18264551713E+03  0.55919766101E+03  0.83528910039E+02 0.  0.
          5    1    3    3  501    0 -0.27103634552E+03  0.27769582838E+03  0.46821978126E+02  0.39088369284E+03  0.47000000000E+01 0. -1.
        -13    1    4    4    0    0 -0.33068037844E+02 -0.20978648526E+01 -0.87480457590E+01  0.34269876982E+02  0.00000000000E+00 0.  1.
         14    1    4    4    0    0 -0.12128096167E+03  0.16377884298E+03 -0.52271582811E+02  0.21039225138E+03  0.00000000000E+00 0. -1.
         -5    1    5    5    0  502  0.55589005868E+02 -0.71115719951E+02 -0.10727232114E+03  0.14027481628E+03  0.47000000000E+01 0.  1.
         13    1    6    6    0    0  0.13293293898E+03 -0.99053945591E+02 -0.25622907148E+02  0.16774797696E+03  0.00000000000E+00 0. -1.
        -14    1    6    6    0    0  0.23686340019E+03 -0.26920714097E+03 -0.15702260998E+03  0.39144968405E+03  0.00000000000E+00 0.  1.
</event>
<event>
12    1  0.9873238E-001  0.1773042E+03  0.7818608E-02  0.1170510E+00
         21   -1    0    0  501  502  0.00000000000E+00  0.00000000000E+00  0.11629589315E+03  0.11629589315E+03  0.00000000000E+00 0. -1.
         21   -1    0    0  502  503 -0.00000000000E+00 -0.00000000000E+00 -0.34414671331E+03  0.34414671331E+03  0.00000000000E+00 0. -1.
         -6    2    1    2    0  503  0.88491082334E+01 -0.41384397680E+02 -0.22095457985E+03  0.28329789661E+03  0.17217954808E+03 0.  0.
        -24    2    3    3    0    0 -0.45737881473E+02 -0.58521857684E+02 -0.85985903737E+02  0.13662797634E+03  0.75874018270E+02 0.  0.
          6    2    1    2  501    0 -0.88491082334E+01  0.41384397680E+02 -0.68962403190E+01  0.17714470986E+03  0.17187703457E+03 0.  0.
         24    2    5    5    0    0  0.16064800438E+02  0.37473466567E+02  0.58256370538E+02  0.10712363497E+03  0.80120721105E+02 0.  0.
          5    1    5    5  501    0 -0.24913908671E+02  0.39109311132E+01 -0.65152610857E+02  0.70021074892E+02  0.47000000000E+01 0. -1.
        -13    1    6    6    0    0  0.47934478890E+02  0.30714924669E+02  0.41774750573E+02  0.70613388598E+02  0.00000000000E+00 0.  1.
         14    1    6    6    0    0 -0.31869678452E+02  0.67585418977E+01  0.16481619965E+02  0.36510246368E+02  0.00000000000E+00 0. -1.
         -5    1    3    3    0  503  0.54586989706E+02  0.17137460004E+02 -0.13496867611E+03  0.14666992027E+03  0.47000000000E+01 0.  1.
         13    1    4    4    0    0  0.22354281975E+01 -0.32871130603E+02  0.21914440541E+01  0.33019854533E+02  0.00000000000E+00 0. -1.
        -14    1    4    4    0    0 -0.47973309671E+02 -0.25650727080E+02 -0.88177347791E+02  0.10360812181E+03  0.00000000000E+00 0.  1.
</event>
<event>
12    1  0.9873238E-001  0.2058866E+03  0.7818608E-02  0.1145014E+00
         21   -1    0    0  501  502  0.00000000000E+00  0.00000000000E+00  0.91546992115E+02  0.91546992115E+02  0.00000000000E+00 0.  1.
         21   -1    0    0  502  503 -0.00000000000E+00 -0.00000000000E+00 -0.49230464486E+03  0.49230464486E+03  0.00000000000E+00 0.  1.
         -6    2    1    2    0  503 -0.11227534493E+03  0.20450601072E+01 -0.12755810645E+03  0.24219905240E+03  0.17256701629E+03 0.  0.
        -24    2    3    3    0    0 -0.88351832404E+02  0.11241534837E+02 -0.16051079897E+03  0.20018858294E+03  0.79870731553E+02 0.  0.
          6    2    1    2  501    0  0.11227534493E+03 -0.20450601072E+01 -0.27319954630E+03  0.34165258457E+03  0.17169321798E+03 0.  0.
         24    2    5    5    0    0  0.10998425498E+03 -0.35506092318E+02 -0.27338428854E+03  0.30778499093E+03  0.81458041260E+02 0.  0.
          5    1    5    5  501    0  0.22910899432E+01  0.33461032210E+02  0.18474224071E+00  0.33867593647E+02  0.47000000000E+01 0. -1.
        -13    1    6    6    0    0  0.11543572516E+03 -0.11809578521E+02 -0.21052121648E+03  0.24038314287E+03  0.00000000000E+00 0.  1.
         14    1    6    6    0    0 -0.54514701753E+01 -0.23696513797E+02 -0.62863072059E+02  0.67401848060E+02  0.00000000000E+00 0. -1.
         -5    1    3    3    0  503 -0.23923512524E+02 -0.91964747303E+01  0.32952692527E+02  0.42010469454E+02  0.47000000000E+01 0.  1.
         13    1    4    4    0    0 -0.85680525363E+02 -0.10047132935E+02 -0.82813657886E+02  0.11958344049E+03  0.00000000000E+00 0. -1.
        -14    1    4    4    0    0 -0.26713070414E+01  0.21288667772E+02 -0.77697141089E+02  0.80605142455E+02  0.00000000000E+00 0.  1.
</event>
<event>
12    1  0.9873238E-001  0.1818723E+03  0.7818608E-02  0.1166077E+00
         21   -1    0    0  501  502  0.00000000000E+00  0.00000000000E+00  0.19489379432E+03  0.19489379432E+03  0.00000000000E+00 0. -1.
         21   -1    0    0  502  503 -0.00000000000E+00 -0.00000000000E+00 -0.18185419585E+03  0.18185419585E+03  0.00000000000E+00 0. -1.
         -6    2    1    2    0  503  0.33378810001E+02  0.47873354764E+02 -0.42718175353E+02  0.18652060404E+03  0.17192757246E+03 0.  0.
        -24    2    3    3    0    0  0.52823401791E+02  0.90195158025E+02 -0.45837689964E+02  0.13960527016E+03  0.80393154736E+02 0.  0.
          6    2    1    2  501    0 -0.33378810001E+02 -0.47873354764E+02  0.55757773823E+02  0.19022738613E+03  0.17225424824E+03 0.  0.
         24    2    5    5    0    0 -0.28706695875E+02 -0.49424300521E+02  0.10320427567E+03  0.14229519840E+03  0.79561077809E+02 0.  0.
          5    1    5    5  501    0 -0.46721141265E+01  0.15509457573E+01 -0.47446501844E+02  0.47932187728E+02  0.47000000000E+01 0. -1.
        -13    1    6    6    0    0  0.10896156763E+02 -0.25876853309E+02 -0.12764596196E+01  0.28106353704E+02  0.00000000000E+00 0.  1.
         14    1    6    6    0    0 -0.39602852638E+02 -0.23547447212E+02  0.10448073529E+03  0.11418884470E+03  0.00000000000E+00 0. -1.
         -5    1    3    3    0  503 -0.19444591790E+02 -0.42321803261E+02  0.31195146112E+01  0.46915333874E+02  0.47000000000E+01 0.  1.
         13    1    4    4    0    0  0.52919769045E+02  0.25560250142E+02 -0.46541820528E+02  0.74966455172E+02  0.00000000000E+00 0. -1.
        -14    1    4    4    0    0 -0.96367254026E-01  0.64634907883E+02  0.70413056359E+00  0.64638814992E+02  0.00000000000E+00 0.  1.
</event>
<event>
12    1  0.9873238E-001  0.1866351E+03  0.7818608E-02  0.1162877E+00
         21   -1    0    0  501  502  0.00000000000E+00  0.00000000000E+00  0.59358199178E+02  0.59358199178E+02  0.00000000000E+00 0.  1.
         21   -1    0    0  502  503 -0.00000000000E+00 -0.00000000000E+00 -0.70113181315E+03  0.70113181315E+03  0.00000000000E+00 0.  1.
         -6    2    1    2    0  503  0.22053132023E+02 -0.64045633688E+02 -0.15173127209E+03  0.23611022718E+03  0.16774229229E+03 0.  0.
        -24    2    3    3    0    0 -0.38303046368E+02 -0.98528717155E+01 -0.12175096507E+03  0.14950403497E+03  0.77226656896E+02 0.  0.
          6    2    1    2  501    0 -0.22053132023E+02  0.64045633688E+02 -0.49004234188E+03  0.52437978515E+03  0.17390939712E+03 0.  0.
         24    2    5    5    0    0 -0.72841702957E+00 -0.11103814426E+02 -0.11301115263E+03  0.13931253038E+03  0.80700899729E+02 0.  0.
          5    1    5    5  501    0 -0.21324714994E+02  0.75149448114E+02 -0.37703118925E+03  0.38506725476E+03  0.47000000000E+01 0. -1.
        -11    1    6    6    0    0  0.38619865881E+02  0.50120474064E+01 -0.54105455054E+02  0.66663445204E+02  0.00000000000E+00 0.  1.
         12    1    6    6    0    0 -0.39348282910E+02 -0.16115861832E+02 -0.58905697575E+02  0.72649085180E+02  0.00000000000E+00 0. -1.
         -5    1    3    3    0  503  0.60356178391E+02 -0.54192761973E+02 -0.29980307019E+02  0.86606192210E+02  0.47000000000E+01 0.  1.
         13    1    4    4    0    0  0.19330211663E+02  0.23866193868E+01 -0.73412947424E+01  0.20814601691E+02  0.00000000000E+00 0. -1.
        -14    1    4    4    0    0 -0.57633258031E+02 -0.12239491102E+02 -0.11440967033E+03  0.12868943328E+03  0.00000000000E+00 0.  1.
</event>
<event>
12    1  0.9873238E-001  0.3031839E+03  0.7818608E-02  0.1083700E+00
         21   -1    0    0  503  502  0.00000000000E+00  0.00000000000E+00  0.43844547030E+03  0.43844547030E+03  0.00000000000E+00 0. -1.
         21   -1    0    0  501  503 -0.00000000000E+00 -0.00000000000E+00 -0.21054871221E+03  0.21054871221E+03  0.00000000000E+00 0. -1.
          6    2    1    2  501    0 -0.76166695323E+02  0.23730455240E+03  0.13761581650E+03  0.33265395502E+03  0.17206314184E+03 0.  0.
         24    2    3    3    0    0 -0.30340385778E+02  0.22798153028E+03  0.14726022382E+03  0.28467402192E+03  0.80359243899E+02 0.  0.
         -6    2    1    2    0  502  0.76166695323E+02 -0.23730455240E+03  0.90280941596E+02  0.31634022748E+03  0.17264320155E+03 0.  0.
        -24    2    5    5    0    0  0.68754380997E+02 -0.51986855731E+02  0.27941750547E+02  0.12062140917E+03  0.79617742059E+02 0.  0.
          5    1    3    3  501    0 -0.45826309545E+02  0.93230221176E+01 -0.96444073249E+01  0.47979933103E+02  0.47000000000E+01 0. -1.
        -13    1    4    4    0    0 -0.24191230708E+01  0.18427049946E+03  0.83059919468E+02  0.20213960361E+03  0.00000000000E+00 0.  1.
         14    1    4    4    0    0 -0.27921262708E+02  0.43711030822E+02  0.64200304353E+02  0.82534418309E+02  0.00000000000E+00 0. -1.
         -5    1    5    5    0  502  0.74123143264E+01 -0.18531769667E+03  0.62339191048E+02  0.19571881831E+03  0.47000000000E+01 0.  1.
         11    1    6    6    0    0 -0.72472873570E+01 -0.67986827874E+01  0.30587445613E+02  0.32161111468E+02  0.00000000000E+00 0. -1.
        -12    1    6    6    0    0  0.76001668354E+02 -0.45188172944E+02 -0.26456950659E+01  0.88460297699E+02  0.00000000000E+00 0.  1.
</event>
<event>
12    1  0.9873238E-001  0.1772571E+03  0.7818608E-02  0.1170575E+00
         21   -1    0    0  501  502  0.00000000000E+00  0.00000000000E+00  0.44725670831E+03  0.44725670831E+03  0.00000000000E+00 0. -1.
         21   -1    0    0  502  503 -0.00000000000E+00 -0.00000000000E+00 -0.77095080772E+02  0.77095080772E+02  0.00000000000E+00 0. -1.
         -6    2    1    2    0  503  0.32182305788E+02 -0.17275122268E+02  0.10596541354E+03  0.20620133779E+03  0.17307857228E+03 0.  0.
        -24    2    3    3    0    0  0.25367337725E+02  0.36706809810E+02  0.50256956201E+01  0.91434576767E+02  0.79650062790E+02 0.  0.
          6    2    1    2  501    0 -0.32182305788E+02  0.17275122268E+02  0.26419621400E+03  0.31815045130E+03  0.17345298935E+03 0.  0.
         24    2    5    5    0    0 -0.35745037397E+02 -0.40742589125E+02  0.81510283319E+02  0.12638239567E+03  0.79943213479E+02 0.  0.
          5    1    5    5  501    0  0.35627316085E+01  0.58017711393E+02  0.18268593068E+03  0.19176805563E+03  0.47000000000E+01 0. -1.
        -11    1    6    6    0    0 -0.23577969094E+02  0.16403275228E+01 -0.93266766334E+01  0.25408624481E+02  0.00000000000E+00 0.  1.
         12    1    6    6    0    0 -0.12167068302E+02 -0.42382916648E+02  0.90836959952E+02  0.10097377119E+03  0.00000000000E+00 0. -1.
         -5    1    3    3    0  503  0.68149680635E+01 -0.53981932078E+02  0.10093971792E+03  0.11476676102E+03  0.47000000000E+01 0.  1.
         11    1    4    4    0    0 -0.21990598647E+02  0.37902524936E+02  0.45885080279E+01  0.44059530539E+02  0.00000000000E+00 0. -1.
        -12    1    4    4    0    0  0.47357936372E+02 -0.11957151264E+01  0.43718759218E+00  0.47375046227E+02  0.00000000000E+00 0.  1.
</event>
<event>
12    1  0.9873238E-001  0.5139001E+03  0.7818608E-02  0.1010277E+00
         21   -1    0    0  503  502  0.00000000000E+00  0.00000000000E+00  0.12876234648E+04  0.12876234648E+04  0.00000000000E+00 0. -1.
         21   -1    0    0  501  503 -0.00000000000E+00 -0.00000000000E+00 -0.49783115141E+03  0.49783115141E+03  0.00000000000E+00 0. -1.
          6    2    1    2  501    0 -0.20798466416E+03  0.43656476311E+03 -0.28997595439E+03  0.59006726890E+03  0.17391640171E+03 0.  0.
         24    2    3    3    0    0 -0.50226465911E+02  0.17876753883E+03 -0.59392542615E+02  0.20988592040E+03  0.77743775608E+02 0.  0.
         -6    2    1    2    0  502  0.20798466416E+03 -0.43656476311E+03  0.10797682678E+04  0.11953873473E+04  0.17089466073E+03 0.  0.
        -24    2    5    5    0    0  0.13460652687E+03 -0.15517967238E+03  0.51337291097E+03  0.55868670294E+03  0.79871387388E+02 0.  0.
          5    1    3    3  501    0 -0.15775819825E+03  0.25779722428E+03 -0.23058341178E+03  0.38018134850E+03  0.47000000000E+01 0. -1.
        -11    1    4    4    0    0 -0.21114768207E+02  0.14652607745E+02 -0.31886494962E+02  0.40954620144E+02  0.00000000000E+00 0.  1.
         12    1    4    4    0    0 -0.29111697704E+02  0.16411493108E+03 -0.27506047653E+02  0.16893130025E+03  0.00000000000E+00 0. -1.
         -5    1    5    5    0  502  0.73378137286E+02 -0.28138509073E+03  0.56639535680E+03  0.63670064436E+03  0.47000000000E+01 0.  1.
         13    1    6    6    0    0  0.80267520704E+02 -0.10310813010E+03  0.22060037674E+03  0.25639556858E+03  0.00000000000E+00 0. -1.
        -14    1    6    6    0    0  0.54339006170E+02 -0.52071542277E+02  0.29277253423E+03  0.30229113435E+03  0.00000000000E+00 0.  1.
</event>
<event>
12    1  0.9873238E-001  0.1984069E+03  0.7818608E-02  0.1151199E+00
         21   -1    0    0  501  502  0.00000000000E+00  0.00000000000E+00  0.91524185810E+03  0.91524185810E+03  0.00000000000E+00 0. -1.
         21   -1    0    0  502  503 -0.00000000000E+00 -0.00000000000E+00 -0.50865321065E+02  0.50865321065E+02  0.00000000000E+00 0. -1.
         -6    2    1    2    0  503 -0.44685258411E+02 -0.87402064330E+02  0.24150321081E+03  0.31255253243E+03  0.17242213178E+03 0.  0.
        -24    2    3    3    0    0  0.46323391314E+01  0.97534975163E+01  0.58266877197E+02  0.99317749665E+02  0.79701926831E+02 0.  0.
          6    2    1    2  501    0  0.44685258411E+02  0.87402064330E+02  0.62287332622E+03  0.65355464673E+03  0.17183306602E+03 0.  0.
         24    2    5    5    0    0  0.24486653057E+02 -0.11503645893E+02  0.17857321331E+03  0.19790675251E+03  0.80912051831E+02 0.  0.
          5    1    5    5  501    0  0.20198605354E+02  0.98905710223E+02  0.44430011291E+03  0.45564789422E+03  0.47000000000E+01 0. -1.
        -11    1    6    6    0    0  0.42803522315E+01 -0.32905385500E+02  0.15931218717E+03  0.16273124713E+03  0.00000000000E+00 0.  1.
         12    1    6    6    0    0  0.20206300826E+02  0.21401739607E+02  0.19261026139E+02  0.35175505387E+02  0.00000000000E+00 0. -1.
         -5    1    3    3    0  503 -0.49317597543E+02 -0.97155561846E+02  0.18323633361E+03  0.21323478276E+03  0.47000000000E+01 0.  1.
         11    1    4    4    0    0  0.43182670259E+01  0.44929388500E+02  0.35384459154E+02  0.57352919113E+02  0.00000000000E+00 0. -1.
        -12    1    4    4    0    0  0.31407210544E+00 -0.35175890984E+02  0.22882418043E+02  0.41964830553E+02  0.00000000000E+00 0.  1.
</event>
<event>
12    1  0.9873238E-001  0.1768868E+03  0.7818608E-02  0.1171040E+00
         21   -1    0    0  503  502  0.00000000000E+00  0.00000000000E+00  0.87283664004E+02  0.87283664004E+02  0.00000000000E+00 0. -1.
         21   -1    0    0  501  503 -0.00000000000E+00 -0.00000000000E+00 -0.37219103821E+03  0.37219103821E+03  0.00000000000E+00 0. -1.
          6    2    1    2  501    0  0.37855940264E+02  0.11053816673E+02 -0.95637918819E+02  0.20041512785E+03  0.17165183623E+03 0.  0.
         24    2    3    3    0    0  0.38496641067E+02  0.28985294271E+02  0.96582880881E+01  0.93497731817E+02  0.79538699190E+02 0.  0.
         -6    2    1    2    0  502 -0.37855940264E+02 -0.11053816673E+02 -0.18926945538E+03  0.25905957436E+03  0.17243455932E+03 0.  0.
        -24    2    5    5    0    0 -0.64694406437E+02  0.18680708081E+02 -0.46021418765E+02  0.11024245429E+03  0.74169351250E+02 0.  0.
          5    1    3    3  501    0 -0.64070080319E+00 -0.17931477597E+02 -0.10529620691E+03  0.10691739604E+03  0.47000000000E+01 0. -1.
        -11    1    4    4    0    0 -0.17752199611E+02  0.24542057570E+02  0.19775895640E+02  0.36173736732E+02  0.00000000000E+00 0.  1.
         12    1    4    4    0    0  0.56248840678E+02  0.44432367008E+01 -0.10117607552E+02  0.57323995086E+02  0.00000000000E+00 0. -1.
         -5    1    5    5    0  502  0.26838466173E+02 -0.29734524755E+02 -0.14324803662E+03  0.14881712006E+03  0.47000000000E+01 0.  1.
         13    1    6    6    0    0 -0.95826682879E+01 -0.25480796264E+02 -0.26183886103E+01  0.27348756255E+02  0.00000000000E+00 0. -1.
        -14    1    6    6    0    0 -0.55111738149E+02  0.44161504345E+02 -0.43403030155E+02  0.82893698038E+02  0.00000000000E+00 0.  1.
</event>
<event>
12    1  0.9873238E-001  0.2267567E+03  0.7818608E-02  0.1128992E+00
         21   -1    0    0  503  502  0.00000000000E+00  0.00000000000E+00  0.39210735264E+03  0.39210735264E+03  0.00000000000E+00 0. -1.
         21   -1    0    0  501  503 -0.00000000000E+00 -0.00000000000E+00 -0.13099802368E+03  0.13099802368E+03  0.00000000000E+00 0. -1.
          6    2    1    2  501    0  0.69328945704E+01 -0.14600053445E+03  0.13385672525E+03  0.26331776617E+03  0.17336205467E+03 0.  0.
         24    2    3    3    0    0 -0.42517617641E+02 -0.15440655231E+03  0.10782610922E+03  0.20661064788E+03  0.73568735082E+02 0.  0.
         -6    2    1    2    0  502 -0.69328945704E+01  0.14600053445E+03  0.12725260371E+03  0.25978761015E+03  0.17300912158E+03 0.  0.
        -24    2    5    5    0    0 -0.23151661312E+02  0.14551371662E+03  0.15456263220E+03  0.22767510414E+03  0.78969010543E+02 0.  0.
          5    1    3    3  501    0  0.49450512211E+02  0.84060178571E+01  0.26030616034E+02  0.56707118294E+02  0.47000000000E+01 0. -1.
        -13    1    4    4    0    0 -0.53425830085E+02 -0.83267220840E+02  0.36973702477E+02  0.10561630585E+03  0.00000000000E+00 0.  1.
         14    1    4    4    0    0  0.10908212444E+02 -0.71139331468E+02  0.70852406739E+02  0.10099434203E+03  0.00000000000E+00 0. -1.
         -5    1    5    5    0  502  0.16218766742E+02  0.48681783253E+00 -0.27310028490E+02  0.32112506012E+02  0.47000000000E+01 0.  1.
         13    1    6    6    0    0 -0.42893885513E+02  0.36747077971E+02  0.56806444551E+02  0.80107460927E+02  0.00000000000E+00 0. -1.
        -14    1    6    6    0    0  0.19742224200E+02  0.10876663865E+03  0.97756187653E+02  0.14756764321E+03  0.00000000000E+00 0.  1.
</event>
<event>
12    1  0.9873238E-001  0.2290494E+03  0.7818608E-02  0.1127609E+00
         21   -1    0    0  503  502  0.00000000000E+00  0.00000000000E+00  0.27109754450E+03  0.27109754450E+03  0.00000000000E+00 0.  1.
         21   -1    0    0  501  503 -0.00000000000E+00 -0.00000000000E+00 -0.26555436033E+03  0.26555436033E+03  0.00000000000E+00 0.  1.
          6    2    1    2  501    0 -0.14788286954E+03 -0.24727639384E+02 -0.13835255817E+03  0.26615309650E+03  0.17092466519E+03 0.  0.
         24    2    3    3    0    0 -0.68053469369E+02  0.41610879350E+02 -0.11268987388E+03  0.15912882091E+03  0.79121640504E+02 0.  0.
         -6    2    1    2    0  502  0.14788286954E+03  0.24727639384E+02  0.14389574234E+03  0.27049880834E+03  0.17315548329E+03 0.  0.
        -24    2    5    5    0    0  0.19362273353E+02  0.12519511414E+02  0.10545017665E+03  0.13571478274E+03  0.82262547400E+02 0.  0.
          5    1    3    3  501    0 -0.79829400174E+02 -0.66338518734E+02 -0.25662684291E+02  0.10702427559E+03  0.47000000000E+01 0. -1.
        -11    1    4    4    0    0  0.68358713341E+00  0.88242083305E+01  0.10849873760E+02  0.14001917892E+02  0.00000000000E+00 0.  1.
         12    1    4    4    0    0 -0.68737056503E+02  0.32786671020E+02 -0.12353974764E+03  0.14512690302E+03  0.00000000000E+00 0. -1.
         -5    1    5    5    0  502  0.12852059619E+03  0.12208127970E+02  0.38445565694E+02  0.13478402559E+03  0.47000000000E+01 0.  1.
         13    1    6    6    0    0  0.18453125255E+01 -0.34598892566E+02  0.35824457966E+02  0.49838542652E+02  0.00000000000E+00 0. -1.
        -14    1    6    6    0    0  0.17516960827E+02  0.47118403980E+02  0.69625718683E+02  0.85876240092E+02  0.00000000000E+00 0.  1.
</event>
<event>
12    1  0.9873238E-001  0.4272833E+03  0.7818608E-02  0.1034747E+00
         21   -1    0    0  503  502  0.00000000000E+00  0.00000000000E+00  0.53220705814E+03  0.53220705814E+03  0.00000000000E+00 0.  1.
         21   -1    0    0  501  503 -0.00000000000E+00 -0.00000000000E+00 -0.41889748962E+03  0.41889748962E+03  0.00000000000E+00 0.  1.
          6    2    1    2  501    0  0.39088412694E+03  0.39991729436E+01  0.25938192025E+03  0.49984994873E+03  0.17252419137E+03 0.  0.
         24    2    3    3    0    0  0.24473431150E+03  0.22545727892E+02  0.23580771543E+03  0.35057980306E+03  0.83052553155E+02 0.  0.
         -6    2    1    2    0  502 -0.39088412694E+03 -0.39991729436E+01 -0.14607235174E+03  0.45125459903E+03  0.17171833660E+03 0.  0.
        -24    2    5    5    0    0 -0.14546357191E+03 -0.63443805282E+02 -0.51772255243E+02  0.18166322056E+03  0.71668627101E+02 0.  0.
          5    1    3    3  501    0  0.14614981545E+03 -0.18546554948E+02  0.23574204823E+02  0.14927014567E+03  0.47000000000E+01 0. -1.
        -13    1    4    4    0    0  0.23554304875E+03  0.40197579954E+01  0.19908388508E+03  0.30843326598E+03  0.00000000000E+00 0.  1.
         14    1    4    4    0    0  0.91912627474E+01  0.18525969896E+02  0.36723830351E+02  0.42146537071E+02  0.00000000000E+00 0. -1.
         -5    1    5    5    0  502 -0.24542055503E+03  0.59444632338E+02 -0.94300096492E+02  0.26959137847E+03  0.47000000000E+01 0.  1.
         13    1    6    6    0    0 -0.57917100931E+02 -0.12472958114E+02  0.14005326718E+02  0.60877864949E+02  0.00000000000E+00 0. -1.
        -14    1    6    6    0    0 -0.87546470982E+02 -0.50970847168E+02 -0.65777581961E+02  0.12078535561E+03  0.00000000000E+00 0.  1.
</event>
<event>
12    1  0.9873238E-001  0.2043841E+03  0.7818608E-02  0.1148960E+00
         21   -1    0    0  501  502  0.00000000000E+00  0.00000000000E+00  0.10508873061E+03  0.10508873061E+03  0.00000000000E+00 0. -1.
         21   -1    0    0  502  503 -0.00000000000E+00 -0.00000000000E+00 -0.60123100436E+03  0.60123100436E+03  0.00000000000E+00 0. -1.
         -6    2    1    2    0  503 -0.93785453141E+02 -0.60283207769E+02 -0.24710402847E+02  0.19249011081E+03  0.15495826016E+03 0.  0.
        -24    2    3    3    0    0 -0.11506889917E+03 -0.23142846960E+02 -0.38188070976E+02  0.14736662453E+03  0.80511802479E+02 0.  0.
          6    2    1    2  501    0  0.93785453141E+02  0.60283207769E+02 -0.47143187090E+03  0.51382962416E+03  0.17129827029E+03 0.  0.
         24    2    5    5    0    0  0.64020921792E+02  0.28973797597E+02 -0.12143616264E+03  0.16114663294E+03  0.79267498626E+02 0.  0.
          5    1    5    5  501    0  0.29764531349E+02  0.31309410172E+02 -0.34999570826E+03  0.35268299122E+03  0.47000000000E+01 0. -1.
        -11    1    6    6    0    0  0.69457894266E+02  0.35228814987E+02 -0.12849878967E+03  0.15025780322E+03  0.00000000000E+00 0.  1.
         12    1    6    6    0    0 -0.54369724746E+01 -0.62550173897E+01  0.70626270305E+01  0.10888829726E+02  0.00000000000E+00 0. -1.
         -5    1    3    3    0  503  0.21283446033E+02 -0.37140360810E+02  0.13477668130E+02  0.45123486283E+02  0.47000000000E+01 0.  1.
         11    1    4    4    0    0 -0.42152977438E+02  0.27155663742E+02  0.18053945924E+01  0.50175322917E+02  0.00000000000E+00 0. -1.
        -12    1    4    4    0    0 -0.72915921735E+02 -0.50298510702E+02 -0.39993465569E+02  0.97191301614E+02  0.00000000000E+00 0.  1.
</event>
<event>
12    1  0.9873238E-001  0.2015563E+03  0.7818608E-02  0.1148986E+00
         21   -1    0    0  501  502  0.00000000000E+00  0.00000000000E+00  0.19893577813E+03  0.19893577813E+03  0.00000000000E+00 0. -1.
         21   -1    0    0  502  503 -0.00000000000E+00 -0.00000000000E+00 -0.22308656439E+03  0.22308656439E+03  0.00000000000E+00 0. -1.
         -6    2    1    2    0  503 -0.87406887121E+02  0.44417093320E+02  0.53405797564E+02  0.20851166120E+03  0.17610250296E+03 0.  0.
        -24    2    3    3    0    0 -0.33792538996E+02  0.51210236764E+02  0.98189583710E+02  0.13816734641E+03  0.75396267963E+02 0.  0.
          6    2    1    2  501    0  0.87406887121E+02 -0.44417093320E+02 -0.77556583828E+02  0.21351068132E+03  0.17308652532E+03 0.  0.
         24    2    5    5    0    0  0.37856140057E+02 -0.94002999543E+02 -0.46455776040E+02  0.13667716730E+03  0.79075012940E+02 0.  0.
          5    1    5    5  501    0  0.49550747063E+02  0.49585906223E+02 -0.31100807788E+02  0.76833514013E+02  0.47000000000E+01 0. -1.
        -11    1    6    6    0    0  0.19354662409E+02 -0.57496426767E+02  0.15322664656E+02  0.62571767596E+02  0.00000000000E+00 0.  1.
         12    1    6    6    0    0  0.18501477648E+02 -0.36506572776E+02 -0.61778440695E+02  0.74105399707E+02  0.00000000000E+00 0. -1.
         -5    1    3    3    0  503 -0.53614348125E+02 -0.67931434440E+01 -0.44783786146E+02  0.70344314797E+02  0.47000000000E+01 0.  1.
         11    1    4    4    0    0 -0.50406838780E+02  0.81696445722E+01  0.50848820454E+02  0.72063826083E+02  0.00000000000E+00 0. -1.
        -12    1    4    4    0    0  0.16614299784E+02  0.43040592192E+02  0.47340763256E+02  0.66103520324E+02  0.00000000000E+00 0.  1.
</event>
<event>
12    1  0.9873238E-001  0.3455884E+03  0.7818608E-02  0.1064546E+00
         21   -1    0    0  501  502  0.00000000000E+00  0.00000000000E+00  0.62914583495E+03  0.62914583495E+03  0.00000000000E+00 0. -1.
         21   -1    0    0  502  503 -0.00000000000E+00 -0.00000000000E+00 -0.26032120183E+03  0.26032120183E+03  0.00000000000E+00 0.  1.
         -6    2    1    2    0  503  0.15705151483E+03  0.25470323860E+03 -0.48120233953E+02  0.34791890199E+03  0.17085984720E+03 0.  0.
        -24    2    3    3    0    0  0.11224269736E+03  0.72549057968E+02 -0.36477282688E+02  0.15991458300E+03  0.79876734926E+02 0.  0.
          6    2    1    2  501    0 -0.15705151483E+03 -0.25470323860E+03  0.41694486707E+03  0.54154813479E+03  0.17289430890E+03 0.  0.
         24    2    5    5    0    0 -0.64849309007E+02 -0.16495079247E+03  0.33984667004E+03  0.39147158655E+03  0.79624412869E+02 0.  0.
          5    1    5    5  501    0 -0.92202205820E+02 -0.89752446131E+02  0.77098197037E+02  0.15007654824E+03  0.47000000000E+01 0. -1.
        -11    1    6    6    0    0 -0.59593025219E+02 -0.13033077239E+03  0.19229900705E+03  0.23982565960E+03  0.00000000000E+00 0.  1.
         12    1    6    6    0    0 -0.52562837878E+01 -0.34620020077E+02  0.14754766298E+03  0.15164592695E+03  0.00000000000E+00 0. -1.
         -5    1    3    3    0  503  0.44808817467E+02  0.18215418063E+03 -0.11642951264E+02  0.18800431899E+03  0.47000000000E+01 0.  1.
         13    1    4    4    0    0 -0.38431479213E+01 -0.71923668767E+01 -0.15515144647E+02  0.17527682125E+02  0.00000000000E+00 0. -1.
        -14    1    4    4    0    0  0.11608584528E+03  0.79741424844E+02 -0.20962138041E+02  0.14238690088E+03  0.00000000000E+00 0.  1.
</event>
<event>
12    1  0.9873238E-001  0.2691557E+03  0.7818608E-02  0.1102042E+00
         21   -1    0    0  501  502  0.00000000000E+00  0.00000000000E+00  0.70123463497E+03  0.70123463497E+03  0.00000000000E+00 0.  1.
         21   -1    0    0  502  503 -0.00000000000E+00 -0.00000000000E+00 -0.22553423263E+03  0.22553423263E+03  0.00000000000E+00 0. -1.
         -6    2    1    2    0  503 -0.20413633678E+03  0.20435490793E+02 -0.10391532340E+03  0.28851897364E+03  0.17422844325E+03 0.  0.
        -24    2    3    3    0    0 -0.57524678523E+02 -0.41106820110E+02 -0.17105356374E+02  0.10729950796E+03  0.78877955680E+02 0.  0.
          6    2    1    2  501    0  0.20413633678E+03 -0.20435490793E+02  0.57961572573E+03  0.63824989396E+03  0.17122874859E+03 0.  0.
         24    2    5    5    0    0  0.11202797020E+03  0.43747934162E+02  0.23643511203E+03  0.27714258739E+03  0.80263962621E+02 0.  0.
          5    1    5    5  501    0  0.92108366579E+02 -0.64183424955E+02  0.34318061370E+03  0.36110730657E+03  0.47000000000E+01 0. -1.
        -11    1    6    6    0    0  0.29368132848E+02  0.17963674452E+02  0.15325546519E+03  0.15707456330E+03  0.00000000000E+00 0.  1.
         12    1    6    6    0    0  0.82659837352E+02  0.25784259711E+02  0.83179646837E+02  0.12006802409E+03  0.00000000000E+00 0. -1.
         -5    1    3    3    0  503 -0.14661165826E+03  0.61542310903E+02 -0.86809967023E+02  0.18121946568E+03  0.47000000000E+01 0.  1.
         11    1    4    4    0    0 -0.32645171915E+02 -0.53923818243E+02 -0.36879801014E+02  0.73031535284E+02  0.00000000000E+00 0. -1.
        -12    1    4    4    0    0 -0.24879506609E+02  0.12816998133E+02  0.19774444640E+02  0.34267972672E+02  0.00000000000E+00 0.  1.
</event>
<event>
12    1  0.9873238E-001  0.1774224E+03  0.7818608E-02  0.1171375E+00
         21   -1    0    0  501  502  0.00000000000E+00  0.00000000000E+00  0.60077789700E+03  0.60077789700E+03  0.00000000000E+00 0. -1.
         21   -1    0    0  502  503 -0.00000000000E+00 -0.00000000000E+00 -0.26856487836E+03  0.26856487836E+03  0.00000000000E+00 0. -1.
         -6    2    1    2    0  503 -0.22217659368E+02 -0.11618300356E+02  0.55680718301E+03  0.58312392332E+03  0.17137870815E+03 0.  0.
        -24    2    3    3    0    0 -0.99875743206E+01 -0.71806881049E+02  0.41322850225E+03  0.42688958717E+03  0.78872965898E+02 0.  0.
          6    2    1    2  501    0  0.22217659368E+02  0.11618300356E+02 -0.22459416437E+03  0.28621885204E+03  0.17564191785E+03 0.  0.
         24    2    5    5    0    0  0.78217518852E+02  0.23799163318E+02 -0.18134309232E+03  0.21426676438E+03  0.79627562808E+02 0.  0.
          5    1    5    5  501    0 -0.55999859484E+02 -0.12180862961E+02 -0.43251072054E+02  0.71952087660E+02  0.47000000000E+01 0. -1.
        -11    1    6    6    0    0  0.34824842606E+02  0.32731266103E+02 -0.29663592840E+02  0.56249748296E+02  0.00000000000E+00 0.  1.
         12    1    6    6    0    0  0.43392676246E+02 -0.89321027846E+01 -0.15167949948E+03  0.15801701609E+03  0.00000000000E+00 0. -1.
         -5    1    3    3    0  503 -0.12230085047E+02  0.60188580692E+02  0.14357868075E+03  0.15623433615E+03  0.47000000000E+01 0.  1.
         13    1    4    4    0    0 -0.22377961773E+01  0.15477099651E+02  0.30707070161E+02  0.34459722912E+02  0.00000000000E+00 0. -1.
        -14    1    4    4    0    0 -0.77497781433E+01 -0.87283980700E+02  0.38252143209E+03  0.39242986425E+03  0.00000000000E+00 0.  1.
</event>
<event>
12    1  0.9873238E-001  0.2171279E+03  0.7818608E-02  0.1136482E+00
         21   -1    0    0  501  502  0.00000000000E+00  0.00000000000E+00  0.12400466921E+04  0.12400466921E+04  0.00000000000E+00 0.  1.
         21   -1    0    0  502  503 -0.00000000000E+00 -0.00000000000E+00 -0.11913740566E+03  0.11913740566E+03  0.00000000000E+00 0.  1.
         -6    2    1    2    0  503 -0.96586113787E+02 -0.87148247565E+02 -0.75910822154E+00  0.21712926626E+03  0.17384144382E+03 0.  0.
        -24    2    3    3    0    0 -0.95747034581E+02 -0.49395348654E+02 -0.59722947441E+02  0.14695227740E+03  0.80129559348E+02 0.  0.
          6    2    1    2  501    0  0.96586113787E+02  0.87148247565E+02  0.11216683946E+04  0.11420548315E+04  0.17095483658E+03 0.  0.
         24    2    5    5    0    0  0.12967985812E+03  0.78324212581E+02  0.83180689486E+03  0.85013902417E+03  0.88781204055E+02 0.  0.
          5    1    5    5  501    0 -0.33093744335E+02  0.88240349839E+01  0.28986149975E+03  0.29191580729E+03  0.47000000000E+01 0. -1.
        -13    1    6    6    0    0  0.39172648586E+02 -0.86226802722E+01  0.10170604734E+03  0.10932962580E+03  0.00000000000E+00 0.  1.
         14    1    6    6    0    0  0.90507209536E+02  0.86946892854E+02  0.73010084752E+03  0.74080939837E+03  0.00000000000E+00 0. -1.
         -5    1    3    3    0  503 -0.83907920658E+00 -0.37752898911E+02  0.58963839220E+02  0.70176988862E+02  0.47000000000E+01 0.  1.
         11    1    4    4    0    0 -0.16854993164E+02 -0.52318940591E+02 -0.19283038954E+02  0.58251162482E+02  0.00000000000E+00 0. -1.
        -12    1    4    4    0    0 -0.78892041417E+02  0.29235919376E+01 -0.40439908487E+02  0.88701114915E+02  0.00000000000E+00 0.  1.
</event>
<event>
12    1  0.9873238E-001  0.2139921E+03  0.7818608E-02  0.1138782E+00
         21   -1    0    0  501  502  0.00000000000E+00  0.00000000000E+00  0.64119257148E+03  0.64119257148E+03  0.00000000000E+00 0. -1.
         21   -1    0    0  502  503 -0.00000000000E+00 -0.00000000000E+00 -0.12770132230E+03  0.12770132230E+03  0.00000000000E+00 0. -1.
         -6    2    1    2    0  503 -0.82360246609E+02 -0.97300088542E+02  0.51387452207E+03  0.55665037229E+03  0.17187814023E+03 0.  0.
        -24    2    3    3    0    0 -0.11607185663E+02 -0.29155794985E+02  0.38473709333E+03  0.39432906784E+03  0.80548095069E+02 0.  0.
          6    2    1    2  501    0  0.82360246609E+02  0.97300088542E+02 -0.38327289637E+00  0.21224352148E+03  0.16969575145E+03 0.  0.
         24    2    5    5    0    0  0.11012379477E+02  0.10935397218E+03 -0.21471684314E+02  0.13672779232E+03  0.78446747740E+02 0.  0.
          5    1    5    5  501    0  0.71347867132E+02 -0.12053883639E+02  0.21088411418E+02  0.75515729164E+02  0.47000000000E+01 0. -1.
        -11    1    6    6    0    0  0.13625860987E+02  0.11987503539E+03 -0.28292205889E+02  0.12391988182E+03  0.00000000000E+00 0.  1.
         12    1    6    6    0    0 -0.26134815095E+01 -0.10521063208E+02  0.68205215747E+01  0.12807910493E+02  0.00000000000E+00 0. -1.
         -5    1    3    3    0  503 -0.70753060946E+02 -0.68144293556E+02  0.12913742874E+03  0.16232130446E+03  0.47000000000E+01 0.  1.
         11    1    4    4    0    0  0.24129928292E+02  0.82821583181E+01  0.22439817892E+03  0.22584372980E+03  0.00000000000E+00 0. -1.
        -12    1    4    4    0    0 -0.35737113955E+02 -0.37437953303E+02  0.16033891441E+03  0.16848533804E+03  0.00000000000E+00 0.  1.
</event>
<event>
12    1  0.9873238E-001  0.2774616E+03  0.7818608E-02  0.1097298E+00
         21   -1    0    0  501  502  0.00000000000E+00  0.00000000000E+00  0.64059801629E+03  0.64059801629E+03  0.00000000000E+00 0.  1.
         21   -1    0    0  502  503 -0.00000000000E+00 -0.00000000000E+00 -0.24492675951E+03  0.24492675951E+03  0.00000000000E+00 0.  1.
         -6    2    1    2    0  503 -0.16986508627E+03 -0.13422867611E+03  0.51494140273E+03  0.58493552105E+03  0.17353221751E+03 0.  0.
        -24    2    3    3    0    0 -0.67668491332E+02 -0.12933519792E+03  0.24368971004E+03  0.29499128342E+03  0.79552274472E+02 0.  0.
          6    2    1    2  501    0  0.16986508627E+03  0.13422867611E+03 -0.11927014595E+03  0.30058925475E+03  0.17104691558E+03 0.  0.
         24    2    5    5    0    0  0.51090322238E+02  0.26326476347E+02  0.35498679154E+01  0.98457676091E+02  0.79862431942E+02 0.  0.
          5    1    5    5  501    0  0.11877476403E+03  0.10790219976E+03 -0.12282001386E+03  0.20213157866E+03  0.47000000000E+01 0. -1.
        -13    1    6    6    0    0  0.37780120895E+02  0.28671339237E+02 -0.34127236454E+02  0.58429885302E+02  0.00000000000E+00 0.  1.
         14    1    6    6    0    0  0.13310201343E+02 -0.23448628897E+01  0.37677104369E+02  0.40027790789E+02  0.00000000000E+00 0. -1.
         -5    1    3    3    0  503 -0.10219659494E+03 -0.48934781840E+01  0.27125169269E+03  0.28994423763E+03  0.47000000000E+01 0.  1.
         13    1    4    4    0    0 -0.77727117121E+02 -0.95113215711E+02  0.22062507439E+03  0.25251426096E+03  0.00000000000E+00 0. -1.
        -14    1    4    4    0    0  0.10058625788E+02 -0.34221982214E+02  0.23064635647E+02  0.42477022458E+02  0.00000000000E+00 0.  1.
</event>
<event>
12    1  0.9873238E-001  0.1746412E+03  0.7818608E-02  0.1173292E+00
         21   -1    0    0  501  502  0.00000000000E+00  0.00000000000E+00  0.69244537102E+03  0.69244537102E+03  0.00000000000E+00 0.  1.
         21   -1    0    0  502  503 -0.00000000000E+00 -0.00000000000E+00 -0.44398644018E+02  0.44398644018E+02  0.00000000000E+00 0.  1.
         -6    2    1    2    0  503 -0.21479426797E+02  0.23547576816E+02  0.28220747956E+03  0.33145787797E+03  0.17090175306E+03 0.  0.
        -24    2    3    3    0    0 -0.26640255565E+02 -0.48215988278E+02  0.19892768482E+03  0.22130227148E+03  0.79799666879E+02 0.  0.
          6    2    1    2  501    0  0.21479426797E+02 -0.23547576816E+02  0.36583924744E+03  0.40538613707E+03  0.17170821474E+03 0.  0.
         24    2    5    5    0    0 -0.40325058771E+02 -0.15451393974E+02  0.11130111529E+03  0.14328483350E+03  0.79232249148E+02 0.  0.
          5    1    5    5  501    0  0.61804485568E+02 -0.80961828412E+01  0.25453813215E+03  0.26210130357E+03  0.47000000000E+01 0. -1.
        -11    1    6    6    0    0 -0.79179798747E+01  0.31482887631E+02  0.49416276378E+02  0.59125586593E+02  0.00000000000E+00 0.  1.
         12    1    6    6    0    0 -0.32407078896E+02 -0.46934281605E+02  0.61884838910E+02  0.84159246904E+02  0.00000000000E+00 0. -1.
         -5    1    3    3    0  503  0.51608287683E+01  0.71763565093E+02  0.83279794738E+02  0.11015560649E+03  0.47000000000E+01 0.  1.
         13    1    4    4    0    0 -0.17543847683E+02  0.20624837667E+02  0.46634225183E+02  0.53925146998E+02  0.00000000000E+00 0. -1.
        -14    1    4    4    0    0 -0.90964078825E+01 -0.68840825945E+02  0.15229345964E+03  0.16737712449E+03  0.00000000000E+00 0.  1.
</event>
<event>
12    1  0.9873238E-001  0.4422732E+03  0.7818608E-02  0.1030056E+00
         21   -1    0    0  501  502  0.00000000000E+00  0.00000000000E+00  0.91269802809E+03  0.91269802809E+03  0.00000000000E+00 0.  1.
         21   -1    0    0  502  503 -0.00000000000E+00 -0.00000000000E+00 -0.23167410108E+03  0.23167410108E+03  0.00000000000E+00 0.  1.
         -6    2    1    2    0  503  0.32479883646E+03 -0.24612953573E+03  0.18379437141E+03  0.47894256870E+03  0.17184755056E+03 0.  0.
        -24    2    3    3    0    0  0.26636413645E+03 -0.19967175800E+03  0.77787596817E+02  0.34920257666E+03  0.71224049284E+02 0.  0.
          6    2    1    2  501    0 -0.32479883646E+03  0.24612953573E+03  0.49722955561E+03  0.66542956047E+03  0.17171265665E+03 0.  0.
         24    2    5    5    0    0 -0.18186229331E+03  0.65076798493E+02  0.27250783346E+03  0.34335365105E+03  0.79513061545E+02 0.  0.
          5    1    5    5  501    0 -0.14293654314E+03  0.18105273723E+03  0.22472172214E+03  0.32207590942E+03  0.47000000000E+01 0. -1.
        -13    1    6    6    0    0 -0.16560249979E+03  0.77800950080E+02  0.26357693591E+03  0.32085818817E+03  0.00000000000E+00 0.  1.
         14    1    6    6    0    0 -0.16259793521E+02 -0.12724151587E+02  0.89308975517E+01  0.22495462877E+02  0.00000000000E+00 0. -1.
         -5    1    3    3    0  503  0.58434700003E+02 -0.46457777731E+02  0.10600677459E+03  0.12973999204E+03  0.47000000000E+01 0.  1.
         13    1    4    4    0    0  0.22256408888E+03 -0.12972266369E+03  0.65038269104E+02  0.26569290465E+03  0.00000000000E+00 0. -1.
        -14    1    4    4    0    0  0.43800047572E+02 -0.69949094304E+02  0.12749327713E+02  0.83509672005E+02  0.00000000000E+00 0.  1.
</event>
<event>
12    1  0.9873238E-001  0.3396182E+03  0.7818608E-02  0.1067149E+00
         21   -1    0    0  503  502  0.00000000000E+00  0.00000000000E+00  0.19694973671E+03  0.19694973671E+03  0.00000000000E+00 0.  1.
         21   -1    0    0  501  503 -0.00000000000E+00 -0.00000000000E+00 -0.72481739984E+03  0.72481739984E+03  0.00000000000E+00 0. -1.
          6    2    1    2  501    0 -0.28121486016E+03  0.76094821499E+02 -0.59200770690E+02  0.34298463673E+03  0.17105996127E+03 0.  0.
         24    2    3    3    0    0 -0.28826390368E+03  0.76892693871E+02 -0.81514944259E+02  0.31910288727E+03  0.78570999679E+02 0.  0.
         -6    2    1    2    0  502  0.28121486016E+03 -0.76094821499E+02 -0.46866689245E+03  0.57878249982E+03  0.17455173042E+03 0.  0.
        -24    2    5    5    0    0  0.85864191701E+02 -0.20799907981E+02 -0.26948200032E+03  0.29432490654E+03  0.78748374730E+02 0.  0.
          5    1    3    3  501    0  0.70490435282E+01 -0.79787237217E+00  0.22314173568E+02  0.23881749455E+02  0.47000000000E+01 0. -1.
        -13    1    4    4    0    0 -0.78961842689E+02  0.48086633474E+02 -0.51146814568E+02  0.10565648849E+03  0.00000000000E+00 0.  1.
         14    1    4    4    0    0 -0.20930206099E+03  0.28806060398E+02 -0.30368129690E+02  0.21344639878E+03  0.00000000000E+00 0. -1.
         -5    1    5    5    0  502  0.19535066845E+03 -0.55294913518E+02 -0.19918489213E+03  0.28445759329E+03  0.47000000000E+01 0.  1.
         13    1    6    6    0    0  0.12261729879E+02 -0.36407416274E+02 -0.55484917290E+02  0.67486487729E+02  0.00000000000E+00 0. -1.
        -14    1    6    6    0    0  0.73602461822E+02  0.15607508293E+02 -0.21399708303E+03  0.22683841881E+03  0.00000000000E+00 0.  1.
</event>
<event>
12    1  0.9873238E-001  0.2459942E+03  0.7818608E-02  0.1116030E+00
         21   -1    0    0  501  502  0.00000000000E+00  0.00000000000E+00  0.11554703309E+03  0.11554703309E+03  0.00000000000E+00 0. -1.
         21   -1    0    0  502  503 -0.00000000000E+00 -0.00000000000E+00 -0.53702045919E+03  0.53702045919E+03  0.00000000000E+00 0. -1.
         -6    2    1    2    0  503  0.87867507442E+01 -0.17532283087E+03 -0.26661751923E+03  0.36276448335E+03  0.17233069026E+03 0.  0.
        -24    2    3    3    0    0 -0.24761985832E+02 -0.28760938441E+02 -0.58179713712E+02  0.10571523747E+03  0.79689929246E+02 0.  0.
          6    2    1    2  501    0 -0.87867507442E+01  0.17532283087E+03 -0.15485590687E+03  0.28980300894E+03  0.17085119281E+03 0.  0.
         24    2    5    5    0    0 -0.53387049533E+02  0.15804763761E+03 -0.81112202188E+02  0.20178117679E+03  0.79418015278E+02 0.  0.
          5    1    5    5  501    0  0.44600298789E+02  0.17275193258E+02 -0.73743704678E+02  0.88021832143E+02  0.47000000000E+01 0. -1.
        -13    1    6    6    0    0 -0.61117982813E+02  0.77295190997E+02 -0.20838000172E+02  0.10071830333E+03  0.00000000000E+00 0.  1.
         14    1    6    6    0    0  0.77309332793E+01  0.80752446616E+02 -0.60274202016E+02  0.10106287346E+03  0.00000000000E+00 0. -1.
         -5    1    3    3    0  503  0.33548736576E+02 -0.14656189243E+03 -0.20843780552E+03  0.25704924588E+03  0.47000000000E+01 0.  1.
         13    1    4    4    0    0 -0.28536766042E+02 -0.35103528584E+02  0.18076398345E+01  0.45275515424E+02  0.00000000000E+00 0. -1.
        -14    1    4    4    0    0  0.37747802100E+01  0.63425901427E+01 -0.59987353546E+02  0.60439722045E+02  0.00000000000E+00 0.  1.
</event>
<event>
12    1  0.9873238E-001  0.3026243E+03  0.7818608E-02  0.1084760E+00
         21   -1    0    0  503  502  0.00000000000E+00  0.00000000000E+00  0.22575552322E+03  0.22575552322E+03  0.00000000000E+00 0. -1.
         21   -1    0    0  501  503 -0.00000000000E+00 -0.00000000000E+00 -0.81196496714E+03  0.81196496714E+03  0.00000000000E+00 0. -1.
          6    2    1    2  501    0  0.20909543458E+03  0.12115683292E+03  0.76286539226E+02  0.31209152937E+03  0.18215819420E+03 0.  0.
         24    2    3    3    0    0  0.77257791292E+02  0.81275870115E+01 -0.18267539878E+02  0.11430543660E+03  0.81836457873E+02 0.  0.
         -6    2    1    2    0  502 -0.20909543458E+03 -0.12115683292E+03 -0.66249598314E+03  0.72562896099E+03  0.17098708261E+03 0.  0.
        -24    2    5    5    0    0 -0.16337276449E+03 -0.14188946157E+03 -0.43296155615E+03  0.49062141297E+03  0.80189664417E+02 0.  0.
          5    1    3    3  501    0  0.13183764329E+03  0.11302924591E+03  0.94554079104E+02  0.19778609277E+03  0.47000000000E+01 0. -1.
        -11    1    4    4    0    0  0.37114295330E+02 -0.19645964850E+02  0.25173200175E+02  0.48960441785E+02  0.00000000000E+00 0.  1.
         12    1    4    4    0    0  0.40143495962E+02  0.27773551862E+02 -0.43440740053E+02  0.65344994815E+02  0.00000000000E+00 0. -1.
         -5    1    5    5    0  502 -0.45722670099E+02  0.20732628650E+02 -0.22953442699E+03  0.23500754802E+03  0.47000000000E+01 0.  1.
         13    1    6    6    0    0 -0.44166211983E+02 -0.82118635603E+01 -0.46409763432E+02  0.64590673676E+02  0.00000000000E+00 0. -1.
        -14    1    6    6    0    0 -0.11920655250E+03 -0.13367759801E+03 -0.38655179272E+03  0.42603073929E+03  0.00000000000E+00 0.  1.
</event>
<event>
12    1  0.9873238E-001  0.2055959E+03  0.7818608E-02  0.1145199E+00
         21   -1    0    0  503  502  0.00000000000E+00  0.00000000000E+00  0.55914964588E+03  0.55914964588E+03  0.00000000000E+00 0.  1.
         21   -1    0    0  501  503 -0.00000000000E+00 -0.00000000000E+00 -0.75445922375E+02  0.75445922375E+02  0.00000000000E+00 0.  1.
          6    2    1    2  501    0 -0.35052708259E+02  0.10674642866E+03  0.23635685284E+03  0.31326385120E+03  0.17218067894E+03 0.  0.
         24    2    3    3    0    0 -0.32698574807E+02  0.13259728356E+03  0.13201476768E+03  0.20563871762E+03  0.78791794609E+02 0.  0.
         -6    2    1    2    0  502  0.35052708259E+02 -0.10674642866E+03  0.24734687067E+03  0.32133171705E+03  0.17161033059E+03 0.  0.
        -24    2    5    5    0    0  0.35517607883E+02 -0.12114202730E+03  0.26111274162E+03  0.30086128483E+03  0.80004735005E+02 0.  0.
          5    1    3    3  501    0 -0.23541334520E+01 -0.25850854905E+02  0.10434208516E+03  0.10762513358E+03  0.47000000000E+01 0. -1.
        -11    1    4    4    0    0 -0.41004209883E+02  0.11155475182E+03  0.13811042636E+03  0.18220948864E+03  0.00000000000E+00 0.  1.
         12    1    4    4    0    0  0.83056350763E+01  0.21042531738E+02 -0.60956586768E+01  0.23429228982E+02  0.00000000000E+00 0. -1.
         -5    1    5    5    0  502 -0.46489962449E+00  0.14395598648E+02 -0.13765870955E+02  0.20470432219E+02  0.47000000000E+01 0.  1.
         11    1    6    6    0    0  0.43995661674E+02 -0.10557495954E+03  0.15150826983E+03  0.18983267936E+03  0.00000000000E+00 0. -1.
        -12    1    6    6    0    0 -0.84780537903E+01 -0.15567067765E+02  0.10960447179E+03  0.11102860547E+03  0.00000000000E+00 0.  1.
</event>
<event>
12    1  0.9873238E-001  0.2123184E+03  0.7818608E-02  0.1139949E+00
         21   -1    0    0  503  502  0.00000000000E+00  0.00000000000E+00  0.72601807258E+03  0.72601807258E+03  0.00000000000E+00 0. -1.
         21   -1    0    0  501  503 -0.00000000000E+00 -0.00000000000E+00 -0.13060839453E+03  0.13060839453E+03  0.00000000000E+00 0. -1.
          6    2    1    2  501    0 -0.27328550783E+02 -0.12235188485E+03  0.60827401422E+03  0.64391870307E+03  0.17005054066E+03 0.  0.
         24    2    3    3    0    0 -0.10405095577E+02 -0.71554779907E+02  0.56179418822E+03  0.57286088555E+03  0.85606843949E+02 0.  0.
         -6    2    1    2    0  502  0.27328550783E+02  0.12235188485E+03 -0.12864336169E+02  0.21270776403E+03  0.17135421885E+03 0.  0.
        -24    2    5    5    0    0  0.20617826678E+02  0.58723923281E+02 -0.67336602048E+02  0.12854798111E+03  0.90093126981E+02 0.  0.
          5    1    3    3  501    0 -0.16923455205E+02 -0.50797104941E+02  0.46479825998E+02  0.71057817524E+02  0.47000000000E+01 0. -1.
        -11    1    4    4    0    0 -0.11941258786E+02 -0.68528252976E+02  0.21341804681E+03  0.22446821116E+03  0.00000000000E+00 0.  1.
         12    1    4    4    0    0  0.15361632084E+01 -0.30265269309E+01  0.34837614142E+03  0.34839267439E+03  0.00000000000E+00 0. -1.
         -5    1    5    5    0  502  0.67107241050E+01  0.63627961567E+02  0.54472265878E+02  0.84159782920E+02  0.47000000000E+01 0.  1.
         11    1    6    6    0    0 -0.45375830903E+01 -0.10735657308E+01  0.19559099176E+02  0.20107226667E+02  0.00000000000E+00 0. -1.
        -12    1    6    6    0    0  0.25155409768E+02  0.59797489012E+02 -0.86895701223E+02  0.10844075444E+03  0.00000000000E+00 0.  1.
</event>
<event>
12    1  0.9873238E-001  0.2427259E+03  0.7818608E-02  0.1118046E+00
         21   -1    0    0  501  502  0.00000000000E+00  0.00000000000E+00  0.16819402110E+03  0.16819402110E+03  0.00000000000E+00 0. -1.
         21   -1    0    0  502  503 -0.00000000000E+00 -0.00000000000E+00 -0.35100165578E+03  0.35100165578E+03  0.00000000000E+00 0. -1.
         -6    2    1    2    0  503  0.16958159244E+03  0.19091669419E+02 -0.76140293139E+02  0.25406591268E+03  0.17213290042E+03 0.  0.
        -24    2    3    3    0    0  0.12646822531E+03  0.61918895171E+02  0.18633672488E+01  0.15507301028E+03  0.64930769183E+02 0.  0.
          6    2    1    2  501    0 -0.16958159244E+03 -0.19091669419E+02 -0.10666734154E+03  0.26512976421E+03  0.17260782654E+03 0.  0.
         24    2    5    5    0    0 -0.12910934417E+03 -0.24446083244E+02 -0.13944407920E+03  0.21256478385E+03  0.92045110536E+02 0.  0.
          5    1    5    5  501    0 -0.40472248274E+02  0.53544138252E+01  0.32776737663E+02  0.52564980354E+02  0.47000000000E+01 0. -1.
        -13    1    6    6    0    0 -0.95640390424E+02 -0.50272204641E+02 -0.62633984899E+02  0.12488953080E+03  0.00000000000E+00 0.  1.
         14    1    6    6    0    0 -0.33468953745E+02  0.25826121396E+02 -0.76810094300E+02  0.87675253051E+02  0.00000000000E+00 0. -1.
         -5    1    3    3    0  503  0.43113367129E+02 -0.42827225752E+02 -0.78003660388E+02  0.98992902396E+02  0.47000000000E+01 0.  1.
         13    1    4    4    0    0  0.18862068973E+02  0.16391526947E+00  0.22435568950E+02  0.29311418735E+02  0.00000000000E+00 0. -1.
        -14    1    4    4    0    0  0.10760615634E+03  0.61754979902E+02 -0.20572201701E+02  0.12576159154E+03  0.00000000000E+00 0.  1.
</event>
<event>
12    1  0.9873238E-001  0.2831326E+03  0.7818608E-02  0.1094108E+00
         21   -1    0    0  501  502  0.00000000000E+00  0.00000000000E+00  0.49848302858E+03  0.49848302858E+03  0.00000000000E+00 0.  1.
         21   -1    0    0  502  503 -0.00000000000E+00 -0.00000000000E+00 -0.29430376058E+03  0.29430376058E+03  0.00000000000E+00 0.  1.
         -6    2    1    2    0  503  0.44841467780E+02  0.21898182397E+03  0.36946114661E+03  0.46494204738E+03  0.17235362515E+03 0.  0.
        -24    2    3    3    0    0 -0.21832966839E+02  0.17473733961E+03  0.20329219835E+03  0.28045013971E+03  0.79465380266E+02 0.  0.
          6    2    1    2  501    0 -0.44841467780E+02 -0.21898182397E+03 -0.16528187861E+03  0.32784474178E+03  0.17378227426E+03 0.  0.
         24    2    5    5    0    0 -0.67050085489E+02 -0.22751144946E+03 -0.12128009728E+03  0.27760308603E+03  0.78086092107E+02 0.  0.
          5    1    5    5  501    0  0.22208617709E+02  0.85296254810E+01 -0.44001781333E+02  0.50241655743E+02  0.47000000000E+01 0. -1.
        -13    1    6    6    0    0  0.38575105369E+01 -0.10719725657E+03 -0.32354443336E+02  0.11203991346E+03  0.00000000000E+00 0.  1.
         14    1    6    6    0    0 -0.70907596025E+02 -0.12031419289E+03 -0.88925653946E+02  0.16556317258E+03  0.00000000000E+00 0. -1.
         -5    1    3    3    0  503  0.66674434618E+02  0.44244484369E+02  0.16616894827E+03  0.18449190767E+03  0.47000000000E+01 0.  1.
         13    1    4    4    0    0  0.13188640399E+02  0.79211936077E+02  0.13767587945E+03  0.15938355886E+03  0.00000000000E+00 0. -1.
        -14    1    4    4    0    0 -0.35021607237E+02  0.95525403529E+02  0.65616318896E+02  0.12106658085E+03  0.00000000000E+00 0.  1.
</event>
<event>
12    1  0.9873238E-001  0.4209558E+03  0.7818608E-02  0.1036805E+00
         21   -1    0    0  503  502  0.00000000000E+00  0.00000000000E+00  0.31451101780E+04  0.31451101780E+04  0.00000000000E+00 0.  1.
         21   -1    0    0  501  503 -0.00000000000E+00 -0.00000000000E+00 -0.57662729415E+02  0.57662729415E+02  0.00000000000E+00 0.  1.
          6    2    1    2  501    0  0.35939475084E+03 -0.13482758181E+03  0.12951773966E+04  0.13618693889E+04  0.17280243021E+03 0.  0.
         24    2    3    3    0    0  0.25280996507E+03 -0.73654660426E+02  0.66185635776E+03  0.71671818867E+03  0.79329920037E+02 0.  0.
         -6    2    1    2    0  502 -0.35939475084E+03  0.13482758181E+03  0.17922700519E+04  0.18409035185E+04  0.17132063989E+03 0.  0.
        -24    2    5    5    0    0 -0.29799699822E+03  0.11965275848E+03  0.11842224995E+04  0.12295575646E+04  0.79434771266E+02 0.  0.
          5    1    3    3  501    0  0.10658478577E+03 -0.61172921386E+02  0.63332103887E+03  0.64515120022E+03  0.47000000000E+01 0. -1.
        -13    1    4    4    0    0  0.28222960582E+02  0.16032754576E+02  0.96435212977E+02  0.10175133918E+03  0.00000000000E+00 0.  1.
         14    1    4    4    0    0  0.22458700449E+03 -0.89687415002E+02  0.56542114479E+03  0.61496684949E+03  0.00000000000E+00 0. -1.
         -5    1    5    5    0  502 -0.61397752627E+02  0.15174823332E+02  0.60804755245E+03  0.61134595388E+03  0.47000000000E+01 0.  1.
         11    1    6    6    0    0 -0.24071657318E+03  0.10100730356E+03  0.10575270444E+04  0.10892705787E+04  0.00000000000E+00 0. -1.
        -12    1    6    6    0    0 -0.57280425038E+02  0.18645454918E+02  0.12669545506E+03  0.14028698590E+03  0.00000000000E+00 0.  1.
</event>
<event>
12    1  0.9873238E-001  0.2743192E+03  0.7818608E-02  0.1098879E+00
         21   -1    0    0  501  502  0.00000000000E+00  0.00000000000E+00  0.57475365367E+02  0.57475365367E+02  0.00000000000E+00 0. -1.
         21   -1    0    0  502  503 -0.00000000000E+00 -0.00000000000E+00 -0.13360597593E+04  0.13360597593E+04  0.00000000000E+00 0. -1.
         -6    2    1    2    0  503  0.16572383556E+03  0.13499572781E+03 -0.74043409807E+03  0.78950139508E+03  0.17141051035E+03 0.  0.
        -24    2    3    3    0    0  0.11446491973E+03  0.74930023228E+02 -0.64948789183E+03  0.66896647173E+03  0.83455931097E+02 0.  0.
          6    2    1    2  501    0 -0.16572383556E+03 -0.13499572781E+03 -0.53815029589E+03  0.60403372961E+03  0.17193827189E+03 0.  0.
         24    2    5    5    0    0 -0.69733662410E+02 -0.13310677104E+03 -0.27618624117E+03  0.32499083422E+03  0.82219257765E+02 0.  0.
          5    1    5    5  501    0 -0.95990173149E+02 -0.18889567635E+01 -0.26196405472E+03  0.27904289538E+03  0.47000000000E+01 0. -1.
        -13    1    6    6    0    0 -0.70834397512E+02 -0.50898157142E+02 -0.11828492864E+03  0.14696754272E+03  0.00000000000E+00 0.  1.
         14    1    6    6    0    0  0.11007351024E+01 -0.82208613902E+02 -0.15790131253E+03  0.17802329150E+03  0.00000000000E+00 0. -1.
         -5    1    3    3    0  503  0.51258915826E+02  0.60065704580E+02 -0.90946206233E+02  0.12053492335E+03  0.47000000000E+01 0.  1.
         13    1    4    4    0    0  0.33066718134E+02  0.60417466141E+02 -0.18998568355E+03  0.20208472980E+03  0.00000000000E+00 0. -1.
        -14    1    4    4    0    0  0.81398201599E+02  0.14512557087E+02 -0.45950220828E+03  0.46688174194E+03  0.00000000000E+00 0.  1.
</event>
<event>
12    1  0.9873238E-001  0.2147649E+03  0.7818608E-02  0.1138597E+00
         21   -1    0    0  503  502  0.00000000000E+00  0.00000000000E+00  0.54395716757E+03  0.54395716757E+03  0.00000000000E+00 0. -1.
         21   -1    0    0  501  503 -0.00000000000E+00 -0.00000000000E+00 -0.15270846501E+03  0.15270846501E+03  0.00000000000E+00 0. -1.
          6    2    1    2  501    0  0.98201595990E+00 -0.12247445986E+03  0.42953054945E+03  0.47851551960E+03  0.17169639459E+03 0.  0.
         24    2    3    3    0    0  0.56965905966E+02 -0.11360687889E+03  0.33245965104E+03  0.36600916755E+03  0.85332606842E+02 0.  0.
         -6    2    1    2    0  502 -0.98201595990E+00  0.12247445986E+03 -0.38281846882E+02  0.21815011298E+03  0.17641715993E+03 0.  0.
        -24    2    5    5    0    0  0.44373533459E+02  0.14587532925E+02  0.44784476734E+01  0.93461510222E+02  0.80828156053E+02 0.  0.
          5    1    3    3  501    0 -0.55983890006E+02 -0.88675809666E+01  0.97070898413E+02  0.11250635205E+03  0.47000000000E+01 0. -1.
        -13    1    4    4    0    0  0.87223583735E+01 -0.10157854187E+03  0.24569381823E+03  0.26600701498E+03  0.00000000000E+00 0.  1.
         14    1    4    4    0    0  0.48243547592E+02 -0.12028337025E+02  0.86765832811E+02  0.10000215257E+03  0.00000000000E+00 0. -1.
         -5    1    5    5    0  502 -0.45355549419E+02  0.10788692694E+03 -0.42760294556E+02  0.12468860276E+03  0.47000000000E+01 0.  1.
         13    1    6    6    0    0  0.57861786307E+02 -0.22054218342E+01 -0.19622462698E+02  0.61138296038E+02  0.00000000000E+00 0. -1.
        -14    1    6    6    0    0 -0.13488252848E+02  0.16792954759E+02  0.24100910371E+02  0.32323214184E+02  0.00000000000E+00 0.  1.
</event>
<event>
12    1  0.9873238E-001  0.2400401E+03  0.7818608E-02  0.1120462E+00
         21   -1    0    0  503  502  0.00000000000E+00  0.00000000000E+00  0.97670809173E+03  0.97670809173E+03  0.00000000000E+00 0.  1.
         21   -1    0    0  501  503 -0.00000000000E+00 -0.00000000000E+00 -0.82108353942E+02  0.82108353942E+02  0.00000000000E+00 0.  1.
          6    2    1    2  501    0  0.28597796181E+02 -0.16136417694E+03  0.73702982045E+03  0.77513366649E+03  0.17539388004E+03 0.  0.
         24    2    3    3    0    0  0.44211642412E+02 -0.17266332597E+02  0.33771205060E+03  0.35029869588E+03  0.80043436013E+02 0.  0.
         -6    2    1    2    0  502 -0.28597796181E+02  0.16136417694E+03  0.15756991734E+03  0.28368277918E+03  0.16968031355E+03 0.  0.
        -24    2    5    5    0    0  0.97096244973E+01  0.26927987680E+02  0.17448970658E+02  0.85701676140E+02  0.78872792444E+02 0.  0.
          5    1    3    3  501    0 -0.15613846231E+02 -0.14409784434E+03  0.39931776984E+03  0.42483497061E+03  0.47000000000E+01 0. -1.
        -13    1    4    4    0    0 -0.15103325625E+02 -0.24660193221E+01  0.13605118300E+02  0.20476594936E+02  0.00000000000E+00 0.  1.
         14    1    4    4    0    0  0.59314968037E+02 -0.14800313275E+02  0.32410693230E+03  0.32982210095E+03  0.00000000000E+00 0. -1.
         -5    1    5    5    0  502 -0.38307420678E+02  0.13443618926E+03  0.14012094668E+03  0.19798110304E+03  0.47000000000E+01 0.  1.
         11    1    6    6    0    0 -0.37210775173E+01  0.42329077565E+02  0.37792432119E+02  0.56867083193E+02  0.00000000000E+00 0. -1.
        -12    1    6    6    0    0  0.13430702015E+02 -0.15401089885E+02 -0.20343461461E+02  0.28834592948E+02  0.00000000000E+00 0.  1.
</event>
<event>
12    1  0.9873238E-001  0.2043115E+03  0.7818608E-02  0.1147642E+00
         21   -1    0    0  503  502  0.00000000000E+00  0.00000000000E+00  0.17903944832E+03  0.17903944832E+03  0.00000000000E+00 0.  1.
         21   -1    0    0  501  503 -0.00000000000E+00 -0.00000000000E+00 -0.22533835952E+03  0.22533835952E+03  0.00000000000E+00 0.  1.
          6    2    1    2  501    0 -0.96216542675E+02  0.18033984273E+02 -0.30274319782E+02  0.20654231871E+03  0.17933306250E+03 0.  0.
         24    2    3    3    0    0 -0.10697965788E+03  0.14374040659E+02 -0.79245761232E+02  0.15604942897E+03  0.80126608343E+02 0.  0.
         -6    2    1    2    0  502  0.96216542675E+02 -0.18033984273E+02 -0.16024591421E+02  0.19783548913E+03  0.17117022392E+03 0.  0.
        -24    2    5    5    0    0  0.43041681514E+01  0.63586842328E+01  0.40391751251E+02  0.87165797763E+02  0.76859768423E+02 0.  0.
          5    1    3    3  501    0  0.10763115203E+02  0.36599436142E+01  0.48971441451E+02  0.50492889736E+02  0.47000000000E+01 0. -1.
        -11    1    4    4    0    0 -0.21556859241E+01 -0.19936467924E+02 -0.27973349838E+02  0.34418280553E+02  0.00000000000E+00 0.  1.
         12    1    4    4    0    0 -0.10482397195E+03  0.34310508583E+02 -0.51272411394E+02  0.12163114842E+03  0.00000000000E+00 0. -1.
         -5    1    5    5    0  502  0.91912374524E+02 -0.24392668506E+02 -0.56416342672E+02  0.11066969137E+03  0.47000000000E+01 0.  1.
         11    1    6    6    0    0  0.55944045010E+01 -0.17315392921E+02  0.55931940582E+02  0.58817532854E+02  0.00000000000E+00 0. -1.
        -12    1    6    6    0    0 -0.12902363495E+01  0.23674077154E+02 -0.15540189331E+02  0.28348264910E+02  0.00000000000E+00 0.  1.
</event>
<event>
12    1  0.9873238E-001  0.2113990E+03  0.7818608E-02  0.1140641E+00
         21   -1    0    0  503  502  0.00000000000E+00  0.00000000000E+00  0.37270409654E+03  0.37270409654E+03  0.00000000000E+00 0.  1.
         21   -1    0    0  501  503 -0.00000000000E+00 -0.00000000000E+00 -0.12187756394E+03  0.12187756394E+03  0.00000000000E+00 0.  1.
          6    2    1    2  501    0  0.68527177093E+02 -0.10086159388E+03  0.16045666032E+03  0.26467676006E+03  0.17157625813E+03 0.  0.
         24    2    3    3    0    0 -0.38929277214E+01 -0.30346353303E+02  0.16834188734E+02  0.88987901333E+02  0.81849866392E+02 0.  0.
         -6    2    1    2    0  502 -0.68527177093E+02  0.10086159388E+03  0.90369872276E+02  0.22990490042E+03  0.17268617287E+03 0.  0.
        -24    2    5    5    0    0 -0.74127237459E+02  0.13100065959E+01  0.30434375872E+02  0.11347366347E+03  0.80333415321E+02 0.  0.
          5    1    3    3  501    0  0.72420104814E+02 -0.70515240580E+02  0.14362247159E+03  0.17568885873E+03  0.47000000000E+01 0. -1.
        -13    1    4    4    0    0 -0.34129805454E+02 -0.12939613335E+02  0.34196902540E+02  0.50017050662E+02  0.00000000000E+00 0.  1.
         14    1    4    4    0    0  0.30236877733E+02 -0.17406739967E+02 -0.17362713806E+02  0.38970850671E+02  0.00000000000E+00 0. -1.
         -5    1    5    5    0  502  0.56000603659E+01  0.99551587287E+02  0.59935496405E+02  0.11643123695E+03  0.47000000000E+01 0.  1.
         11    1    6    6    0    0 -0.28272649116E+02 -0.39040876799E+02  0.12050580504E+02  0.49686509635E+02  0.00000000000E+00 0. -1.
        -12    1    6    6    0    0 -0.45854588343E+02  0.40350883395E+02  0.18383795368E+02  0.63787153840E+02  0.00000000000E+00 0.  1.
</event>
<event>
12    1  0.9873238E-001  0.3186049E+03  0.7818608E-02  0.1076992E+00
         21   -1    0    0  503  502  0.00000000000E+00  0.00000000000E+00  0.45025281720E+03  0.45025281720E+03  0.00000000000E+00 0.  1.
         21   -1    0    0  501  503 -0.00000000000E+00 -0.00000000000E+00 -0.22509797327E+03  0.22509797327E+03  0.00000000000E+00 0.  1.
          6    2    1    2  501    0  0.24586338010E+03  0.10878324487E+03  0.15573823425E+03  0.34927139333E+03  0.15954156999E+03 0.  0.
         24    2    3    3    0    0  0.66908068378E+02  0.62502493413E+01  0.34835399643E+02  0.11015300387E+03  0.80027644984E+02 0.  0.
         -6    2    1    2    0  502 -0.24586338010E+03 -0.10878324487E+03  0.69416609681E+02  0.32607939714E+03  0.17095763072E+03 0.  0.
        -24    2    5    5    0    0 -0.21453937299E+03 -0.14167915752E+03  0.76558755285E+02  0.27985781415E+03  0.79743506876E+02 0.  0.
          5    1    3    3  501    0  0.17895531172E+03  0.10253299553E+03  0.12090283460E+03  0.23911838946E+03  0.47000000000E+01 0. -1.
        -13    1    4    4    0    0  0.27002558652E+02  0.16178325906E+02  0.55746270580E+02  0.64019708579E+02  0.00000000000E+00 0.  1.
         14    1    4    4    0    0  0.39905509726E+02 -0.99280765651E+01 -0.20910870937E+02  0.46133295288E+02  0.00000000000E+00 0. -1.
         -5    1    5    5    0  502 -0.31324007103E+02  0.32895912651E+02 -0.71421456032E+01  0.46221582988E+02  0.47000000000E+01 0.  1.
         13    1    6    6    0    0 -0.13429979321E+03 -0.73587614496E+02  0.61949371242E+01  0.15326430996E+03  0.00000000000E+00 0. -1.
        -14    1    6    6    0    0 -0.80239579789E+02 -0.68091543021E+02  0.70363818160E+02  0.12659350419E+03  0.00000000000E+00 0.  1.
</event>
<event>
12    1  0.9873238E-001  0.2171348E+03  0.7818608E-02  0.1136700E+00
         21   -1    0    0  503  502  0.00000000000E+00  0.00000000000E+00  0.12408305161E+04  0.12408305161E+04  0.00000000000E+00 0.  1.
         21   -1    0    0  501  503 -0.00000000000E+00 -0.00000000000E+00 -0.57899733607E+02  0.57899733607E+02  0.00000000000E+00 0.  1.
          6    2    1    2  501    0  0.12772278534E+03 -0.27439237353E+02  0.20194180271E+03  0.29399800492E+03  0.16908079009E+03 0.  0.
         24    2    3    3    0    0  0.73699637613E+02 -0.20268364863E+02  0.21127956813E+03  0.23850741324E+03  0.80026789666E+02 0.  0.
         -6    2    1    2    0  502 -0.12772278534E+03  0.27439237353E+02  0.98098897975E+03  0.10047322448E+04  0.17344014419E+03 0.  0.
        -24    2    5    5    0    0 -0.10690014103E+03  0.24193554995E+02  0.38239900138E+03  0.40575297201E+03  0.79959425867E+02 0.  0.
          5    1    3    3  501    0  0.54023147723E+02 -0.71708724902E+01 -0.93377654167E+01  0.55490591682E+02  0.47000000000E+01 0. -1.
        -11    1    4    4    0    0  0.37190983135E+02  0.25398292134E+02  0.51755322942E+02  0.68606529738E+02  0.00000000000E+00 0.  1.
         12    1    4    4    0    0  0.36508654478E+02 -0.45666656996E+02  0.15952424519E+03  0.16990088351E+03  0.00000000000E+00 0. -1.
         -5    1    5    5    0  502 -0.20822644311E+02  0.32456823585E+01  0.59858997837E+03  0.59897927274E+03  0.47000000000E+01 0.  1.
         13    1    6    6    0    0 -0.24682360884E+02 -0.19645628022E+02  0.40224230942E+02  0.51119060966E+02  0.00000000000E+00 0. -1.
        -14    1    6    6    0    0 -0.82217780142E+02  0.43839183016E+02  0.34217477044E+03  0.35463391105E+03  0.00000000000E+00 0.  1.
</event>
<event>
12    1  0.9873238E-001  0.2729358E+03  0.7818608E-02  0.1101263E+00
         21   -1    0    0  503  502  0.00000000000E+00  0.00000000000E+00  0.16824693467E+03  0.16824693467E+03  0.00000000000E+00 0.  1.
         21   -1    0    0  501  503 -0.00000000000E+00 -0.00000000000E+00 -0.56587879403E+03  0.56587879403E+03  0.00000000000E+00 0.  1.
          6    2    1    2  501    0  0.26811305130E+02  0.20799437949E+03 -0.38551282838E+03  0.47234956620E+03  0.17468103463E+03 0.  0.
         24    2    3    3    0    0 -0.33474787721E+02  0.16134364035E+03 -0.19462418531E+03  0.26674978871E+03  0.78259469527E+02 0.  0.
         -6    2    1    2    0  502 -0.26811305130E+02 -0.20799437949E+03 -0.12119030985E+02  0.26177616250E+03  0.15620301008E+03 0.  0.
        -24    2    5    5    0    0 -0.60485983702E+02 -0.78357911896E+02  0.47181603593E+01  0.12670144717E+03  0.78946051818E+02 0.  0.
          5    1    3    3  501    0  0.60286092851E+02  0.46650739138E+02 -0.19088864307E+03  0.20559977749E+03  0.47000000000E+01 0. -1.
        -13    1    4    4    0    0 -0.27821635616E+02  0.10717741899E+03 -0.17831763413E+03  0.20990050308E+03  0.00000000000E+00 0.  1.
         14    1    4    4    0    0 -0.56531521047E+01  0.54166221360E+02 -0.16306551184E+02  0.56849285630E+02  0.00000000000E+00 0. -1.
         -5    1    5    5    0  502  0.33674678572E+02 -0.12963646760E+03 -0.16837191344E+02  0.13507471532E+03  0.47000000000E+01 0.  1.
         13    1    6    6    0    0 -0.63970418341E+01 -0.57652720323E+02  0.27838298756E+02  0.64340727246E+02  0.00000000000E+00 0. -1.
        -14    1    6    6    0    0 -0.54088941868E+02 -0.20705191573E+02 -0.23120138397E+02  0.62360719928E+02  0.00000000000E+00 0.  1.
</event>
<event>
12    1  0.9873238E-001  0.4053415E+03  0.7818608E-02  0.1041997E+00
         21   -1    0    0  503  502  0.00000000000E+00  0.00000000000E+00  0.17387380983E+03  0.17387380983E+03  0.00000000000E+00 0.  1.
         21   -1    0    0  501  503 -0.00000000000E+00 -0.00000000000E+00 -0.13047967951E+04  0.13047967951E+04  0.00000000000E+00 0.  1.
          6    2    1    2  501    0  0.27077773762E+03  0.24675095532E+03 -0.17674599458E+03  0.44220006304E+03  0.17347948587E+03 0.  0.
         24    2    3    3    0    0  0.62297310632E+02  0.44787082449E+02 -0.78753208294E+02  0.13580461506E+03  0.79711906194E+02 0.  0.
         -6    2    1    2    0  502 -0.27077773762E+03 -0.24675095532E+03 -0.95417699065E+03  0.10364705418E+04  0.17207799826E+03 0.  0.
        -24    2    5    5    0    0 -0.27934448676E+03 -0.21029141019E+03 -0.78348733087E+03  0.86165710536E+03  0.79653939556E+02 0.  0.
          5    1    3    3  501    0  0.20848042698E+03  0.20196387287E+03 -0.97992786282E+02  0.30639544798E+03  0.47000000000E+01 0. -1.
        -13    1    4    4    0    0  0.43434034442E+02  0.32960428065E+02 -0.94105786992E+02  0.10876030669E+03  0.00000000000E+00 0.  1.
         14    1    4    4    0    0  0.18863276190E+02  0.11826654384E+02  0.15352578698E+02  0.27044308370E+02  0.00000000000E+00 0. -1.
         -5    1    5    5    0  502  0.85667491493E+01 -0.36459545129E+02 -0.17068965978E+03  0.17481343649E+03  0.47000000000E+01 0.  1.
         11    1    6    6    0    0 -0.13609017486E+03 -0.55172701099E+02 -0.34637703080E+03  0.37622016175E+03  0.00000000000E+00 0. -1.
        -12    1    6    6    0    0 -0.14325431190E+03 -0.15511870910E+03 -0.43711030007E+03  0.48543694361E+03  0.00000000000E+00 0.  1.
</event>
<event>
12    1  0.9873238E-001  0.1955776E+03  0.7818608E-02  0.1155244E+00
         21   -1    0    0  503  502  0.00000000000E+00  0.00000000000E+00  0.23299506268E+03  0.23299506268E+03  0.00000000000E+00 0. -1.
         21   -1    0    0  501  503 -0.00000000000E+00 -0.00000000000E+00 -0.21033187204E+03  0.21033187204E+03  0.00000000000E+00 0. -1.
          6    2    1    2  501    0 -0.46663679417E+02 -0.57040972763E+02 -0.99329848079E+02  0.21935591878E+03  0.18116133372E+03 0.  0.
         24    2    3    3    0    0 -0.60526661914E+02 -0.45845226685E+02 -0.13753715059E+03  0.17693640701E+03  0.81392645383E+02 0.  0.
         -6    2    1    2    0  502  0.46663679417E+02  0.57040972763E+02  0.12199303871E+03  0.22397101594E+03  0.17277020268E+03 0.  0.
        -24    2    5    5    0    0  0.40996341555E+02 -0.28138006854E+02  0.29833304212E+02  0.98260698340E+02  0.79326485788E+02 0.  0.
          5    1    3    3  501    0  0.13862982497E+02 -0.11195746078E+02  0.38207302507E+02  0.42419511770E+02  0.47000000000E+01 0. -1.
        -13    1    4    4    0    0  0.11085595137E+02 -0.11977504839E+02 -0.72872460005E+02  0.74677616920E+02  0.00000000000E+00 0.  1.
         14    1    4    4    0    0 -0.71612257051E+02 -0.33867721846E+02 -0.64664690581E+02  0.10225879009E+03  0.00000000000E+00 0. -1.
         -5    1    5    5    0  502  0.56673378617E+01  0.85178979617E+02  0.92159734502E+02  0.12571031760E+03  0.47000000000E+01 0.  1.
         11    1    6    6    0    0  0.25029313948E+02 -0.54319160242E+02  0.73981175078E+01  0.60264167370E+02  0.00000000000E+00 0. -1.
        -12    1    6    6    0    0  0.15967027607E+02  0.26181153388E+02  0.22435186704E+02  0.37996530970E+02  0.00000000000E+00 0.  1.
</event>
<event>
12    1  0.9873238E-001  0.3542097E+03  0.7818608E-02  0.1061083E+00
         21   -1    0    0  501  502  0.00000000000E+00  0.00000000000E+00  0.39448902286E+03  0.39448902286E+03  0.00000000000E+00 0. -1.
         21   -1    0    0  502  503 -0.00000000000E+00 -0.00000000000E+00 -0.33585210264E+03  0.33585210264E+03  0.00000000000E+00 0.  1.
         -6    2    1    2    0  503  0.29699619648E+03 -0.82067119387E+02  0.11721759611E+03  0.37310119847E+03  0.17470771777E+03 0.  0.
        -24    2    3    3    0    0  0.19632892550E+03 -0.12187586539E+03  0.80722669604E+02  0.25876570369E+03  0.83933107075E+02 0.  0.
          6    2    1    2  501    0 -0.29699619648E+03  0.82067119387E+02 -0.58580675888E+02  0.35723992703E+03  0.17101730050E+03 0.  0.
         24    2    5    5    0    0 -0.25444361062E+03  0.12252469870E+03 -0.49578809825E+02  0.29765249648E+03  0.79906805104E+02 0.  0.
          5    1    5    5  501    0 -0.42552585864E+02 -0.40457579309E+02 -0.90018660631E+01  0.59587430553E+02  0.47000000000E+01 0. -1.
        -13    1    6    6    0    0 -0.10117312649E+03  0.44208759101E+02 -0.59169869804E+02  0.12526567525E+03  0.00000000000E+00 0.  1.
         14    1    6    6    0    0 -0.15327048413E+03  0.78315939594E+02  0.95910599791E+01  0.17238682123E+03  0.00000000000E+00 0. -1.
         -5    1    3    3    0  503  0.10066727098E+03  0.39808746005E+02  0.36494926510E+02  0.11433549478E+03  0.47000000000E+01 0.  1.
         11    1    4    4    0    0  0.22253232761E+02 -0.39630635867E+02  0.43019519817E+02  0.62581728586E+02  0.00000000000E+00 0. -1.
        -12    1    4    4    0    0  0.17407569274E+03 -0.82245229526E+02  0.37703149786E+02  0.19618397510E+03  0.00000000000E+00 0.  1.
</event>
<event>
12    1  0.9873238E-001  0.2373202E+03  0.7818608E-02  0.1122140E+00
         21   -1    0    0  501  502  0.00000000000E+00  0.00000000000E+00  0.11473640232E+03  0.11473640232E+03  0.00000000000E+00 0.  1.
         21   -1    0    0  502  503 -0.00000000000E+00 -0.00000000000E+00 -0.48776829281E+03  0.48776829281E+03  0.00000000000E+00 0.  1.
         -6    2    1    2    0  503  0.83688428870E+02 -0.13620653296E+03 -0.21091229192E+03  0.31509618640E+03  0.17101356394E+03 0.  0.
        -24    2    3    3    0    0  0.74860177083E+02 -0.13737199109E+03 -0.23249212116E+03  0.29128284240E+03  0.79485834149E+02 0.  0.
          6    2    1    2  501    0 -0.83688428870E+02  0.13620653296E+03 -0.16211959857E+03  0.28740850873E+03  0.17539929846E+03 0.  0.
         24    2    5    5    0    0  0.15966905837E+02  0.53314251521E+02 -0.29345368782E+02  0.10179223209E+03  0.80019724740E+02 0.  0.
          5    1    5    5  501    0 -0.99655334707E+02  0.82892281436E+02 -0.13277422979E+03  0.18561627664E+03  0.47000000000E+01 0. -1.
        -11    1    6    6    0    0  0.44664537203E+02  0.10956139980E+02 -0.17996929354E+02  0.49384687434E+02  0.00000000000E+00 0.  1.
         12    1    6    6    0    0 -0.28697631365E+02  0.42358111541E+02 -0.11348439428E+02  0.52407544655E+02  0.00000000000E+00 0. -1.
         -5    1    3    3    0  503  0.88282517866E+01  0.11654581285E+01  0.21579829238E+02  0.23813343994E+02  0.47000000000E+01 0.  1.
         11    1    4    4    0    0  0.44085879763E+02 -0.89671824591E+02 -0.78217184089E+02  0.12689573991E+03  0.00000000000E+00 0. -1.
        -12    1    4    4    0    0  0.30774297320E+02 -0.47700166494E+02 -0.15427493707E+03  0.16438710250E+03  0.00000000000E+00 0.  1.
</event>
<event>
12    1  0.9873238E-001  0.1918122E+03  0.7818608E-02  0.1156946E+00
         21   -1    0    0  501  502  0.00000000000E+00  0.00000000000E+00  0.77270725862E+03  0.77270725862E+03  0.00000000000E+00 0.  1.
         21   -1    0    0  502  503 -0.00000000000E+00 -0.00000000000E+00 -0.49300444942E+02  0.49300444942E+02  0.00000000000E+00 0.  1.
         -6    2    1    2    0  503  0.76782592677E+02  0.38395909192E+02  0.28345437156E+03  0.34225472395E+03  0.17152872332E+03 0.  0.
        -24    2    3    3    0    0  0.33502675802E+02  0.19480072201E+02  0.28037736655E+03  0.29468879019E+03  0.82025074800E+02 0.  0.
          6    2    1    2  501    0 -0.76782592677E+02 -0.38395909192E+02  0.43995244212E+03  0.47975297962E+03  0.17098233168E+03 0.  0.
         24    2    5    5    0    0  0.20357587535E+02 -0.66786231609E+01  0.24635482102E+03  0.26079104288E+03  0.82838607126E+02 0.  0.
          5    1    5    5  501    0 -0.97140180212E+02 -0.31717286031E+02  0.19359762110E+03  0.21896193674E+03  0.47000000000E+01 0. -1.
        -13    1    6    6    0    0 -0.16434938138E+02 -0.20250728898E+02  0.25478165678E+02  0.36460062244E+02  0.00000000000E+00 0.  1.
         14    1    6    6    0    0  0.36792525673E+02  0.13572105737E+02  0.22087665534E+03  0.22433098064E+03  0.00000000000E+00 0. -1.
         -5    1    3    3    0  503  0.43279916875E+02  0.18915836991E+02  0.30770050178E+01  0.47565933752E+02  0.47000000000E+01 0.  1.
         13    1    4    4    0    0 -0.13798386819E+01  0.88858978637E+01 -0.26095063654E+01  0.93633679359E+01  0.00000000000E+00 0. -1.
        -14    1    4    4    0    0  0.34882514484E+02  0.10594174337E+02  0.28298687291E+03  0.28532542226E+03  0.00000000000E+00 0.  1.
</event>
<event>
12    1  0.9873238E-001  0.1896255E+03  0.7818608E-02  0.1158922E+00
         21   -1    0    0  503  502  0.00000000000E+00  0.00000000000E+00  0.43988334239E+03  0.43988334239E+03  0.00000000000E+00 0.  1.
         21   -1    0    0  501  503 -0.00000000000E+00 -0.00000000000E+00 -0.83692507580E+02  0.83692507580E+02  0.00000000000E+00 0.  1.
          6    2    1    2  501    0  0.72435971607E+02 -0.34090546477E+02  0.13607085124E+03  0.23339477655E+03  0.17189738166E+03 0.  0.
         24    2    3    3    0    0  0.32161941228E+02  0.13440878397E+02  0.34511458329E+01  0.86795628747E+02  0.79413620282E+02 0.  0.
         -6    2    1    2    0  502 -0.72435971607E+02  0.34090546477E+02  0.22011998357E+03  0.29018107342E+03  0.17129831542E+03 0.  0.
        -24    2    5    5    0    0 -0.19792343012E+02  0.31993700491E+02  0.27461361193E+02  0.90393228019E+02  0.77469191297E+02 0.  0.
          5    1    3    3  501    0  0.40274030379E+02 -0.47531424875E+02  0.13261970541E+03  0.14659914780E+03  0.47000000000E+01 0. -1.
        -13    1    4    4    0    0 -0.15241361269E+02 -0.22841758646E+01 -0.24961470704E+02  0.29335841089E+02  0.00000000000E+00 0.  1.
         14    1    4    4    0    0  0.47403302497E+02  0.15725054262E+02  0.28412616537E+02  0.57459787658E+02  0.00000000000E+00 0. -1.
         -5    1    5    5    0  502 -0.52643628596E+02  0.20968459867E+01  0.19265862238E+03  0.19978784541E+03  0.47000000000E+01 0.  1.
         13    1    6    6    0    0 -0.43089191995E+02  0.11040683848E+02  0.36764651337E+02  0.57708012914E+02  0.00000000000E+00 0. -1.
        -14    1    6    6    0    0  0.23296848983E+02  0.20953016642E+02 -0.93032901440E+01  0.32685215105E+02  0.00000000000E+00 0.  1.
</event>
<event>
12    1  0.9873238E-001  0.1993193E+03  0.7818608E-02  0.1152645E+00
         21   -1    0    0  501  502  0.00000000000E+00  0.00000000000E+00  0.11366033084E+03  0.11366033084E+03  0.00000000000E+00 0.  1.
         21   -1    0    0  502  503 -0.00000000000E+00 -0.00000000000E+00 -0.42159962886E+03  0.42159962886E+03  0.00000000000E+00 0.  1.
         -6    2    1    2    0  503 -0.53445767860E+02  0.53278216585E+02 -0.26653752445E+02  0.19051403509E+03  0.17288769933E+03 0.  0.
        -24    2    3    3    0    0  0.32775279714E+02  0.23579656887E+02 -0.39352277822E+02  0.98321757537E+02  0.80550276574E+02 0.  0.
          6    2    1    2  501    0  0.53445767860E+02 -0.53278216585E+02 -0.28128554558E+03  0.34474592461E+03  0.18448082805E+03 0.  0.
         24    2    5    5    0    0  0.11099665233E+02  0.25141318791E+01 -0.53627182132E+02  0.10650990928E+03  0.91317920931E+02 0.  0.
          5    1    5    5  501    0  0.42346102626E+02 -0.55792348464E+02 -0.22765836344E+03  0.23823601533E+03  0.47000000000E+01 0. -1.
        -13    1    6    6    0    0  0.44284817031E+02  0.10774267586E+02 -0.33432794975E+01  0.45699096044E+02  0.00000000000E+00 0.  1.
         14    1    6    6    0    0 -0.33185151798E+02 -0.82601357071E+01 -0.50283902634E+02  0.60810813232E+02  0.00000000000E+00 0. -1.
         -5    1    3    3    0  503 -0.86221047574E+02  0.29698559698E+02  0.12698525377E+02  0.92192277549E+02  0.47000000000E+01 0.  1.
         13    1    4    4    0    0  0.19214074940E+02  0.48551295994E+02 -0.31650833416E+01  0.52310866663E+02  0.00000000000E+00 0. -1.
        -14    1    4    4    0    0  0.13561204774E+02 -0.24971639107E+02 -0.36187194481E+02  0.46010890874E+02  0.00000000000E+00 0.  1.
</event>
<event>
12    1  0.1390685E+000  0.2124019E+03  0.7818608E-02  0.1140028E+00
         21   -1    0    0  501  502  0.00000000000E+00  0.00000000000E+00  0.17204308147E+03  0.17204308147E+03  0.00000000000E+00 0.  1.
         21   -1    0    0  502  503 -0.00000000000E+00 -0.00000000000E+00 -0.67172373348E+03  0.67172373348E+03  0.00000000000E+00 0.  1.
         -6    2    1    2    0  503 -0.10535407544E+03  0.64012904582E+02  0.80032358070E+02  0.22697962201E+03  0.17296657857E+03 0.  0.
        -24    2    3    3    0    0 -0.12691821618E+03  0.15455619877E+02  0.76193622048E+02  0.17350394569E+03  0.89168611871E+02 0.  0.
          6    2    1    2  501    0  0.10535407544E+03 -0.64012904582E+02 -0.57971301008E+03  0.61678719295E+03  0.17076924245E+03 0.  0.
         24    2    5    5    0    0  0.62001019681E+02  0.25841793077E+02 -0.37054912198E+03  0.38500070452E+03  0.80043525452E+02 0.  0.
          5    1    5    5  501    0  0.43353055763E+02 -0.89854697659E+02 -0.20916388809E+03  0.23178648843E+03  0.47000000000E+01 0. -1.
        -13    1    6    6    0    0  0.28645635138E+02  0.25898463961E+02 -0.52320379325E+02  0.65028647078E+02  0.00000000000E+00 0.  1.
         14    1    6    6    0    0  0.33355384543E+02 -0.56670884366E-01 -0.31822874266E+03  0.31997205744E+03  0.00000000000E+00 0. -1.
         -5    1    3    3    0  503  0.21564140740E+02  0.48557284705E+02  0.38387360217E+01  0.53475676321E+02  0.47000000000E+01 0.  1.
         13    1    4    4    0    0 -0.63158175741E+02  0.47039550074E+02  0.63640556352E+02  0.10125114739E+03  0.00000000000E+00 0. -1.
        -14    1    4    4    0    0 -0.63760040443E+02 -0.31583930197E+02  0.12553065696E+02  0.72252798301E+02  0.00000000000E+00 0.  1.
</event>
<event>
12    1  0.9873238E-001  0.4963811E+03  0.7818608E-02  0.1014728E+00
         21   -1    0    0  501  502  0.00000000000E+00  0.00000000000E+00  0.33308013490E+03  0.33308013490E+03  0.00000000000E+00 0.  1.
         21   -1    0    0  502  503 -0.00000000000E+00 -0.00000000000E+00 -0.79660321026E+03  0.79660321026E+03  0.00000000000E+00 0.  1.
         -6    2    1    2    0  503  0.39452292509E+03 -0.24717529349E+03 -0.80843685702E+02  0.50291567548E+03  0.17217581419E+03 0.  0.
        -24    2    3    3    0    0  0.26146102056E+03 -0.20160233874E+03 -0.11300937391E+03  0.35855818125E+03  0.82386179006E+02 0.  0.
          6    2    1    2  501    0 -0.39452292509E+03  0.24717529349E+03 -0.38267938965E+03  0.62676766968E+03  0.17219242830E+03 0.  0.
         24    2    5    5    0    0 -0.97896293871E+02  0.40940797836E+02 -0.12935822765E+03  0.18550388614E+03  0.80114339748E+02 0.  0.
          5    1    5    5  501    0 -0.29662663122E+03  0.20623449565E+03 -0.25332116200E+03  0.44126378354E+03  0.47000000000E+01 0. -1.
        -11    1    6    6    0    0 -0.44514905693E+02 -0.21932483564E+02 -0.38615494182E+02  0.62878987389E+02  0.00000000000E+00 0.  1.
         12    1    6    6    0    0 -0.53381388178E+02  0.62873281400E+02 -0.90742733465E+02  0.12262489875E+03  0.00000000000E+00 0. -1.
         -5    1    3    3    0  503  0.13306190453E+03 -0.45572954741E+02  0.32165688213E+02  0.14435749422E+03  0.47000000000E+01 0.  1.
         13    1    4    4    0    0  0.14910324735E+03 -0.76403277759E+02 -0.27264323073E+02  0.16974269509E+03  0.00000000000E+00 0. -1.
        -14    1    4    4    0    0  0.11235777321E+03 -0.12519906099E+03 -0.85745050842E+02  0.18881548617E+03  0.00000000000E+00 0.  1.
</event>
<event>
12    1  0.9873238E-001  0.2022870E+03  0.7818608E-02  0.1147956E+00
         21   -1    0    0  501  502  0.00000000000E+00  0.00000000000E+00  0.14447625726E+04  0.14447625726E+04  0.00000000000E+00 0. -1.
         21   -1    0    0  502  503 -0.00000000000E+00 -0.00000000000E+00 -0.78392921255E+02  0.78392921255E+02  0.00000000000E+00 0. -1.
         -6    2    1    2    0  503  0.57149547427E+02  0.89010716795E+02  0.73611805671E+02  0.21466671982E+03  0.17168029645E+03 0.  0.
        -24    2    3    3    0    0  0.34138273249E+02  0.55391631755E+02  0.11629160043E+03  0.15547705435E+03  0.80098211775E+02 0.  0.
          6    2    1    2  501    0 -0.57149547427E+02 -0.89010716795E+02  0.12927578457E+04  0.13084887741E+04  0.17242692870E+03 0.  0.
         24    2    5    5    0    0  0.39428680628E+02 -0.13410537229E+01  0.46300146508E+03  0.46852980771E+03  0.59945014567E+02 0.  0.
          5    1    5    5  501    0 -0.96578228055E+02 -0.87669663072E+02  0.82975638064E+03  0.83995896637E+03  0.47000000000E+01 0. -1.
        -13    1    6    6    0    0 -0.74630122064E+01 -0.18695378767E+02  0.92160356339E+02  0.94333159700E+02  0.00000000000E+00 0.  1.
         14    1    6    6    0    0  0.46891692834E+02  0.17354325044E+02  0.37084110874E+03  0.37419664801E+03  0.00000000000E+00 0. -1.
         -5    1    3    3    0  503  0.23011274178E+02  0.33619085040E+02 -0.42679794761E+02  0.59189665475E+02  0.47000000000E+01 0.  1.
         11    1    4    4    0    0 -0.10392478570E+02  0.49750771076E+02  0.32231209937E+02  0.60183001981E+02  0.00000000000E+00 0. -1.
        -12    1    4    4    0    0  0.44530751819E+02  0.56408606789E+01  0.84060390495E+02  0.95294052369E+02  0.00000000000E+00 0.  1.
</event>
<event>
12    1  0.9873238E-001  0.1933733E+03  0.7818608E-02  0.1156847E+00
         21   -1    0    0  503  502  0.00000000000E+00  0.00000000000E+00  0.22991003125E+03  0.22991003125E+03  0.00000000000E+00 0. -1.
         21   -1    0    0  501  503 -0.00000000000E+00 -0.00000000000E+00 -0.32497184187E+03  0.32497184187E+03  0.00000000000E+00 0. -1.
          6    2    1    2  501    0  0.57669170727E+02  0.52870309992E+02  0.15202462970E+03  0.24112250963E+03  0.17002227409E+03 0.  0.
         24    2    3    3    0    0  0.94978127342E+02  0.41475215094E+02  0.64992852966E+02  0.14563205674E+03  0.79016370926E+02 0.  0.
         -6    2    1    2    0  502 -0.57669170727E+02 -0.52870309992E+02 -0.24708644032E+03  0.31375936349E+03  0.17683954946E+03 0.  0.
        -24    2    5    5    0    0 -0.10375635285E+02  0.11650078512E+02 -0.40807233707E+02  0.92461464470E+02  0.81489348704E+02 0.  0.
          5    1    3    3  501    0 -0.37308956615E+02  0.11395094898E+02  0.87031776735E+02  0.95490452890E+02  0.47000000000E+01 0. -1.
        -11    1    4    4    0    0  0.48591507310E+02  0.20249283321E+02 -0.11314291448E+02  0.53844045619E+02  0.00000000000E+00 0.  1.
         12    1    4    4    0    0  0.46386620032E+02  0.21225931772E+02  0.76307144413E+02  0.91788011124E+02  0.00000000000E+00 0. -1.
         -5    1    5    5    0  502 -0.47293535442E+02 -0.64520388503E+02 -0.20627920662E+03  0.22129789902E+03  0.47000000000E+01 0.  1.
         13    1    6    6    0    0 -0.32837665199E+01  0.24916972658E+02 -0.61754101111E+02  0.66672390486E+02  0.00000000000E+00 0. -1.
        -14    1    6    6    0    0 -0.70918687647E+01 -0.13266894147E+02  0.20946867405E+02  0.25789073984E+02  0.00000000000E+00 0.  1.
</event>
<event>
12    1  0.9873238E-001  0.6422798E+03  0.7818608E-02  0.9821970E-01
         21   -1    0    0  501  502  0.00000000000E+00  0.00000000000E+00  0.11268789908E+04  0.11268789908E+04  0.00000000000E+00 0. -1.
         21   -1    0    0  502  503 -0.00000000000E+00 -0.00000000000E+00 -0.38384763138E+03  0.38384763138E+03  0.00000000000E+00 0.  1.
         -6    2    1    2    0  503 -0.56284020021E+03  0.25448981913E+03  0.20610453914E+03  0.67453867664E+03  0.17598064161E+03 0.  0.
        -24    2    3    3    0    0 -0.48992820377E+03  0.16514775776E+03  0.13969766911E+03  0.54138415911E+03  0.79233466605E+02 0.  0.
          6    2    1    2  501    0  0.56284020021E+03 -0.25448981913E+03  0.53692682031E+03  0.83618794556E+03  0.17136426383E+03 0.  0.
         24    2    5    5    0    0  0.19553366320E+03 -0.36702894120E+02  0.19049457752E+03  0.28629465984E+03  0.78076451680E+02 0.  0.
          5    1    5    5  501    0  0.36730653701E+03 -0.21778692501E+03  0.34643224279E+03  0.54989328572E+03  0.47000000000E+01 0. -1.
        -13    1    6    6    0    0  0.36483069402E+02 -0.34194592631E+02  0.73229124762E+02  0.88672370170E+02  0.00000000000E+00 0.  1.
         14    1    6    6    0    0  0.15905059379E+03 -0.25083014886E+01  0.11726545276E+03  0.19762228967E+03  0.00000000000E+00 0. -1.
         -5    1    3    3    0  503 -0.72911996436E+02  0.89342061366E+02  0.66406870023E+02  0.13315451753E+03  0.47000000000E+01 0.  1.
         13    1    4    4    0    0 -0.27630350505E+03  0.66464103688E+02  0.10766977712E+03  0.30389781981E+03  0.00000000000E+00 0. -1.
        -14    1    4    4    0    0 -0.21362469872E+03  0.98683654074E+02  0.32027891994E+02  0.23748633929E+03  0.00000000000E+00 0.  1.
</event>
<event>
12    1  0.9873238E-001  0.1861196E+03  0.7818608E-02  0.1162052E+00
         21   -1    0    0  501  502  0.00000000000E+00  0.00000000000E+00  0.16629599724E+03  0.16629599724E+03  0.00000000000E+00 0. -1.
         21   -1    0    0  502  503 -0.00000000000E+00 -0.00000000000E+00 -0.21817715578E+03  0.21817715578E+03  0.00000000000E+00 0. -1.
         -6    2    1    2    0  503  0.59109303882E+02  0.41652530430E+02  0.15389287566E+02  0.18656956347E+03  0.17129661043E+03 0.  0.
        -24    2    3    3    0    0  0.38664068010E+02  0.84247377273E+02 -0.23595601153E+02  0.12513471835E+03  0.80680943283E+02 0.  0.
          6    2    1    2  501    0 -0.59109303882E+02 -0.41652530430E+02 -0.67270446108E+02  0.19790358955E+03  0.17149832285E+03 0.  0.
         24    2    5    5    0    0 -0.66535541774E+02  0.27805873432E+02 -0.11164570947E+02  0.10818414849E+03  0.79868751236E+02 0.  0.
          5    1    5    5  501    0  0.74262378926E+01 -0.69458403863E+02 -0.56105875161E+02  0.89719441059E+02  0.47000000000E+01 0. -1.
        -13    1    6    6    0    0 -0.33533849229E+02 -0.12097873122E+02  0.26273847319E+02  0.44285354589E+02  0.00000000000E+00 0.  1.
         14    1    6    6    0    0 -0.33001692546E+02  0.39903746554E+02 -0.37438418266E+02  0.63898793903E+02  0.00000000000E+00 0. -1.
         -5    1    3    3    0  503  0.20445235872E+02 -0.42594846843E+02  0.38984888720E+02  0.61434845128E+02  0.47000000000E+01 0.  1.
         13    1    4    4    0    0 -0.41960464651E+01 -0.14559983844E+02 -0.19376673764E+01  0.15275944826E+02  0.00000000000E+00 0. -1.
        -14    1    4    4    0    0  0.42860114475E+02  0.98807361117E+02 -0.21657933777E+02  0.10985877352E+03  0.00000000000E+00 0.  1.
</event>
<event>
12    1  0.9873238E-001  0.2489635E+03  0.7818608E-02  0.1115332E+00
         21   -1    0    0  501  502  0.00000000000E+00  0.00000000000E+00  0.30502567082E+03  0.30502567082E+03  0.00000000000E+00 0. -1.
         21   -1    0    0  502  503 -0.00000000000E+00 -0.00000000000E+00 -0.20507701576E+03  0.20507701576E+03  0.00000000000E+00 0. -1.
         -6    2    1    2    0  503  0.14540110195E+03 -0.10850771778E+03  0.10175077624E+03  0.26113269538E+03  0.15786595221E+03 0.  0.
        -24    2    3    3    0    0  0.94678728982E+02 -0.12007628656E+02  0.85301493410E+02  0.15078010037E+03  0.79687194844E+02 0.  0.
          6    2    1    2  501    0 -0.14540110195E+03  0.10850771778E+03 -0.18021211755E+01  0.24896999121E+03  0.17049165263E+03 0.  0.
         24    2    5    5    0    0 -0.94223743617E+02  0.63933309216E+01  0.29417294185E+02  0.13046593261E+03  0.85070522703E+02 0.  0.
          5    1    5    5  501    0 -0.51177358330E+02  0.10211438685E+03 -0.31219415361E+02  0.11850405860E+03  0.47000000000E+01 0. -1.
        -13    1    6    6    0    0 -0.10936425710E+03  0.13599574658E+02  0.27522229837E+02  0.11359120695E+03  0.00000000000E+00 0.  1.
         14    1    6    6    0    0  0.15140513479E+02 -0.72062437363E+01  0.18950643483E+01  0.16874725660E+02  0.00000000000E+00 0. -1.
         -5    1    3    3    0  503  0.50722372965E+02 -0.96500089120E+02  0.16449282828E+02  0.11035259501E+03  0.47000000000E+01 0.  1.
         13    1    4    4    0    0  0.10651959376E+03 -0.36728377825E+01  0.61879812743E+02  0.12324376178E+03  0.00000000000E+00 0. -1.
        -14    1    4    4    0    0 -0.11840864780E+02 -0.83347908734E+01  0.23421680668E+02  0.27536338590E+02  0.00000000000E+00 0.  1.
</event>
<event>
12    1  0.9873238E-001  0.2679425E+03  0.7818608E-02  0.1102524E+00
         21   -1    0    0  503  502  0.00000000000E+00  0.00000000000E+00  0.25678530494E+03  0.25678530494E+03  0.00000000000E+00 0. -1.
         21   -1    0    0  501  503 -0.00000000000E+00 -0.00000000000E+00 -0.55781417785E+03  0.55781417785E+03  0.00000000000E+00 0. -1.
          6    2    1    2  501    0  0.14241216750E+03 -0.14773296157E+03 -0.43833656429E+03  0.51352377152E+03  0.17164342962E+03 0.  0.
         24    2    3    3    0    0  0.17246482607E+03 -0.13979757925E+03 -0.39135322495E+03  0.45699363128E+03  0.79989705326E+02 0.  0.
         -6    2    1    2    0  502 -0.14241216750E+03  0.14773296157E+03  0.13730769138E+03  0.30107571127E+03  0.17229895072E+03 0.  0.
        -24    2    5    5    0    0 -0.13114526054E+03  0.94050753946E+02  0.32574478057E+02  0.18275471322E+03  0.79331991662E+02 0.  0.
          5    1    3    3  501    0 -0.30052658565E+02 -0.79353823186E+01 -0.46983339340E+02  0.56530140235E+02  0.47000000000E+01 0.  1.
        -11    1    4    4    0    0  0.10808671306E+03 -0.46709494117E+02 -0.15237354041E+03  0.19256741728E+03  0.00000000000E+00 0.  1.
         12    1    4    4    0    0  0.64378113009E+02 -0.93088085133E+02 -0.23897968454E+03  0.26442621400E+03  0.00000000000E+00 0. -1.
         -5    1    5    5    0  502 -0.11266906959E+02  0.53682207622E+02  0.10473321333E+03  0.11832099806E+03  0.47000000000E+01 0.  1.
         13    1    6    6    0    0 -0.20813372996E+02  0.76043987692E+01  0.36313294042E+02  0.42540318526E+02  0.00000000000E+00 0. -1.
        -14    1    6    6    0    0 -0.11033188755E+03  0.86446355177E+02 -0.37388159853E+01  0.14021439469E+03  0.00000000000E+00 0.  1.
</event>
<event>
12    1  0.9873238E-001  0.1826386E+03  0.7818608E-02  0.1165397E+00
         21   -1    0    0  503  502  0.00000000000E+00  0.00000000000E+00  0.72502159261E+02  0.72502159261E+02  0.00000000000E+00 0. -1.
         21   -1    0    0  501  503 -0.00000000000E+00 -0.00000000000E+00 -0.46560320033E+03  0.46560320033E+03  0.00000000000E+00 0. -1.
          6    2    1    2  501    0 -0.92498208695E+01 -0.62048173981E+02 -0.16368105840E+03  0.24486420730E+03  0.17097209145E+03 0.  0.
         24    2    3    3    0    0  0.29732388867E+02 -0.95410630059E+02 -0.98640311971E+02  0.16188797668E+03  0.80564276025E+02 0.  0.
         -6    2    1    2    0  502  0.92498208695E+01  0.62048173981E+02 -0.22941998267E+03  0.29324115229E+03  0.17152641158E+03 0.  0.
        -24    2    5    5    0    0  0.50925349962E+02  0.88741730614E+02 -0.18740431866E+03  0.22815043319E+03  0.80397484371E+02 0.  0.
          5    1    3    3  501    0 -0.38982209736E+02  0.33362456078E+02 -0.65040746431E+02  0.82976230619E+02  0.47000000000E+01 0. -1.
        -11    1    4    4    0    0  0.37199534406E+02 -0.55514994427E+01 -0.36264585764E+02  0.52246958636E+02  0.00000000000E+00 0.  1.
         12    1    4    4    0    0 -0.74671455389E+01 -0.89859130616E+02 -0.62375726207E+02  0.10964101804E+03  0.00000000000E+00 0. -1.
         -5    1    5    5    0  502 -0.41675529092E+02 -0.26693556633E+02 -0.42015664009E+02  0.65090719100E+02  0.47000000000E+01 0.  1.
         13    1    6    6    0    0  0.25291361522E+01 -0.10444882883E+02 -0.97074545278E-01  0.10747163886E+02  0.00000000000E+00 0. -1.
        -14    1    6    6    0    0  0.48396213810E+02  0.99186613497E+02 -0.18730724411E+03  0.21740326931E+03  0.00000000000E+00 0.  1.
</event>
<event>
12    1  0.9873238E-001  0.1871134E+03  0.7818608E-02  0.1161249E+00
         21   -1    0    0  503  502  0.00000000000E+00  0.00000000000E+00  0.14458797846E+03  0.14458797846E+03  0.00000000000E+00 0. -1.
         21   -1    0    0  501  503 -0.00000000000E+00 -0.00000000000E+00 -0.24201862642E+03  0.24201862642E+03  0.00000000000E+00 0. -1.
          6    2    1    2  501    0  0.12676428820E+02 -0.71905024529E+02 -0.59629501755E+02  0.19638512173E+03  0.17228004573E+03 0.  0.
         24    2    3    3    0    0 -0.21651135091E+02 -0.76806678390E+01 -0.84860582596E+02  0.11917212362E+03  0.80454411068E+02 0.  0.
         -6    2    1    2    0  502 -0.12676428820E+02  0.71905024529E+02 -0.37801146197E+02  0.19022148315E+03  0.17153501566E+03 0.  0.
        -24    2    5    5    0    0 -0.61360454731E+01  0.26722536665E+02 -0.88387746357E+02  0.12191827723E+03  0.79372083227E+02 0.  0.
          5    1    3    3  501    0  0.34327563910E+02 -0.64224356690E+02  0.25231080841E+02  0.77212998107E+02  0.47000000000E+01 0. -1.
        -13    1    4    4    0    0 -0.71812415700E+01 -0.38336730305E+02 -0.73871426334E+02  0.83535996730E+02  0.00000000000E+00 0.  1.
         14    1    4    4    0    0 -0.14469893521E+02  0.30656062466E+02 -0.10989156262E+02  0.35636126890E+02  0.00000000000E+00 0. -1.
         -5    1    5    5    0  502 -0.65403833467E+01  0.45182487865E+02  0.50586600160E+02  0.68303205926E+02  0.47000000000E+01 0.  1.
         11    1    6    6    0    0 -0.39918968211E+02  0.28174765446E+02 -0.41479268576E+02  0.64092676279E+02  0.00000000000E+00 0. -1.
        -12    1    6    6    0    0  0.33782922738E+02 -0.14522287817E+01 -0.46908477782E+02  0.57825600948E+02  0.00000000000E+00 0.  1.
</event>
<event>
12    1  0.9873238E-001  0.2521135E+03  0.7818608E-02  0.1112805E+00
         21   -1    0    0  501  502  0.00000000000E+00  0.00000000000E+00  0.34401573652E+02  0.34401573652E+02  0.00000000000E+00 0.  1.
         21   -1    0    0  502  503 -0.00000000000E+00 -0.00000000000E+00 -0.19725691047E+04  0.19725691047E+04  0.00000000000E+00 0.  1.
         -6    2    1    2    0  503  0.32437444775E+02 -0.17457815388E+03 -0.67112473037E+03  0.71508883482E+03  0.17150486388E+03 0.  0.
        -24    2    3    3    0    0 -0.22105773953E+02 -0.28747974981E+02 -0.18338307434E+03  0.20307768571E+03  0.79347861791E+02 0.  0.
          6    2    1    2  501    0 -0.32437444775E+02  0.17457815388E+03 -0.12670428007E+04  0.12918818435E+04  0.17897351554E+03 0.  0.
         24    2    5    5    0    0 -0.17073705333E+02  0.15316348717E+03 -0.61234506228E+03  0.63663696481E+03  0.81176255391E+02 0.  0.
          5    1    5    5  501    0 -0.15363739442E+02  0.21414666713E+02 -0.65469773838E+03  0.65524487872E+03  0.47000000000E+01 0. -1.
        -13    1    6    6    0    0  0.16176649349E+02  0.64246329164E+01 -0.13561815435E+03  0.13673055138E+03  0.00000000000E+00 0.  1.
         14    1    6    6    0    0 -0.33250354683E+02  0.14673885425E+03 -0.47672690793E+03  0.49990641342E+03  0.00000000000E+00 0. -1.
         -5    1    3    3    0  503  0.54543218727E+02 -0.14583017890E+03 -0.48774165603E+03  0.51201114911E+03  0.47000000000E+01 0.  1.
         11    1    4    4    0    0  0.81767187809E+00 -0.52881279213E+02 -0.12748566169E+03  0.13802062243E+03  0.00000000000E+00 0. -1.
        -12    1    4    4    0    0 -0.22923445831E+02  0.24133304232E+02 -0.55897412647E+02  0.65057063279E+02  0.00000000000E+00 0.  1.
</event>
<event>
12    1  0.9873238E-001  0.3111149E+03  0.7818608E-02  0.1080042E+00
         21   -1    0    0  501  502  0.00000000000E+00  0.00000000000E+00  0.32317535909E+03  0.32317535909E+03  0.00000000000E+00 0.  1.
         21   -1    0    0  502  503 -0.00000000000E+00 -0.00000000000E+00 -0.38347932228E+03  0.38347932228E+03  0.00000000000E+00 0.  1.
         -6    2    1    2    0  503 -0.21783945626E+03 -0.13608153866E+03 -0.19722679919E+03  0.36674239477E+03  0.17213180976E+03 0.  0.
        -24    2    3    3    0    0 -0.30335242311E+02 -0.42448541325E+02 -0.28981790471E+02  0.97942392165E+02  0.77657339753E+02 0.  0.
          6    2    1    2  501    0  0.21783945626E+03  0.13608153866E+03  0.13692283600E+03  0.33991228659E+03  0.17555707245E+03 0.  0.
         24    2    5    5    0    0  0.98238091553E+02  0.56707301187E+01  0.13933241399E+02  0.12436647752E+03  0.74766340714E+02 0.  0.
          5    1    5    5  501    0  0.11960136471E+03  0.13041080854E+03  0.12298959461E+03  0.21554580907E+03  0.47000000000E+01 0. -1.
        -13    1    6    6    0    0  0.47327146831E+02 -0.31760311116E+02  0.21088237323E+02  0.60772443943E+02  0.00000000000E+00 0.  1.
         14    1    6    6    0    0  0.50910944722E+02  0.37431041235E+02 -0.71549959250E+01  0.63594033581E+02  0.00000000000E+00 0. -1.
         -5    1    3    3    0  503 -0.18750421395E+03 -0.93632997338E+02 -0.16824500872E+03  0.26880000261E+03  0.47000000000E+01 0.  1.
         11    1    4    4    0    0 -0.40448782934E+01 -0.12397337619E+02 -0.50796449103E+02  0.52443629374E+02  0.00000000000E+00 0. -1.
        -12    1    4    4    0    0 -0.26290364017E+02 -0.30051203706E+02  0.21814658632E+02  0.45498762791E+02  0.00000000000E+00 0.  1.
</event>
<event>
12    1  0.9873238E-001  0.2104263E+03  0.7818608E-02  0.1141458E+00
         21   -1    0    0  501  502  0.00000000000E+00  0.00000000000E+00  0.32458781390E+03  0.32458781390E+03  0.00000000000E+00 0.  1.
         21   -1    0    0  502  503 -0.00000000000E+00 -0.00000000000E+00 -0.19901884622E+03  0.19901884622E+03  0.00000000000E+00 0.  1.
         -6    2    1    2    0  503 -0.12081239063E+03  0.42361449800E+01  0.21061025548E+03  0.29771781206E+03  0.17223715409E+03 0.  0.
        -24    2    3    3    0    0 -0.54886785566E+02  0.51930613246E+02  0.17976025369E+03  0.21056989001E+03  0.79476927168E+02 0.  0.
          6    2    1    2  501    0  0.12081239063E+03 -0.42361449800E+01 -0.85041287803E+02  0.22588884806E+03  0.17082204890E+03 0.  0.
         24    2    5    5    0    0  0.67496886316E+02 -0.65492273781E+02 -0.20646939596E+02  0.12214118111E+03  0.75147218313E+02 0.  0.
          5    1    5    5  501    0  0.53315504315E+02  0.61256128801E+02 -0.64394348208E+02  0.10374766695E+03  0.47000000000E+01 0. -1.
        -11    1    6    6    0    0  0.53884108226E+02 -0.18821716432E+02  0.18203539027E+02  0.59909289445E+02  0.00000000000E+00 0.  1.
         12    1    6    6    0    0  0.13612778091E+02 -0.46670557349E+02 -0.38850478623E+02  0.62231891662E+02  0.00000000000E+00 0. -1.
         -5    1    3    3    0  503 -0.65925605065E+02 -0.47694468266E+02  0.30850001790E+02  0.87147922045E+02  0.47000000000E+01 0.  1.
         11    1    4    4    0    0 -0.31833540515E+02 -0.17087305704E+02  0.71778358311E+02  0.80358465887E+02  0.00000000000E+00 0. -1.
        -12    1    4    4    0    0 -0.23053245051E+02  0.69017918950E+02  0.10798189538E+03  0.13021142413E+03  0.00000000000E+00 0.  1.
</event>
<event>
12    1  0.9873238E-001  0.3953661E+03  0.7818608E-02  0.1046138E+00
         21   -1    0    0  501  502  0.00000000000E+00  0.00000000000E+00  0.19127093539E+03  0.19127093539E+03  0.00000000000E+00 0.  1.
         21   -1    0    0  502  503 -0.00000000000E+00 -0.00000000000E+00 -0.84336905313E+03  0.84336905313E+03  0.00000000000E+00 0.  1.
         -6    2    1    2    0  503  0.18363503876E+03  0.29446000004E+03 -0.43994730567E+03  0.58595040700E+03  0.17133513539E+03 0.  0.
        -24    2    3    3    0    0  0.16018110530E+03  0.23732148808E+03 -0.43110738220E+03  0.52337940102E+03  0.78057332919E+02 0.  0.
          6    2    1    2  501    0 -0.18363503876E+03 -0.29446000004E+03 -0.21215081207E+03  0.44868958152E+03  0.18943562079E+03 0.  0.
         24    2    5    5    0    0 -0.19016166992E+02 -0.16608983905E+03 -0.11463372057E+03  0.21823363278E+03  0.80855298801E+02 0.  0.
          5    1    5    5  501    0 -0.16461887177E+03 -0.12837016099E+03 -0.97517091499E+02  0.23045594874E+03  0.47000000000E+01 0. -1.
        -13    1    6    6    0    0  0.13562730621E+02 -0.33126655898E+02 -0.61953289386E+02  0.71550912354E+02  0.00000000000E+00 0.  1.
         14    1    6    6    0    0 -0.32578897613E+02 -0.13296318315E+03 -0.52680431185E+02  0.14668272043E+03  0.00000000000E+00 0. -1.
         -5    1    3    3    0  503  0.23453933457E+02  0.57138511952E+02 -0.88399234718E+01  0.62571005983E+02  0.47000000000E+01 0.  1.
         11    1    4    4    0    0  0.45449560443E+02  0.66191867957E+02 -0.65104320771E+02  0.10337116866E+03  0.00000000000E+00 0. -1.
        -12    1    4    4    0    0  0.11473154486E+03  0.17112962013E+03 -0.36600306143E+03  0.42000823236E+03  0.00000000000E+00 0.  1.
</event>
<event>
12    1  0.9873238E-001  0.2058816E+03  0.7818608E-02  0.1145345E+00
         21   -1    0    0  503  502  0.00000000000E+00  0.00000000000E+00  0.15223120630E+03  0.15223120630E+03  0.00000000000E+00 0.  1.
         21   -1    0    0  501  503 -0.00000000000E+00 -0.00000000000E+00 -0.27695124378E+03  0.27695124378E+03  0.00000000000E+00 0.  1.
          6    2    1    2  501    0 -0.53626639660E+02  0.97011669790E+02 -0.45431105279E+02  0.20856066771E+03  0.17072342028E+03 0.  0.
         24    2    3    3    0    0 -0.80385301616E+02  0.12181299201E+03 -0.31733796376E+02  0.16930716029E+03  0.79735054747E+02 0.  0.
         -6    2    1    2    0  502  0.53626639660E+02 -0.97011669790E+02 -0.79288932208E+02  0.22062178237E+03  0.17349396396E+03 0.  0.
        -24    2    5    5    0    0 -0.10580412114E+02  0.11105682658E+01  0.31269241824E+01  0.77216822613E+02  0.76416500556E+02 0.  0.
          5    1    3    3  501    0  0.26758661956E+02 -0.24801322220E+02 -0.13697308903E+02  0.39253507419E+02  0.47000000000E+01 0. -1.
        -11    1    4    4    0    0 -0.50143512544E+02  0.71333241041E+02 -0.58148851489E+02  0.10480501924E+03  0.00000000000E+00 0.  1.
         12    1    4    4    0    0 -0.30241789072E+02  0.50479750968E+02  0.26415055113E+02  0.64502141055E+02  0.00000000000E+00 0. -1.
         -5    1    5    5    0  502  0.64207051774E+02 -0.98122238056E+02 -0.82415856391E+02  0.14340495976E+03  0.47000000000E+01 0.  1.
         11    1    6    6    0    0  0.20080361653E+02 -0.22821787510E+02 -0.15465528061E+02  0.34106267276E+02  0.00000000000E+00 0. -1.
        -12    1    6    6    0    0 -0.30660773768E+02  0.23932355776E+02  0.18592452244E+02  0.43110555337E+02  0.00000000000E+00 0.  1.
</event>
<event>
12    1  0.9873238E-001  0.2326134E+03  0.7818608E-02  0.1124983E+00
         21   -1    0    0  503  502  0.00000000000E+00  0.00000000000E+00  0.38952739453E+03  0.38952739453E+03  0.00000000000E+00 0. -1.
         21   -1    0    0  501  503 -0.00000000000E+00 -0.00000000000E+00 -0.17968604734E+03  0.17968604734E+03  0.00000000000E+00 0. -1.
          6    2    1    2  501    0 -0.14864973158E+03  0.48071302404E+02 -0.31790544488E+02  0.23381073201E+03  0.17102405348E+03 0.  0.
         24    2    3    3    0    0 -0.13743363702E+03 -0.10209994143E+02 -0.58977010406E+02  0.16836071877E+03  0.76647213262E+02 0.  0.
         -6    2    1    2    0  502  0.14864973158E+03 -0.48071302404E+02  0.24163189168E+03  0.33540270987E+03  0.17234098148E+03 0.  0.
        -24    2    5    5    0    0  0.11253912823E+03  0.31160261349E+02  0.16737451101E+03  0.22086946163E+03  0.84457532957E+02 0.  0.
          5    1    3    3  501    0 -0.11216094553E+02  0.58281296547E+02  0.27186465918E+02  0.65450013242E+02  0.47000000000E+01 0. -1.
        -13    1    4    4    0    0 -0.96910557979E+02 -0.16925618839E+02 -0.75577968045E+02  0.12405709200E+03  0.00000000000E+00 0.  1.
         14    1    4    4    0    0 -0.40523079046E+02  0.67156246954E+01  0.16600957639E+02  0.44303626770E+02  0.00000000000E+00 0. -1.
         -5    1    5    5    0  502  0.36110603348E+02 -0.79231563753E+02  0.74257380663E+02  0.11453324824E+03  0.47000000000E+01 0.  1.
         13    1    6    6    0    0  0.30982831864E+02 -0.24029150381E+01 -0.67578294329E+00  0.31083219807E+02  0.00000000000E+00 0. -1.
        -14    1    6    6    0    0  0.81556296366E+02  0.33563176387E+02  0.16805029396E+03  0.18978624182E+03  0.00000000000E+00 0.  1.
</event>
<event>
12    1  0.9873238E-001  0.2607432E+03  0.7818608E-02  0.1107263E+00
         21   -1    0    0  503  502  0.00000000000E+00  0.00000000000E+00  0.32909357300E+02  0.32909357300E+02  0.00000000000E+00 0. -1.
         21   -1    0    0  501  503 -0.00000000000E+00 -0.00000000000E+00 -0.20977028455E+04  0.20977028455E+04  0.00000000000E+00 0. -1.
          6    2    1    2  501    0 -0.21647998324E+02  0.19026811715E+03 -0.12073959431E+04  0.12344439416E+04  0.17139512593E+03 0.  0.
         24    2    3    3    0    0 -0.30184764126E+02  0.82638434899E+02 -0.33549232750E+03  0.35586837294E+03  0.79667848842E+02 0.  0.
         -6    2    1    2    0  502  0.21647998324E+02 -0.19026811715E+03 -0.85739754510E+03  0.89616826124E+03  0.17696443112E+03 0.  0.
        -24    2    5    5    0    0  0.12318619190E+02 -0.21186172535E+03 -0.67059123685E+03  0.70782812205E+03  0.79315221614E+02 0.  0.
          5    1    3    3  501    0  0.85367658015E+01  0.10762968225E+03 -0.87190361563E+03  0.87857556865E+03  0.47000000000E+01 0. -1.
        -11    1    4    4    0    0  0.21690043592E+02  0.56171829818E+02 -0.18182156810E+03  0.19153280419E+03  0.00000000000E+00 0.  1.
         12    1    4    4    0    0 -0.51874807717E+02  0.26466605081E+02 -0.15367075940E+03  0.16433556874E+03  0.00000000000E+00 0. -1.
         -5    1    5    5    0  502  0.93293791348E+01  0.21593608195E+02 -0.18680630825E+03  0.18834013919E+03  0.47000000000E+01 0.  1.
         13    1    6    6    0    0 -0.12248077154E+02 -0.25672469113E+02 -0.35160648897E+02  0.45225681810E+02  0.00000000000E+00 0. -1.
        -14    1    6    6    0    0  0.24566696344E+02 -0.18618925623E+03 -0.63543058795E+03  0.66260244024E+03  0.00000000000E+00 0.  1.
</event>
<event>
12    1  0.9873238E-001  0.3605115E+03  0.7818608E-02  0.1058537E+00
         21   -1    0    0  501  502  0.00000000000E+00  0.00000000000E+00  0.99746804179E+03  0.99746804179E+03  0.00000000000E+00 0. -1.
         21   -1    0    0  502  503 -0.00000000000E+00 -0.00000000000E+00 -0.13881955510E+03  0.13881955510E+03  0.00000000000E+00 0. -1.
         -6    2    1    2    0  503 -0.20166882238E+03 -0.24178412460E+03  0.28484346009E+03  0.45946091960E+03  0.17560940479E+03 0.  0.
        -24    2    3    3    0    0 -0.13249340655E+03 -0.14614637592E+03  0.88536359735E+02  0.23035311794E+03  0.79439322615E+02 0.  0.
          6    2    1    2  501    0  0.20166882238E+03  0.24178412460E+03  0.57380502660E+03  0.67682667729E+03  0.17237246216E+03 0.  0.
         24    2    5    5    0    0  0.69733887875E+02  0.17305826211E+03  0.26012719537E+03  0.32962940927E+03  0.78596516970E+02 0.  0.
          5    1    5    5  501    0  0.13193493450E+03  0.68725862493E+02  0.31367783123E+03  0.34719726802E+03  0.47000000000E+01 0. -1.
        -13    1    6    6    0    0  0.80890491930E+02  0.17260504252E+03  0.25118217918E+03  0.31532246911E+03  0.00000000000E+00 0.  1.
         14    1    6    6    0    0 -0.11156604055E+02  0.45321959055E+00  0.89450161953E+01  0.14306940161E+02  0.00000000000E+00 0. -1.
         -5    1    3    3    0  503 -0.69175415829E+02 -0.95637748686E+02  0.19630710035E+03  0.22910780165E+03  0.47000000000E+01 0.  1.
         13    1    4    4    0    0 -0.59199549824E+02 -0.23890492954E+02  0.25622759214E+01  0.63889808349E+02  0.00000000000E+00 0. -1.
        -14    1    4    4    0    0 -0.73293856724E+02 -0.12225588297E+03  0.85974083813E+02  0.16646330959E+03  0.00000000000E+00 0.  1.
</event>
<event>
12    1  0.9873238E-001  0.2552499E+03  0.7818608E-02  0.1110370E+00
         21   -1    0    0  503  502  0.00000000000E+00  0.00000000000E+00  0.19020856785E+04  0.19020856785E+04  0.00000000000E+00 0. -1.
         21   -1    0    0  501  503 -0.00000000000E+00 -0.00000000000E+00 -0.48970976718E+02  0.48970976718E+02  0.00000000000E+00 0. -1.
          6    2    1    2  501    0 -0.10613833587E+03 -0.15241064039E+03  0.14694405347E+04  0.14914449421E+04  0.17509477610E+03 0.  0.
         24    2    3    3    0    0 -0.79837835533E+02 -0.75704979796E+02  0.51859665847E+03  0.53713805139E+03  0.86426084714E+02 0.  0.
         -6    2    1    2    0  502  0.10613833587E+03  0.15241064039E+03  0.38367416707E+03  0.45961171312E+03  0.17187993109E+03 0.  0.
        -24    2    5    5    0    0  0.42400156847E+02  0.58841466813E+02  0.74458679643E+02  0.13028808297E+03  0.78554427449E+02 0.  0.
          5    1    3    3  501    0 -0.26300500335E+02 -0.76705660598E+02  0.95084387621E+03  0.95430689069E+03  0.47000000000E+01 0. -1.
        -13    1    4    4    0    0 -0.12938994541E+02 -0.92933569109E+01  0.78397345734E+01  0.17755154198E+02  0.00000000000E+00 0.  1.
         14    1    4    4    0    0 -0.66898840991E+02 -0.66411622885E+02  0.51075692390E+03  0.51938289719E+03  0.00000000000E+00 0. -1.
         -5    1    5    5    0  502  0.63738179021E+02  0.93569173581E+02  0.30921548743E+03  0.32932363015E+03  0.47000000000E+01 0.  1.
         11    1    6    6    0    0  0.27590776649E+02  0.71726757133E+02  0.78921292217E+02  0.11015692902E+03  0.00000000000E+00 0. -1.
        -12    1    6    6    0    0  0.14809380198E+02 -0.12885290320E+02 -0.44626125738E+01  0.20131153953E+02  0.00000000000E+00 0.  1.
</event>
<event>
12    1  0.9873238E-001  0.2111532E+03  0.7818608E-02  0.1141799E+00
         21   -1    0    0  501  502  0.00000000000E+00  0.00000000000E+00  0.35625783127E+03  0.35625783127E+03  0.00000000000E+00 0. -1.
         21   -1    0    0  502  503 -0.00000000000E+00 -0.00000000000E+00 -0.14275902489E+03  0.14275902489E+03  0.00000000000E+00 0. -1.
         -6    2    1    2    0  503 -0.69530112583E+02  0.90021294619E+02  0.20365199818E+03  0.29335951118E+03  0.17789715118E+03 0.  0.
        -24    2    3    3    0    0 -0.79200520022E+02  0.43902018527E+02  0.47060155771E+02  0.12976366919E+03  0.80148873846E+02 0.  0.
          6    2    1    2  501    0  0.69530112583E+02 -0.90021294619E+02  0.98468082052E+01  0.20565734498E+03  0.17105471017E+03 0.  0.
         24    2    5    5    0    0  0.10115121408E+03 -0.83707763254E+02 -0.29371690901E+02  0.15466778320E+03  0.76294621020E+02 0.  0.
          5    1    5    5  501    0 -0.31621101495E+02 -0.63135313658E+01  0.39218499106E+02  0.50989561777E+02  0.47000000000E+01 0. -1.
        -13    1    6    6    0    0  0.67652305898E+02 -0.90245936243E+02 -0.53197955174E+01  0.11291352322E+03  0.00000000000E+00 0.  1.
         14    1    6    6    0    0  0.33498908181E+02  0.65381729891E+01 -0.24051895383E+02  0.41754259985E+02  0.00000000000E+00 0. -1.
         -5    1    3    3    0  503  0.96704074389E+01  0.46119276092E+02  0.15659184241E+03  0.16359584199E+03  0.47000000000E+01 0.  1.
         13    1    4    4    0    0  0.10275850799E+01 -0.11276216172E+02 -0.11500522770E+02  0.16139114171E+02  0.00000000000E+00 0. -1.
        -14    1    4    4    0    0 -0.80228105102E+02  0.55178234699E+02  0.58560678541E+02  0.11362455502E+03  0.00000000000E+00 0.  1.
</event>
<event>
12    1  0.9873238E-001  0.2697624E+03  0.7818608E-02  0.1101598E+00
         21   -1    0    0  501  502  0.00000000000E+00  0.00000000000E+00  0.63371359748E+03  0.63371359748E+03  0.00000000000E+00 0.  1.
         21   -1    0    0  502  503 -0.00000000000E+00 -0.00000000000E+00 -0.12431330188E+03  0.12431330188E+03  0.00000000000E+00 0.  1.
         -6    2    1    2    0  503  0.81973052905E+02 -0.18957026665E+03  0.36174481172E+03  0.45049818721E+03  0.17156002003E+03 0.  0.
        -24    2    3    3    0    0  0.32439738580E+02 -0.12840729939E+03  0.33171505490E+03  0.36612796683E+03  0.80461414826E+02 0.  0.
          6    2    1    2  501    0 -0.81973052905E+02  0.18957026665E+03  0.14765548387E+03  0.30752871214E+03  0.17353760248E+03 0.  0.
         24    2    5    5    0    0 -0.29598475843E+02  0.72657278469E+02  0.13970313495E+03  0.17908778027E+03  0.80001982715E+02 0.  0.
          5    1    5    5  501    0 -0.52374577062E+02  0.11691298818E+03  0.79523489154E+01  0.12844093188E+03  0.47000000000E+01 0. -1.
        -13    1    6    6    0    0  0.24001616432E+02  0.32436674309E+02  0.29033803967E+02  0.49710936466E+02  0.00000000000E+00 0.  1.
         14    1    6    6    0    0 -0.53600092274E+02  0.40220604160E+02  0.11066933099E+03  0.12937684380E+03  0.00000000000E+00 0. -1.
         -5    1    3    3    0  503  0.49533314325E+02 -0.61162967262E+02  0.30029756829E+02  0.84370220383E+02  0.47000000000E+01 0.  1.
         13    1    4    4    0    0  0.43211287612E+02 -0.50713509177E+02  0.89817857120E+02  0.11183167193E+03  0.00000000000E+00 0. -1.
        -14    1    4    4    0    0 -0.10771549032E+02 -0.77693790210E+02  0.24189719778E+03  0.25429629489E+03  0.00000000000E+00 0.  1.
</event>
<event>
12    1  0.9873238E-001  0.2371296E+03  0.7818608E-02  0.1122099E+00
         21   -1    0    0  503  502  0.00000000000E+00  0.00000000000E+00  0.66515164002E+02  0.66515164002E+02  0.00000000000E+00 0. -1.
         21   -1    0    0  501  503 -0.00000000000E+00 -0.00000000000E+00 -0.98660503680E+03  0.98660503680E+03  0.00000000000E+00 0. -1.
          6    2    1    2  501    0  0.13028148373E+03  0.98926471847E+02 -0.25346721363E+03  0.34557780878E+03  0.16857841410E+03 0.  0.
         24    2    3    3    0    0  0.13336492392E+03  0.12632409266E+03 -0.24538555619E+03  0.31646526138E+03  0.78690603962E+02 0.  0.
         -6    2    1    2    0  502 -0.13028148373E+03 -0.98926471847E+02 -0.66662265917E+03  0.70754239202E+03  0.17167048365E+03 0.  0.
        -24    2    5    5    0    0 -0.10720906391E+03 -0.13140360428E+03 -0.60857798799E+03  0.63698479470E+03  0.81374262577E+02 0.  0.
          5    1    3    3  501    0 -0.30834401837E+01 -0.27397620812E+02 -0.80816574403E+01  0.29112547407E+02  0.47000000000E+01 0. -1.
        -11    1    4    4    0    0  0.10036658442E+03  0.57771738498E+02 -0.10279746858E+03  0.15484942551E+03  0.00000000000E+00 0.  1.
         12    1    4    4    0    0  0.32998339499E+02  0.68552354161E+02 -0.14258808762E+03  0.16161583586E+03  0.00000000000E+00 0. -1.
         -5    1    5    5    0  502 -0.23072419822E+02  0.32477132437E+02 -0.58044671177E+02  0.70557597321E+02  0.47000000000E+01 0.  1.
         11    1    6    6    0    0 -0.77834504763E+01  0.69806924453E+01 -0.10160623255E+03  0.10214273670E+03  0.00000000000E+00 0. -1.
        -12    1    6    6    0    0 -0.99425613434E+02 -0.13838429673E+03 -0.50697175544E+03  0.53484205800E+03  0.00000000000E+00 0.  1.
</event>
<event>
12    1  0.9873238E-001  0.1877189E+03  0.7818608E-02  0.1160604E+00
         21   -1    0    0  501  502  0.00000000000E+00  0.00000000000E+00  0.44463691084E+02  0.44463691084E+02  0.00000000000E+00 0.  1.
         21   -1    0    0  502  503 -0.00000000000E+00 -0.00000000000E+00 -0.91572072329E+03  0.91572072329E+03  0.00000000000E+00 0.  1.
         -6    2    1    2    0  503 -0.11413418813E+02 -0.73478199073E+02 -0.61232388645E+03  0.64036455185E+03  0.17203751184E+03 0.  0.
        -24    2    3    3    0    0 -0.50843404367E+02 -0.57693519517E+02 -0.56798390633E+03  0.57878530448E+03  0.80455682662E+02 0.  0.
          6    2    1    2  501    0  0.11413418813E+02  0.73478199073E+02 -0.25893314575E+03  0.31981986252E+03  0.17236315913E+03 0.  0.
         24    2    5    5    0    0  0.28328748638E+02  0.19776591561E+02 -0.81099442375E+02  0.13322697121E+03  0.99893316742E+02 0.  0.
          5    1    5    5  501    0 -0.16915329825E+02  0.53701607512E+02 -0.17783370338E+03  0.18659289132E+03  0.47000000000E+01 0. -1.
        -11    1    6    6    0    0  0.17717291603E+02 -0.82109595741E+01 -0.97267067484E+02  0.99207886258E+02  0.00000000000E+00 0.  1.
         12    1    6    6    0    0  0.10611457035E+02  0.27987551135E+02  0.16167625109E+02  0.34019084947E+02  0.00000000000E+00 0. -1.
         -5    1    3    3    0  503  0.39429985554E+02 -0.15784679556E+02 -0.44339980124E+02  0.61579247372E+02  0.47000000000E+01 0.  1.
         11    1    4    4    0    0 -0.33073925231E+02 -0.49474757583E+01 -0.40852931438E+03  0.40989579499E+03  0.00000000000E+00 0. -1.
        -12    1    4    4    0    0 -0.17769479136E+02 -0.52746043758E+02 -0.15945459195E+03  0.16888950949E+03  0.00000000000E+00 0.  1.
</event>
<event>
12    1  0.9873238E-001  0.1972952E+03  0.7818608E-02  0.1152263E+00
         21   -1    0    0  503  502  0.00000000000E+00  0.00000000000E+00  0.17537047345E+03  0.17537047345E+03  0.00000000000E+00 0. -1.
         21   -1    0    0  501  503 -0.00000000000E+00 -0.00000000000E+00 -0.22621030906E+03  0.22621030906E+03  0.00000000000E+00 0. -1.
          6    2    1    2  501    0  0.75364172903E+02  0.59669255504E+02 -0.56390507616E+02  0.20420754343E+03  0.17111590468E+03 0.  0.
         24    2    3    3    0    0  0.17900002787E+02 -0.26419148113E+02 -0.36978349289E+02  0.98792810226E+02  0.85873392558E+02 0.  0.
         -6    2    1    2    0  502 -0.75364172903E+02 -0.59669255504E+02  0.55506720144E+01  0.19737323908E+03  0.17229395502E+03 0.  0.
        -24    2    5    5    0    0 -0.97172243626E+02 -0.75536904047E+01 -0.31624428442E+02  0.12958163069E+03  0.79320812961E+02 0.  0.
          5    1    3    3  501    0  0.57464170117E+02  0.86088403617E+02 -0.19412158327E+02  0.10541473320E+03  0.47000000000E+01 0. -1.
        -13    1    4    4    0    0 -0.22727330411E+02  0.19385696289E+02 -0.72921174321E+01  0.30749174702E+02  0.00000000000E+00 0.  1.
         14    1    4    4    0    0  0.40627333198E+02 -0.45804844402E+02 -0.29686231857E+02  0.68043635524E+02  0.00000000000E+00 0. -1.
         -5    1    5    5    0  502  0.21808070722E+02 -0.52115565099E+02  0.37175100457E+02  0.67791608391E+02  0.47000000000E+01 0.  1.
         11    1    6    6    0    0 -0.28498037719E+02  0.18911850301E+02 -0.43177934730E+02  0.55082940038E+02  0.00000000000E+00 0. -1.
        -12    1    6    6    0    0 -0.68674205906E+02 -0.26465540706E+02  0.11553506288E+02  0.74498690655E+02  0.00000000000E+00 0.  1.
</event>
<event>
12    1  0.9873238E-001  0.1808861E+03  0.7818608E-02  0.1167606E+00
         21   -1    0    0  501  502  0.00000000000E+00  0.00000000000E+00  0.12873122789E+02  0.12873122789E+02  0.00000000000E+00 0.  1.
         21   -1    0    0  502  503 -0.00000000000E+00 -0.00000000000E+00 -0.25081780009E+04  0.25081780009E+04  0.00000000000E+00 0.  1.
         -6    2    1    2    0  503 -0.24549516755E+02 -0.48002267702E+02 -0.12915227522E+04  0.13037544524E+04  0.16981683190E+03 0.  0.
        -24    2    3    3    0    0  0.44395261865E+02 -0.17782997907E+02 -0.43813489857E+03  0.44704008613E+03  0.74802907496E+02 0.  0.
          6    2    1    2  501    0  0.24549516755E+02  0.48002267702E+02 -0.12037821259E+04  0.12172966713E+04  0.17266407452E+03 0.  0.
         24    2    5    5    0    0 -0.12741916921E+01 -0.40294394219E+02 -0.44812587866E+03  0.45604663449E+03  0.74407445397E+02 0.  0.
          5    1    5    5  501    0  0.25823708447E+02  0.88296661921E+02 -0.75565624728E+03  0.76125003677E+03  0.47000000000E+01 0. -1.
        -11    1    6    6    0    0 -0.24610735635E+02  0.98912123770E+01 -0.95961766494E+02  0.99559956908E+02  0.00000000000E+00 0.  1.
         12    1    6    6    0    0  0.23336543943E+02 -0.50185606596E+02 -0.35216411217E+03  0.35648667758E+03  0.00000000000E+00 0. -1.
         -5    1    3    3    0  503 -0.68944778620E+02 -0.30219269794E+02 -0.85338785361E+03  0.85671436632E+03  0.47000000000E+01 0.  1.
         11    1    4    4    0    0  0.29917844145E+02 -0.25371377983E+02 -0.85977180693E+02  0.94503226500E+02  0.00000000000E+00 0. -1.
        -12    1    4    4    0    0  0.14477417720E+02  0.75883800757E+01 -0.35215771788E+03  0.35253685963E+03  0.00000000000E+00 0.  1.
</event>
<event>
12    1  0.9873238E-001  0.1994282E+03  0.7818608E-02  0.1150643E+00
         21   -1    0    0  503  502  0.00000000000E+00  0.00000000000E+00  0.19402199995E+02  0.19402199995E+02  0.00000000000E+00 0. -1.
         21   -1    0    0  501  503 -0.00000000000E+00 -0.00000000000E+00 -0.21003641210E+04  0.21003641210E+04  0.00000000000E+00 0. -1.
          6    2    1    2  501    0 -0.55506568947E+02 -0.82475044538E+02 -0.12400629815E+04  0.12559967449E+04  0.17288294578E+03 0.  0.
         24    2    3    3    0    0 -0.15557643558E+01 -0.67039490542E+02 -0.10981841117E+04  0.11033512427E+04  0.82939181926E+02 0.  0.
         -6    2    1    2    0  502  0.55506568947E+02  0.82475044538E+02 -0.84089893948E+03  0.86376957607E+03  0.17059818862E+03 0.  0.
        -24    2    5    5    0    0  0.74683297064E+02  0.70515353157E+01 -0.61837447237E+03  0.62798221189E+03  0.79670266479E+02 0.  0.
          5    1    3    3  501    0 -0.53950804592E+02 -0.15435553996E+02 -0.14187886978E+03  0.15264550217E+03  0.47000000000E+01 0. -1.
        -13    1    4    4    0    0 -0.10512842111E+02 -0.73628157544E+02 -0.54456455967E+03  0.54962003701E+03  0.00000000000E+00 0.  1.
         14    1    4    4    0    0  0.89570777551E+01  0.65886670011E+01 -0.55361955206E+03  0.55373120573E+03  0.00000000000E+00 0. -1.
         -5    1    5    5    0  502 -0.19176728117E+02  0.75423509222E+02 -0.22252446711E+03  0.23578736418E+03  0.47000000000E+01 0.  1.
         13    1    6    6    0    0  0.48693865942E+02  0.13293536802E+02 -0.13930664817E+03  0.14816933868E+03  0.00000000000E+00 0. -1.
        -14    1    6    6    0    0  0.25989431123E+02 -0.62420014860E+01 -0.47906782420E+03  0.47981287321E+03  0.00000000000E+00 0.  1.
</event>
<event>
12    1  0.9873238E-001  0.2540867E+03  0.7818608E-02  0.1110939E+00
         21   -1    0    0  501  502  0.00000000000E+00  0.00000000000E+00  0.12925883722E+03  0.12925883722E+03  0.00000000000E+00 0.  1.
         21   -1    0    0  502  503 -0.00000000000E+00 -0.00000000000E+00 -0.49706406243E+03  0.49706406243E+03  0.00000000000E+00 0.  1.
         -6    2    1    2    0  503 -0.29185463214E+02  0.18610340284E+03 -0.18350602306E+03  0.31342387529E+03  0.17051040230E+03 0.  0.
        -24    2    3    3    0    0  0.19333098620E+02  0.16906332743E+03 -0.18230077168E+03  0.26177159903E+03  0.79590334333E+02 0.  0.
          6    2    1    2  501    0  0.29185463214E+02 -0.18610340284E+03 -0.18429920216E+03  0.31289902436E+03  0.16868116586E+03 0.  0.
         24    2    5    5    0    0  0.53970370886E+02 -0.43630649798E+02 -0.99626580729E+02  0.14525559374E+03  0.79732662004E+02 0.  0.
          5    1    5    5  501    0 -0.24784907672E+02 -0.14247275305E+03 -0.84672621431E+02  0.16764343062E+03  0.47000000000E+01 0. -1.
        -11    1    6    6    0    0  0.47849422483E+02 -0.52119809311E+02 -0.33459766291E+02  0.78266197779E+02  0.00000000000E+00 0.  1.
         12    1    6    6    0    0  0.61209484028E+01  0.84891595124E+01 -0.66166814438E+02  0.66989395963E+02  0.00000000000E+00 0. -1.
         -5    1    3    3    0  503 -0.48518561834E+02  0.17040075414E+02 -0.12052513826E+01  0.51652276266E+02  0.47000000000E+01 0.  1.
         13    1    4    4    0    0  0.45296224180E+02  0.57202418562E+02 -0.67638230631E+02  0.99492687456E+02  0.00000000000E+00 0. -1.
        -14    1    4    4    0    0 -0.25963125560E+02  0.11186090887E+03 -0.11466254104E+03  0.16227891157E+03  0.00000000000E+00 0.  1.
</event>
<event>
12    1  0.9873238E-001  0.6646382E+03  0.7818608E-02  0.9779991E-01
         21   -1    0    0  503  502  0.00000000000E+00  0.00000000000E+00  0.12539996348E+04  0.12539996348E+04  0.00000000000E+00 0. -1.
         21   -1    0    0  501  503 -0.00000000000E+00 -0.00000000000E+00 -0.35483203026E+03  0.35483203026E+03  0.00000000000E+00 0. -1.
          6    2    1    2  501    0  0.26348035462E+02 -0.64089099355E+03  0.52265889162E+03  0.84552718088E+03  0.17409311313E+03 0.  0.
         24    2    3    3    0    0 -0.20654693145E+02 -0.36952945192E+03  0.22613809128E+03  0.44081367999E+03  0.78737741615E+02 0.  0.
         -6    2    1    2    0  502 -0.26348035462E+02  0.64089099355E+03  0.37650871290E+03  0.76330448417E+03  0.17157925305E+03 0.  0.
        -24    2    5    5    0    0 -0.45416037262E+02  0.60603090087E+03  0.31305094984E+03  0.68828587017E+03  0.80002953848E+02 0.  0.
          5    1    3    3  501    0  0.47002728607E+02 -0.27136154163E+03  0.29652080034E+03  0.40471350089E+03  0.47000000000E+01 0. -1.
        -11    1    4    4    0    0 -0.30151681103E+02 -0.79311093309E+02  0.28278557873E+02  0.89437409570E+02  0.00000000000E+00 0.  1.
         12    1    4    4    0    0  0.94969879578E+01 -0.29021835861E+03  0.19785953341E+03  0.35137627042E+03  0.00000000000E+00 0. -1.
         -5    1    5    5    0  502  0.19068001800E+02  0.34860092675E+02  0.63457763058E+02  0.75018613999E+02  0.47000000000E+01 0.  1.
         13    1    6    6    0    0 -0.68515760050E+02  0.46292059359E+03  0.23536274743E+03  0.52381820150E+03  0.00000000000E+00 0. -1.
        -14    1    6    6    0    0  0.23099722788E+02  0.14311030728E+03  0.77688202414E+02  0.16446766867E+03  0.00000000000E+00 0.  1.
</event>
<event>
12    1  0.9873238E-001  0.2662544E+03  0.7818608E-02  0.1103551E+00
         21   -1    0    0  503  502  0.00000000000E+00  0.00000000000E+00  0.23137181064E+03  0.23137181064E+03  0.00000000000E+00 0. -1.
         21   -1    0    0  501  503 -0.00000000000E+00 -0.00000000000E+00 -0.79331429090E+03  0.79331429090E+03  0.00000000000E+00 0. -1.
          6    2    1    2  501    0  0.15247137769E+03 -0.13350362357E+03  0.12061818765E+03  0.29230145861E+03  0.17268658603E+03 0.  0.
         24    2    3    3    0    0  0.17628998482E+02 -0.14842699011E+02  0.33937936789E+02  0.92805999673E+02  0.83247118391E+02 0.  0.
         -6    2    1    2    0  502 -0.15247137769E+03  0.13350362357E+03 -0.68256066791E+03  0.73238464292E+03  0.17154434202E+03 0.  0.
        -24    2    5    5    0    0 -0.26821362752E+02  0.34409429678E+02 -0.16239633747E+03  0.18814149305E+03  0.84387538367E+02 0.  0.
          5    1    3    3  501    0  0.13484237920E+03 -0.11866092456E+03  0.86680250863E+02  0.19949545894E+03  0.47000000000E+01 0. -1.
        -13    1    4    4    0    0  0.49585356332E+02 -0.20850360818E+02  0.19319905774E+02  0.57155086107E+02  0.00000000000E+00 0.  1.
         14    1    4    4    0    0 -0.31956357849E+02  0.60076618061E+01  0.14618031015E+02  0.35650913567E+02  0.00000000000E+00 0. -1.
         -5    1    5    5    0  502 -0.12565001493E+03  0.99094193895E+02 -0.52016433045E+03  0.54424314988E+03  0.47000000000E+01 0.  1.
         13    1    6    6    0    0 -0.37994428614E+02  0.52460401316E+02 -0.15040454512E+03  0.16375957225E+03  0.00000000000E+00 0. -1.
        -14    1    6    6    0    0  0.11173065863E+02 -0.18050971638E+02 -0.11991792351E+02  0.24381920794E+02  0.00000000000E+00 0.  1.
</event>
<event>
12    1  0.9873238E-001  0.1777693E+03  0.7818608E-02  0.1170096E+00
         21   -1    0    0  501  502  0.00000000000E+00  0.00000000000E+00  0.48962636993E+03  0.48962636993E+03  0.00000000000E+00 0.  1.
         21   -1    0    0  502  503 -0.00000000000E+00 -0.00000000000E+00 -0.71523941571E+02  0.71523941571E+02  0.00000000000E+00 0.  1.
         -6    2    1    2    0  503 -0.39335403673E+02  0.13872243182E+02  0.12007217008E+03  0.21412873571E+03  0.17231969219E+03 0.  0.
        -24    2    3    3    0    0  0.40642486424E+02 -0.44145185277E+01  0.41024595234E+02  0.10010471347E+03  0.81649473782E+02 0.  0.
          6    2    1    2  501    0  0.39335403673E+02 -0.13872243182E+02  0.29803025829E+03  0.34702157580E+03  0.17280690409E+03 0.  0.
         24    2    5    5    0    0  0.45944986191E+02  0.44890040334E+02  0.25133517604E+03  0.27152844199E+03  0.80201412839E+02 0.  0.
          5    1    5    5  501    0 -0.66095825185E+01 -0.58762283515E+02  0.46695082250E+02  0.75493133802E+02  0.47000000000E+01 0. -1.
        -11    1    6    6    0    0  0.29002531848E+02 -0.19753238830E+02  0.70725919409E+02  0.78952472882E+02  0.00000000000E+00 0.  1.
         12    1    6    6    0    0  0.16942454344E+02  0.64643279164E+02  0.18060925663E+03  0.19257596911E+03  0.00000000000E+00 0. -1.
         -5    1    3    3    0  503 -0.79977890096E+02  0.18286761709E+02  0.79047574844E+02  0.11402402224E+03  0.47000000000E+01 0.  1.
         11    1    4    4    0    0  0.55152568812E+02  0.17131718326E+02  0.83344966279E+01  0.58350368066E+02  0.00000000000E+00 0. -1.
        -12    1    4    4    0    0 -0.14510082389E+02 -0.21546236854E+02  0.32690098606E+02  0.41754345407E+02  0.00000000000E+00 0.  1.
</event>
<event>
12    1  0.1017101E+000  0.1796497E+03  0.7818608E-02  0.1168376E+00
         21   -1    0    0  503  502  0.00000000000E+00  0.00000000000E+00  0.10153201245E+03  0.10153201245E+03  0.00000000000E+00 0.  1.
         21   -1    0    0  501  503 -0.00000000000E+00 -0.00000000000E+00 -0.75400772468E+03  0.75400772468E+03  0.00000000000E+00 0.  1.
          6    2    1    2  501    0  0.15152274292E+02 -0.47208371184E+02  0.98537240339E-01  0.17868882723E+03  0.17167255326E+03 0.  0.
         24    2    3    3    0    0 -0.22422378565E+00 -0.31771428416E+02 -0.66400290019E+02  0.10855381513E+03  0.79783822456E+02 0.  0.
         -6    2    1    2    0  502 -0.15152274292E+02  0.47208371184E+02 -0.65257424948E+03  0.67685090990E+03  0.17267246864E+03 0.  0.
        -24    2    5    5    0    0 -0.23578607715E+02  0.79520230368E+02 -0.61766383847E+03  0.62831343844E+03  0.79935860495E+02 0.  0.
          5    1    3    3  501    0  0.15376498078E+02 -0.15436942767E+02  0.66498827259E+02  0.70135012098E+02  0.47000000000E+01 0. -1.
        -11    1    4    4    0    0 -0.30473973782E+02 -0.37884842399E+02 -0.19444467971E+02  0.52364221529E+02  0.00000000000E+00 0.  1.
         12    1    4    4    0    0  0.30249749996E+02  0.61134139825E+01 -0.46955822048E+02  0.56189593605E+02  0.00000000000E+00 0. -1.
         -5    1    5    5    0  502  0.84263334228E+01 -0.32311859184E+02 -0.34910411009E+02  0.48537471460E+02  0.47000000000E+01 0.  1.
         11    1    6    6    0    0 -0.50777775588E+02  0.32222974192E+02 -0.35271071271E+03  0.35780099137E+03  0.00000000000E+00 0. -1.
        -12    1    6    6    0    0  0.27199167873E+02  0.47297256175E+02 -0.26495312575E+03  0.27051244707E+03  0.00000000000E+00 0.  1.
</event>
<event>
12    1  0.9873238E-001  0.2074325E+03  0.7818608E-02  0.1143703E+00
         21   -1    0    0  503  502  0.00000000000E+00  0.00000000000E+00  0.77525111060E+02  0.77525111060E+02  0.00000000000E+00 0.  1.
         21   -1    0    0  501  503 -0.00000000000E+00 -0.00000000000E+00 -0.55848685213E+03  0.55848685213E+03  0.00000000000E+00 0.  1.
          6    2    1    2  501    0 -0.33847301142E+02  0.11049291013E+03 -0.26965802078E+03  0.34021126747E+03  0.17226124161E+03 0.  0.
         24    2    3    3    0    0  0.36592442053E+02  0.98745141006E+02 -0.14438715860E+03  0.19593844809E+03  0.80340613540E+02 0.  0.
         -6    2    1    2    0  502  0.33847301142E+02 -0.11049291013E+03 -0.21130372028E+03  0.29580069571E+03  0.17173953067E+03 0.  0.
        -24    2    5    5    0    0  0.87530263334E+02 -0.63248705844E+02 -0.15552919164E+03  0.20498900421E+03  0.78544360744E+02 0.  0.
          5    1    3    3  501    0 -0.70439743195E+02  0.11747769121E+02 -0.12527086219E+03  0.14427281939E+03  0.47000000000E+01 0. -1.
        -13    1    4    4    0    0  0.22091828902E+02  0.16301025845E+02  0.17645324382E+01  0.27511559799E+02  0.00000000000E+00 0.  1.
         14    1    4    4    0    0  0.14500613151E+02  0.82444115162E+02 -0.14615169104E+03  0.16842688829E+03  0.00000000000E+00 0. -1.
         -5    1    5    5    0  502 -0.53682962192E+02 -0.47244204283E+02 -0.55774528641E+02  0.90811691501E+02  0.47000000000E+01 0.  1.
         13    1    6    6    0    0  0.66460956106E+02 -0.48520068141E+02 -0.15901696954E+03  0.17904650876E+03  0.00000000000E+00 0. -1.
        -14    1    6    6    0    0  0.21069307228E+02 -0.14728637704E+02  0.34877778927E+01  0.25942495453E+02  0.00000000000E+00 0.  1.
</event>
<event>
12    1  0.9873238E-001  0.1811883E+03  0.7818608E-02  0.1168875E+00
         21   -1    0    0  503  502  0.00000000000E+00  0.00000000000E+00  0.12595477346E+03  0.12595477346E+03  0.00000000000E+00 0.  1.
         21   -1    0    0  501  503 -0.00000000000E+00 -0.00000000000E+00 -0.24803025964E+03  0.24803025964E+03  0.00000000000E+00 0.  1.
          6    2    1    2  501    0 -0.10945811252E+02  0.56938520350E+02 -0.67372000918E+02  0.19330856083E+03  0.17166073313E+03 0.  0.
         24    2    3    3    0    0  0.90915088509E+01 -0.75378796272E+01 -0.91164217249E+02  0.12156694175E+03  0.79549554727E+02 0.  0.
         -6    2    1    2    0  502  0.10945811252E+02 -0.56938520350E+02 -0.54703485265E+02  0.18067647227E+03  0.16214102025E+03 0.  0.
        -24    2    5    5    0    0  0.11952573830E+02 -0.63799463612E+02 -0.91963500195E+02  0.14248635802E+03  0.87360410234E+02 0.  0.
          5    1    3    3  501    0 -0.20037320103E+02  0.64476399977E+02  0.23792216331E+02  0.71741619084E+02  0.47000000000E+01 0. -1.
        -13    1    4    4    0    0  0.26748598793E+02  0.25931628712E+02 -0.23522283871E+02  0.44059445565E+02  0.00000000000E+00 0.  1.
         14    1    4    4    0    0 -0.17657089942E+02 -0.33469508339E+02 -0.67641933378E+02  0.77507496184E+02  0.00000000000E+00 0. -1.
         -5    1    5    5    0  502 -0.10067625777E+01  0.68609432625E+01  0.37260014930E+02  0.38190114243E+02  0.47000000000E+01 0.  1.
         13    1    6    6    0    0  0.44815037952E+02 -0.34819883192E+02 -0.78076376579E+02  0.96523222449E+02  0.00000000000E+00 0. -1.
        -14    1    6    6    0    0 -0.32862464122E+02 -0.28979580421E+02 -0.13887123616E+02  0.45963135575E+02  0.00000000000E+00 0.  1.
</event>
<event>
12    1  0.9873238E-001  0.1882678E+03  0.7818608E-02  0.1160873E+00
         21   -1    0    0  503  502  0.00000000000E+00  0.00000000000E+00  0.30445313814E+03  0.30445313814E+03  0.00000000000E+00 0. -1.
         21   -1    0    0  501  503 -0.00000000000E+00 -0.00000000000E+00 -0.11578299674E+03  0.11578299674E+03  0.00000000000E+00 0. -1.
          6    2    1    2  501    0  0.75683539197E+02 -0.15997221613E+02  0.11814414061E+03  0.21919216679E+03  0.16764026610E+03 0.  0.
         24    2    3    3    0    0  0.53319120585E+02 -0.75339467195E+02  0.76390729157E+02  0.14311913150E+03  0.78285237197E+02 0.  0.
         -6    2    1    2    0  502 -0.75683539197E+02  0.15997221613E+02  0.70526000796E+02  0.20104396809E+03  0.17164163572E+03 0.  0.
        -24    2    5    5    0    0  0.19554477488E+02  0.11525270489E+02  0.65345860109E+02  0.10544479431E+03  0.79582119630E+02 0.  0.
          5    1    3    3  501    0  0.22364418612E+02  0.59342245582E+02  0.41753411454E+02  0.76073035293E+02  0.47000000000E+01 0. -1.
        -13    1    4    4    0    0  0.45882365536E+02 -0.23747347548E+02  0.12625709383E+01  0.51679029288E+02  0.00000000000E+00 0.  1.
         14    1    4    4    0    0  0.74367550493E+01 -0.51592119647E+02  0.75128158218E+02  0.91440102212E+02  0.00000000000E+00 0. -1.
         -5    1    5    5    0  502 -0.95238016686E+02  0.44719511237E+01  0.51801406877E+01  0.95599173776E+02  0.47000000000E+01 0.  1.
         11    1    6    6    0    0  0.19701011854E+02 -0.32513102176E+02  0.37144881691E+02  0.53150483695E+02  0.00000000000E+00 0. -1.
        -12    1    6    6    0    0 -0.14653436588E+00  0.44038372665E+02  0.28200978418E+02  0.52294310618E+02  0.00000000000E+00 0.  1.
</event>
<event>
12    1  0.9873238E-001  0.2526141E+03  0.7818608E-02  0.1111792E+00
         21   -1    0    0  503  502  0.00000000000E+00  0.00000000000E+00  0.17407062579E+03  0.17407062579E+03  0.00000000000E+00 0. -1.
         21   -1    0    0  501  503 -0.00000000000E+00 -0.00000000000E+00 -0.36590549842E+03  0.36590549842E+03  0.00000000000E+00 0. -1.
          6    2    1    2  501    0  0.47256582745E+02  0.17822588693E+03 -0.85824376995E+02  0.26601973599E+03  0.17147310245E+03 0.  0.
         24    2    3    3    0    0  0.61160256004E+02  0.10477405547E+03  0.79817850725E+01  0.14597736965E+03  0.80792969634E+02 0.  0.
         -6    2    1    2    0  502 -0.47256582745E+02 -0.17822588693E+03 -0.10601049563E+03  0.27395638822E+03  0.17267375620E+03 0.  0.
        -24    2    5    5    0    0 -0.21459808014E+02 -0.11714090455E+02 -0.28447359713E+02  0.88403748779E+02  0.80051403787E+02 0.  0.
          5    1    3    3  501    0 -0.13903673259E+02  0.73451831456E+02 -0.93806162067E+02  0.12004236634E+03  0.47000000000E+01 0. -1.
        -11    1    4    4    0    0  0.74749260831E+02  0.63862249141E+02 -0.10893423237E+02  0.98916659517E+02  0.00000000000E+00 0.  1.
         12    1    4    4    0    0 -0.13589004827E+02  0.40911806333E+02  0.18875208310E+02  0.47060710135E+02  0.00000000000E+00 0. -1.
         -5    1    5    5    0  502 -0.25796774730E+02 -0.16651179647E+03 -0.77563135916E+02  0.18555263944E+03  0.47000000000E+01 0.  1.
         13    1    6    6    0    0 -0.37608755285E+02  0.31598265602E+01 -0.46564532090E+02  0.59938790668E+02  0.00000000000E+00 0. -1.
        -14    1    6    6    0    0  0.16148947270E+02 -0.14873917015E+02  0.18117172377E+02  0.28464958111E+02  0.00000000000E+00 0.  1.
</event>
<event>
12    1  0.9873238E-001  0.2026794E+03  0.7818608E-02  0.1148529E+00
         21   -1    0    0  503  502  0.00000000000E+00  0.00000000000E+00  0.13710408037E+04  0.13710408037E+04  0.00000000000E+00 0.  1.
         21   -1    0    0  501  503 -0.00000000000E+00 -0.00000000000E+00 -0.30936502901E+02  0.30936502901E+02  0.00000000000E+00 0.  1.
          6    2    1    2  501    0 -0.82476357804E+02 -0.58327604250E+02  0.82640338962E+03  0.84973860504E+03  0.17002551429E+03 0.  0.
         24    2    3    3    0    0 -0.41449922600E+02  0.19640500833E+02  0.24287990405E+03  0.25958274257E+03  0.79301368801E+02 0.  0.
         -6    2    1    2    0  502  0.82476357804E+02  0.58327604250E+02  0.51370091117E+03  0.55223870155E+03  0.17571140640E+03 0.  0.
        -24    2    5    5    0    0  0.59195464352E+02  0.10797184126E+03  0.39090794577E+03  0.41767736751E+03  0.80519188744E+02 0.  0.
          5    1    3    3  501    0 -0.41026435204E+02 -0.77968105083E+02  0.58352348556E+03  0.59015586246E+03  0.47000000000E+01 0. -1.
        -11    1    4    4    0    0  0.36603052173E+01  0.40950139869E+02  0.95031618684E+02  0.10354380879E+03  0.00000000000E+00 0.  1.
         12    1    4    4    0    0 -0.45110227817E+02 -0.21309639036E+02  0.14784828537E+03  0.15603893378E+03  0.00000000000E+00 0. -1.
         -5    1    5    5    0  502  0.23280893452E+02 -0.49644237007E+02  0.12279296540E+03  0.13456133404E+03  0.47000000000E+01 0.  1.
         13    1    6    6    0    0  0.41630763882E+02  0.11991959175E+02  0.70557247237E+02  0.82796453571E+02  0.00000000000E+00 0. -1.
        -14    1    6    6    0    0  0.17564700470E+02  0.95979882082E+02  0.32035069854E+03  0.33488091394E+03  0.00000000000E+00 0.  1.
</event>
<event>
12    1  0.9873238E-001  0.1910755E+03  0.7818608E-02  0.1158807E+00
         21   -1    0    0  503  502  0.00000000000E+00  0.00000000000E+00  0.13544453024E+03  0.13544453024E+03  0.00000000000E+00 0.  1.
         21   -1    0    0  501  503 -0.00000000000E+00 -0.00000000000E+00 -0.26643446974E+03  0.26643446974E+03  0.00000000000E+00 0.  1.
          6    2    1    2  501    0  0.60052687470E+02 -0.56016918768E+02 -0.39092099044E+02  0.19503341836E+03  0.17252716195E+03 0.  0.
         24    2    3    3    0    0  0.65345516893E+02 -0.42883611692E+02  0.36686009787E+02  0.11780059130E+03  0.80137851645E+02 0.  0.
         -6    2    1    2    0  502 -0.60052687470E+02  0.56016918768E+02 -0.91897840462E+02  0.20684558162E+03  0.16611941818E+03 0.  0.
        -24    2    5    5    0    0  0.10004666788E+02  0.62750894023E+02 -0.90803832878E+01  0.98060469953E+02  0.74132545812E+02 0.  0.
          5    1    3    3  501    0 -0.52928294232E+01 -0.13133307076E+02 -0.75778108831E+02  0.77232827062E+02  0.47000000000E+01 0. -1.
        -13    1    4    4    0    0  0.51507792184E+02 -0.31624504021E+00 -0.10709281097E+02  0.52610278161E+02  0.00000000000E+00 0.  1.
         14    1    4    4    0    0  0.13837724709E+02 -0.42567366652E+02  0.47395290884E+02  0.65190313136E+02  0.00000000000E+00 0. -1.
         -5    1    5    5    0  502 -0.70057354257E+02 -0.67339752552E+01 -0.82817457174E+02  0.10878511167E+03  0.47000000000E+01 0.  1.
         13    1    6    6    0    0  0.27465188193E+02  0.10936093657E+02 -0.27488083803E+02  0.40367430660E+02  0.00000000000E+00 0. -1.
        -14    1    6    6    0    0 -0.17460521405E+02  0.51814800366E+02  0.18407700515E+02  0.57693039293E+02  0.00000000000E+00 0.  1.
</event>
<event>
12    1  0.9873238E-001  0.2183058E+03  0.7818608E-02  0.1135432E+00
         21   -1    0    0  503  502  0.00000000000E+00  0.00000000000E+00  0.77679481090E+02  0.77679481090E+02  0.00000000000E+00 0.  1.
         21   -1    0    0  501  503 -0.00000000000E+00 -0.00000000000E+00 -0.60950403214E+03  0.60950403214E+03  0.00000000000E+00 0.  1.
          6    2    1    2  501    0 -0.73840156830E+02 -0.10920094246E+03 -0.27206461505E+03  0.34882166766E+03  0.17401202967E+03 0.  0.
         24    2    3    3    0    0 -0.56922390502E+02 -0.27422606895E+01 -0.20445834943E+03  0.22149390598E+03  0.63313941601E+02 0.  0.
         -6    2    1    2    0  502  0.73840156830E+02  0.10920094246E+03 -0.25975993600E+03  0.33836184557E+03  0.17215196657E+03 0.  0.
        -24    2    5    5    0    0  0.94582339630E+02  0.49112948526E+02 -0.21785801218E+03  0.26208166216E+03  0.99331684190E+02 0.  0.
          5    1    3    3  501    0 -0.16917766328E+02 -0.10645868177E+03 -0.67606265624E+02  0.12732776168E+03  0.47000000000E+01 0. -1.
        -11    1    4    4    0    0  0.76585517996E+01 -0.15642146156E+02 -0.64588241377E+02  0.66895224615E+02  0.00000000000E+00 0.  1.
         12    1    4    4    0    0 -0.64580942302E+02  0.12899885467E+02 -0.13987010805E+03  0.15459868137E+03  0.00000000000E+00 0. -1.
         -5    1    5    5    0  502 -0.20742182799E+02  0.60087993935E+02 -0.41901923811E+02  0.76280183412E+02  0.47000000000E+01 0.  1.
         13    1    6    6    0    0  0.77630971049E+02  0.78911775735E+02 -0.15480002851E+03  0.19030681764E+03  0.00000000000E+00 0. -1.
        -14    1    6    6    0    0  0.16951368581E+02 -0.29798827209E+02 -0.63057983676E+02  0.71774844514E+02  0.00000000000E+00 0.  1.
</event>
<event>
12    1  0.9873238E-001  0.1790507E+03  0.7818608E-02  0.1168771E+00
         21   -1    0    0  501  502  0.00000000000E+00  0.00000000000E+00  0.76591341997E+03  0.76591341997E+03  0.00000000000E+00 0.  1.
         21   -1    0    0  502  503 -0.00000000000E+00 -0.00000000000E+00 -0.53217196588E+02  0.53217196588E+02  0.00000000000E+00 0.  1.
         -6    2    1    2    0  503  0.71777277051E+01 -0.51077986397E+02  0.54608762343E+03  0.57469194284E+03  0.17146036346E+03 0.  0.
        -24    2    3    3    0    0  0.45870020420E+02  0.20822759137E+02  0.27016673202E+03  0.28690514843E+03  0.82382370886E+02 0.  0.
          6    2    1    2  501    0 -0.71777277051E+01  0.51077986397E+02  0.16660859995E+03  0.24443867371E+03  0.17126400427E+03 0.  0.
         24    2    5    5    0    0  0.11894417752E+02  0.31003508452E+02  0.11888372417E+02  0.87189921077E+02  0.79737407963E+02 0.  0.
          5    1    5    5  501    0 -0.19072145457E+02  0.20074477945E+02  0.15472022753E+03  0.15724875263E+03  0.47000000000E+01 0. -1.
        -11    1    6    6    0    0 -0.14997366837E+02  0.11743018885E+01 -0.27240585939E+02  0.31118314852E+02  0.00000000000E+00 0.  1.
         12    1    6    6    0    0  0.26891784589E+02  0.29829206563E+02  0.39128958356E+02  0.56071606224E+02  0.00000000000E+00 0. -1.
         -5    1    3    3    0  503 -0.38692292715E+02 -0.71900745534E+02  0.27592089141E+03  0.28778679442E+03  0.47000000000E+01 0.  1.
         13    1    4    4    0    0  0.28693372622E+02 -0.30737539884E+02  0.10950934638E+03  0.11730474387E+03  0.00000000000E+00 0. -1.
        -14    1    4    4    0    0  0.17176647798E+02  0.51560299020E+02  0.16065738564E+03  0.16960040455E+03  0.00000000000E+00 0.  1.
</event>
<event>
12    1  0.9873238E-001  0.3525337E+03  0.7818608E-02  0.1061647E+00
         21   -1    0    0  503  502  0.00000000000E+00  0.00000000000E+00  0.10781169106E+03  0.10781169106E+03  0.00000000000E+00 0. -1.
         21   -1    0    0  501  503 -0.00000000000E+00 -0.00000000000E+00 -0.13469042736E+04  0.13469042736E+04  0.00000000000E+00 0. -1.
          6    2    1    2  501    0  0.62772900644E+02 -0.30004664196E+03 -0.34236328237E+03  0.49141898599E+03  0.17410220639E+03 0.  0.
         24    2    3    3    0    0 -0.17660148739E+02 -0.19287049474E+03 -0.15500037206E+03  0.26102117323E+03  0.81215940179E+02 0.  0.
         -6    2    1    2    0  502 -0.62772900644E+02  0.30004664196E+03 -0.89672930014E+03  0.96329697864E+03  0.17276923030E+03 0.  0.
        -24    2    5    5    0    0 -0.18573894344E+02  0.12173481012E+03 -0.24048794548E+03  0.28181075935E+03  0.80115532931E+02 0.  0.
          5    1    3    3  501    0  0.80433049383E+02 -0.10717614721E+03 -0.18736291031E+03  0.23039781276E+03  0.47000000000E+01 0. -1.
        -11    1    4    4    0    0 -0.19927690144E+02 -0.16307843429E+03 -0.16157252124E+03  0.23042866182E+03  0.00000000000E+00 0.  1.
         12    1    4    4    0    0  0.22675414055E+01 -0.29792060450E+02  0.65721491780E+01  0.30592511415E+02  0.00000000000E+00 0. -1.
         -5    1    5    5    0  502 -0.44199006300E+02  0.17831183183E+03 -0.65624135465E+03  0.68148621929E+03  0.47000000000E+01 0.  1.
         13    1    6    6    0    0  0.31668415563E+02  0.47972764988E+02 -0.10109724458E+03  0.11629672216E+03  0.00000000000E+00 0. -1.
        -14    1    6    6    0    0 -0.50242309907E+02  0.73762045134E+02 -0.13939070091E+03  0.16551403719E+03  0.00000000000E+00 0.  1.
</event>
<event>
12    1  0.9873238E-001  0.2654287E+03  0.7818608E-02  0.1103978E+00
         21   -1    0    0  501  502  0.00000000000E+00  0.00000000000E+00  0.73198413715E+03  0.73198413715E+03  0.00000000000E+00 0.  1.
         21   -1    0    0  502  503 -0.00000000000E+00 -0.00000000000E+00 -0.10022661070E+03  0.10022661070E+03  0.00000000000E+00 0.  1.
         -6    2    1    2    0  503 -0.79953597769E+02 -0.18544180539E+03  0.23183407872E+03  0.35241938074E+03  0.17225312444E+03 0.  0.
        -24    2    3    3    0    0 -0.81813567251E+02 -0.65178431413E+02  0.17724169482E+03  0.22024844222E+03  0.78441508224E+02 0.  0.
          6    2    1    2  501    0  0.79953597769E+02  0.18544180539E+03  0.39992344772E+03  0.47979136711E+03  0.17169668293E+03 0.  0.
         24    2    5    5    0    0  0.63283761817E+02  0.80883581390E+02  0.10825383811E+03  0.16946322335E+03  0.80323734687E+02 0.  0.
          5    1    5    5  501    0  0.16669835951E+02  0.10455822400E+03  0.29166960962E+03  0.31032814377E+03  0.47000000000E+01 0. -1.
        -13    1    6    6    0    0 -0.14612726155E+02  0.81420183662E+01  0.38795390350E+02  0.42248154293E+02  0.00000000000E+00 0.  1.
         14    1    6    6    0    0  0.77896487973E+02  0.72741563024E+02  0.69458447757E+02  0.12721506905E+03  0.00000000000E+00 0. -1.
         -5    1    3    3    0  503  0.18599694819E+01 -0.12026337398E+03  0.54592383901E+02  0.13217093851E+03  0.47000000000E+01 0.  1.
         13    1    4    4    0    0 -0.81186073523E+02 -0.32374399743E+02  0.83292663965E+02  0.12073503287E+03  0.00000000000E+00 0. -1.
        -14    1    4    4    0    0 -0.62749372798E+00 -0.32804031671E+02  0.93949030854E+02  0.99513409351E+02  0.00000000000E+00 0.  1.
</event>
<event>
12    1  0.9873238E-001  0.2002599E+03  0.7818608E-02  0.1149543E+00
         21   -1    0    0  503  502  0.00000000000E+00  0.00000000000E+00  0.30848095911E+02  0.30848095911E+02  0.00000000000E+00 0. -1.
         21   -1    0    0  501  503 -0.00000000000E+00 -0.00000000000E+00 -0.14939862259E+04  0.14939862259E+04  0.00000000000E+00 0. -1.
          6    2    1    2  501    0 -0.91813138267E+02 -0.53877805734E+02 -0.45654351997E+03  0.49853386060E+03  0.16962179762E+03 0.  0.
         24    2    3    3    0    0 -0.95099244499E+02 -0.55118688937E+02 -0.20209836316E+03  0.24402105913E+03  0.81367024863E+02 0.  0.
         -6    2    1    2    0  502  0.91813138267E+02  0.53877805734E+02 -0.10065946100E+04  0.10263004612E+04  0.16949176220E+03 0.  0.
        -24    2    5    5    0    0  0.19212269369E+02  0.34229077359E+02 -0.23841840797E+03  0.25443666099E+03  0.79711581140E+02 0.  0.
          5    1    3    3  501    0  0.32861062318E+01  0.12408832032E+01 -0.25444515681E+03  0.25451280147E+03  0.47000000000E+01 0. -1.
        -13    1    4    4    0    0 -0.40403276881E+02  0.25223955519E+01 -0.13196979547E+03  0.13803917624E+03  0.00000000000E+00 0.  1.
         14    1    4    4    0    0 -0.54695967618E+02 -0.57641084489E+02 -0.70128567691E+02  0.10598188289E+03  0.00000000000E+00 0. -1.
         -5    1    5    5    0  502  0.72600868899E+02  0.19648728375E+02 -0.76817620203E+03  0.77186380020E+03  0.47000000000E+01 0.  1.
         13    1    6    6    0    0 -0.11793351074E+02 -0.21776038959E+02 -0.71201443093E+02  0.75385174278E+02  0.00000000000E+00 0. -1.
        -14    1    6    6    0    0  0.31005620443E+02  0.56005116318E+02 -0.16721696488E+03  0.17905148672E+03  0.00000000000E+00 0.  1.
</event>
<event>
12    1  0.9873238E-001  0.2918037E+03  0.7818608E-02  0.1089434E+00
         21   -1    0    0  503  502  0.00000000000E+00  0.00000000000E+00  0.53362275106E+03  0.53362275106E+03  0.00000000000E+00 0.  1.
         21   -1    0    0  501  503 -0.00000000000E+00 -0.00000000000E+00 -0.16155101726E+03  0.16155101726E+03  0.00000000000E+00 0.  1.
          6    2    1    2  501    0 -0.22186363370E+03  0.78373751087E+02  0.22539978826E+03  0.36858218886E+03  0.17228420872E+03 0.  0.
         24    2    3    3    0    0 -0.13337274206E+03 -0.11917708655E+02  0.76983415006E+02  0.17356245792E+03  0.79165399681E+02 0.  0.
         -6    2    1    2    0  502  0.22186363370E+03 -0.78373751087E+02  0.14667194554E+03  0.32659157946E+03  0.17257891918E+03 0.  0.
        -24    2    5    5    0    0  0.21658756250E+03 -0.56519236066E+02  0.17103208371E+03  0.29311079264E+03  0.80977569912E+02 0.  0.
          5    1    3    3  501    0 -0.88490891639E+02  0.90291459742E+02  0.14841637325E+03  0.19501973094E+03  0.47000000000E+01 0. -1.
        -13    1    4    4    0    0 -0.36628605667E+01 -0.11481343453E+02 -0.11410615896E+02  0.16596383646E+02  0.00000000000E+00 0.  1.
         14    1    4    4    0    0 -0.12970988150E+03 -0.43636520189E+00  0.88394030902E+02  0.15696607427E+03  0.00000000000E+00 0. -1.
         -5    1    5    5    0  502  0.52760712040E+01 -0.21854515021E+02 -0.24360138171E+02  0.33480786817E+02  0.47000000000E+01 0.  1.
         11    1    6    6    0    0  0.16150649520E+03 -0.31336087404E+02  0.77928828821E+02  0.18204175545E+03  0.00000000000E+00 0. -1.
        -12    1    6    6    0    0  0.55081067297E+02 -0.25183148662E+02  0.93103254889E+02  0.11106903719E+03  0.00000000000E+00 0.  1.
</event>
<event>
12    1  0.9873238E-001  0.2225920E+03  0.7818608E-02  0.1131983E+00
         21   -1    0    0  503  502  0.00000000000E+00  0.00000000000E+00  0.42975091628E+02  0.42975091628E+02  0.00000000000E+00 0. -1.
         21   -1    0    0  501  503 -0.00000000000E+00 -0.00000000000E+00 -0.11726673747E+04  0.11726673747E+04  0.00000000000E+00 0.  1.
          6    2    1    2  501    0  0.48455595870E+02  0.13462556373E+03 -0.48509707570E+03  0.53372876254E+03  0.17051460913E+03 0.  0.
         24    2    3    3    0    0  0.89422035468E+02  0.87089921323E+02 -0.25307008072E+03  0.29331973011E+03  0.80068992091E+02 0.  0.
         -6    2    1    2    0  502 -0.48455595870E+02 -0.13462556373E+03 -0.64459520741E+03  0.68191370382E+03  0.17038582942E+03 0.  0.
        -24    2    5    5    0    0  0.24525892524E+02 -0.28780334201E+02 -0.20172974463E+03  0.22073974707E+03  0.81248501703E+02 0.  0.
          5    1    3    3  501    0 -0.40966439598E+02  0.47535642410E+02 -0.23202699499E+03  0.24040903243E+03  0.47000000000E+01 0. -1.
        -13    1    4    4    0    0  0.46676085263E+02  0.89995051310E+02 -0.20647319109E+03  0.23001944447E+03  0.00000000000E+00 0.  1.
         14    1    4    4    0    0  0.42745950206E+02 -0.29051299864E+01 -0.46596889631E+02  0.63300285643E+02  0.00000000000E+00 0. -1.
         -5    1    5    5    0  502 -0.72981488394E+02 -0.10584522953E+03 -0.44286546278E+03  0.46117395675E+03  0.47000000000E+01 0.  1.
         11    1    6    6    0    0  0.33817783292E+02 -0.18663353604E+02 -0.20327892225E+03  0.20691612665E+03  0.00000000000E+00 0. -1.
        -12    1    6    6    0    0 -0.92918907680E+01 -0.10116980598E+02  0.15491776206E+01  0.13823620429E+02  0.00000000000E+00 0.  1.
</event>
<event>
12    1  0.9873238E-001  0.2356404E+03  0.7818608E-02  0.1122983E+00
         21   -1    0    0  501  502  0.00000000000E+00  0.00000000000E+00  0.47076814428E+02  0.47076814428E+02  0.00000000000E+00 0. -1.
         21   -1    0    0  502  503 -0.00000000000E+00 -0.00000000000E+00 -0.17066625755E+04  0.17066625755E+04  0.00000000000E+00 0. -1.
         -6    2    1    2    0  503  0.13058730254E+03 -0.92858507393E+02 -0.34084319573E+03  0.41436754647E+03  0.17277335881E+03 0.  0.
        -24    2    3    3    0    0 -0.10305614081E+02 -0.41070292256E+02 -0.86424883392E+02  0.11892956510E+03  0.69871356070E+02 0.  0.
          6    2    1    2  501    0 -0.13058730254E+03  0.92858507393E+02 -0.13187425654E+04  0.13393718435E+04  0.17076075493E+03 0.  0.
         24    2    5    5    0    0 -0.12786300466E+03  0.12467608640E+03 -0.12172997849E+04  0.12329175911E+04  0.79836994891E+02 0.  0.
          5    1    5    5  501    0 -0.27242978805E+01 -0.31817579005E+02 -0.10144278050E+03  0.10645425238E+03  0.47000000000E+01 0. -1.
        -11    1    6    6    0    0 -0.28838600376E+02  0.69566200345E+02 -0.33441929644E+03  0.34279350480E+03  0.00000000000E+00 0.  1.
         12    1    6    6    0    0 -0.99024404280E+02  0.55109886053E+02 -0.88288048843E+03  0.89012408631E+03  0.00000000000E+00 0. -1.
         -5    1    3    3    0  503  0.14089291662E+03 -0.51788215137E+02 -0.25441831234E+03  0.29543798137E+03  0.47000000000E+01 0.  1.
         11    1    4    4    0    0  0.14056505821E+02 -0.45254816539E+02 -0.26932816643E+02  0.54506516933E+02  0.00000000000E+00 0. -1.
        -12    1    4    4    0    0 -0.24362119902E+02  0.41845242829E+01 -0.59492066749E+02  0.64423048171E+02  0.00000000000E+00 0.  1.
</event>
<event>
12    1  0.9873238E-001  0.1742905E+03  0.7818608E-02  0.1173948E+00
         21   -1    0    0  501  502  0.00000000000E+00  0.00000000000E+00  0.14743407685E+04  0.14743407685E+04  0.00000000000E+00 0.  1.
         21   -1    0    0  502  503 -0.00000000000E+00 -0.00000000000E+00 -0.26355083824E+02  0.26355083824E+02  0.00000000000E+00 0.  1.
         -6    2    1    2    0  503 -0.57945232537E+01 -0.41195273490E+01  0.36326385726E+03  0.40206096627E+03  0.17216806787E+03 0.  0.
        -24    2    3    3    0    0  0.38076543458E+02  0.84287075444E+01  0.95168858945E+02  0.13006988770E+03  0.79625358410E+02 0.  0.
          6    2    1    2  501    0  0.57945232537E+01  0.41195273490E+01  0.10847218274E+04  0.10986348860E+04  0.17414540762E+03 0.  0.
         24    2    5    5    0    0 -0.42252090981E+02 -0.15064653264E+02  0.95291549747E+03  0.95696093454E+03  0.75591679108E+02 0.  0.
          5    1    5    5  501    0  0.48046614235E+02  0.19184180613E+02  0.13180632993E+03  0.14167395151E+03  0.47000000000E+01 0. -1.
        -11    1    6    6    0    0 -0.12670174038E+02 -0.38982464119E+02  0.28150471468E+03  0.28447332072E+03  0.00000000000E+00 0.  1.
         12    1    6    6    0    0 -0.29581916943E+02  0.23917810856E+02  0.67141078279E+03  0.67248761382E+03  0.00000000000E+00 0. -1.
         -5    1    3    3    0  503 -0.43871066712E+02 -0.12548234893E+02  0.26809499832E+03  0.27199107856E+03  0.47000000000E+01 0.  1.
         13    1    4    4    0    0  0.62470514962E+02  0.12924687229E+02  0.70718104528E+02  0.95240028810E+02  0.00000000000E+00 0. -1.
        -14    1    4    4    0    0 -0.24393971504E+02 -0.44959796843E+01  0.24450754416E+02  0.34829858894E+02  0.00000000000E+00 0.  1.
</event>
<event>
12    1  0.9873238E-001  0.1950928E+03  0.7818608E-02  0.1154087E+00
         21   -1    0    0  501  502  0.00000000000E+00  0.00000000000E+00  0.68443790928E+03  0.68443790928E+03  0.00000000000E+00 0. -1.
         21   -1    0    0  502  503 -0.00000000000E+00 -0.00000000000E+00 -0.60165391688E+02  0.60165391688E+02  0.00000000000E+00 0. -1.
         -6    2    1    2    0  503 -0.69877852603E+02 -0.60471428084E+02  0.20811574581E+03  0.28526019983E+03  0.17181824715E+03 0.  0.
        -24    2    3    3    0    0 -0.57534366943E+01  0.52192900217E+00  0.30366220481E+02  0.86642189367E+02  0.80940639905E+02 0.  0.
          6    2    1    2  501    0  0.69877852603E+02  0.60471428084E+02  0.41615677178E+03  0.45934310114E+03  0.17108453457E+03 0.  0.
         24    2    5    5    0    0  0.10610366015E+03  0.33308736593E+02  0.37073036366E+03  0.39503315248E+03  0.79010951095E+02 0.  0.
          5    1    5    5  501    0 -0.36225807544E+02  0.27162691491E+02  0.45426408119E+02  0.64309948654E+02  0.47000000000E+01 0. -1.
        -11    1    6    6    0    0  0.47545214402E+02  0.44674884701E+02  0.11292296003E+03  0.13041467570E+03  0.00000000000E+00 0.  1.
         12    1    6    6    0    0  0.58558445746E+02 -0.11366148108E+02  0.25780740362E+03  0.26461847678E+03  0.00000000000E+00 0. -1.
         -5    1    3    3    0  503 -0.64124415909E+02 -0.60993357086E+02  0.17774952533E+03  0.19861801046E+03  0.47000000000E+01 0.  1.
         13    1    4    4    0    0 -0.15210762380E+02  0.29454211235E+02  0.42477994276E+02  0.53882259134E+02  0.00000000000E+00 0. -1.
        -14    1    4    4    0    0  0.94573256860E+01 -0.28932282233E+02 -0.12111773796E+02  0.32759930232E+02  0.00000000000E+00 0.  1.
</event>
<event>
12    1  0.9873238E-001  0.2169249E+03  0.7818608E-02  0.1136285E+00
         21   -1    0    0  503  502  0.00000000000E+00  0.00000000000E+00  0.25086104789E+03  0.25086104789E+03  0.00000000000E+00 0. -1.
         21   -1    0    0  501  503 -0.00000000000E+00 -0.00000000000E+00 -0.18850722078E+03  0.18850722078E+03  0.00000000000E+00 0. -1.
          6    2    1    2  501    0 -0.12737764555E+02  0.13215188037E+03  0.49592561928E+02  0.22206834509E+03  0.17096361474E+03 0.  0.
         24    2    3    3    0    0  0.23670436403E+02  0.16307801115E+02  0.52350860507E+00  0.91013891569E+02  0.86354041368E+02 0.  0.
         -6    2    1    2    0  502  0.12737764555E+02 -0.13215188037E+03  0.12761265183E+02  0.21729992357E+03  0.17155184862E+03 0.  0.
        -24    2    5    5    0    0  0.63939666136E+02 -0.11084951263E+03 -0.21100238102E+02  0.15215303569E+03  0.79557720338E+02 0.  0.
          5    1    3    3  501    0 -0.36408200958E+02  0.11584407925E+03  0.49069053323E+02  0.13105445353E+03  0.47000000000E+01 0. -1.
        -13    1    4    4    0    0 -0.78768503255E+01 -0.29908189029E+02 -0.12833754336E+02  0.33485068201E+02  0.00000000000E+00 0.  1.
         14    1    4    4    0    0  0.31547286728E+02  0.46215990144E+02  0.13357262941E+02  0.57528823369E+02  0.00000000000E+00 0. -1.
         -5    1    5    5    0  502 -0.51201901581E+02 -0.21302367741E+02  0.33861503285E+02  0.65146887889E+02  0.47000000000E+01 0.  1.
         11    1    6    6    0    0  0.41324281994E+02 -0.58316944213E+02 -0.50818836154E+02  0.87699010101E+02  0.00000000000E+00 0. -1.
        -12    1    6    6    0    0  0.22615384143E+02 -0.52532568413E+02  0.29718598051E+02  0.64454025585E+02  0.00000000000E+00 0.  1.
</event>
<event>
12    1  0.9873238E-001  0.1842892E+03  0.7818608E-02  0.1163986E+00
         21   -1    0    0  501  502  0.00000000000E+00  0.00000000000E+00  0.12269910519E+03  0.12269910519E+03  0.00000000000E+00 0. -1.
         21   -1    0    0  502  503 -0.00000000000E+00 -0.00000000000E+00 -0.33531780305E+03  0.33531780305E+03  0.00000000000E+00 0. -1.
         -6    2    1    2    0  503  0.91865307871E+01  0.64259177884E+02 -0.95108585826E+01  0.18453450651E+03  0.17247867513E+03 0.  0.
        -24    2    3    3    0    0 -0.53143226573E+02  0.33050352965E+02 -0.39670674273E+02  0.10843789760E+03  0.79173776450E+02 0.  0.
          6    2    1    2  501    0 -0.91865307871E+01 -0.64259177884E+02 -0.20310783927E+03  0.27348240173E+03  0.17124892815E+03 0.  0.
         24    2    5    5    0    0 -0.47374145243E+02 -0.27527438286E+02 -0.40555050706E+02  0.10244727767E+03  0.76476552405E+02 0.  0.
          5    1    5    5  501    0  0.38187614456E+02 -0.36731739598E+02 -0.16255278856E+03  0.17103512406E+03  0.47000000000E+01 0. -1.
        -11    1    6    6    0    0  0.48172331866E+01  0.43226323481E+01  0.17176992188E+02  0.18355924019E+02  0.00000000000E+00 0.  1.
         12    1    6    6    0    0 -0.52191378430E+02 -0.31850070634E+02 -0.57732042894E+02  0.84091353649E+02  0.00000000000E+00 0. -1.
         -5    1    3    3    0  503  0.62329757360E+02  0.31208824919E+02  0.30159815690E+02  0.76096608912E+02  0.47000000000E+01 0.  1.
         13    1    4    4    0    0  0.82118211639E+01 -0.11228106408E+02  0.10692546611E+02  0.17545225372E+02  0.00000000000E+00 0. -1.
        -14    1    4    4    0    0 -0.61355047737E+02  0.44278459373E+02 -0.50363220884E+02  0.90892672229E+02  0.00000000000E+00 0.  1.
</event>
<event>
12    1  0.9873238E-001  0.2200733E+03  0.7818608E-02  0.1133950E+00
         21   -1    0    0  501  502  0.00000000000E+00  0.00000000000E+00  0.11754257509E+03  0.11754257509E+03  0.00000000000E+00 0. -1.
         21   -1    0    0  502  503 -0.00000000000E+00 -0.00000000000E+00 -0.41410777449E+03  0.41410777449E+03  0.00000000000E+00 0. -1.
         -6    2    1    2    0  503 -0.94191301059E+02  0.97915532977E+02 -0.12438026167E+03  0.25222249118E+03  0.17229707708E+03 0.  0.
        -24    2    3    3    0    0 -0.80336055230E+02  0.13103102984E+03 -0.71888364550E+02  0.18845656585E+03  0.82005656545E+02 0.  0.
          6    2    1    2  501    0  0.94191301059E+02 -0.97915532977E+02 -0.17218493773E+03  0.27942785841E+03  0.17312660824E+03 0.  0.
         24    2    5    5    0    0  0.80603550679E+02 -0.45654369627E+02 -0.18717586305E+03  0.22319020201E+03  0.78726162845E+02 0.  0.
          5    1    5    5  501    0  0.13587750379E+02 -0.52261163350E+02  0.14990925320E+02  0.56237656397E+02  0.47000000000E+01 0. -1.
        -11    1    6    6    0    0 -0.86527966036E+01  0.69810673579E+00  0.20293905431E+01  0.89149687635E+01  0.00000000000E+00 0.  1.
         12    1    6    6    0    0  0.89256347283E+02 -0.46352476363E+02 -0.18920525359E+03  0.21427523325E+03  0.00000000000E+00 0. -1.
         -5    1    3    3    0  503 -0.13855245828E+02 -0.33115496861E+02 -0.52491897119E+02  0.63765925324E+02  0.47000000000E+01 0.  1.
         11    1    4    4    0    0 -0.50873740560E+02  0.12982650498E+02 -0.23359812957E+02  0.57466229683E+02  0.00000000000E+00 0. -1.
        -12    1    4    4    0    0 -0.29462314670E+02  0.11804837934E+03 -0.48528551593E+02  0.13099033617E+03  0.00000000000E+00 0.  1.
</event>
<event>
12    1  0.9873238E-001  0.2733161E+03  0.7818608E-02  0.1099408E+00
         21   -1    0    0  501  502  0.00000000000E+00  0.00000000000E+00  0.35070431298E+03  0.35070431298E+03  0.00000000000E+00 0. -1.
         21   -1    0    0  502  503 -0.00000000000E+00 -0.00000000000E+00 -0.21333313027E+03  0.21333313027E+03  0.00000000000E+00 0. -1.
         -6    2    1    2    0  503  0.12266823217E+03 -0.17324761260E+03  0.80785472706E+02  0.28500519216E+03  0.17216107720E+03 0.  0.
        -24    2    3    3    0    0  0.61254174175E+02 -0.13352866373E+02  0.44506941661E+02  0.10985885847E+03  0.78471192386E+02 0.  0.
          6    2    1    2  501    0 -0.12266823217E+03  0.17324761260E+03  0.56585710001E+02  0.27903225108E+03  0.17203146257E+03 0.  0.
         24    2    5    5    0    0 -0.69907480897E+02  0.18872167381E+03  0.63952595695E+02  0.22335905780E+03  0.72776425820E+02 0.  0.
          5    1    5    5  501    0 -0.52760751273E+02 -0.15474061211E+02 -0.73668856932E+01  0.55673193281E+02  0.47000000000E+01 0. -1.
        -13    1    6    6    0    0 -0.27045561064E+02  0.40588210915E+02 -0.13756094795E+02  0.50676378941E+02  0.00000000000E+00 0.  1.
         14    1    6    6    0    0 -0.42861919834E+02  0.14813346289E+03  0.77708690490E+02  0.17268267886E+03  0.00000000000E+00 0. -1.
         -5    1    3    3    0  503  0.61414057995E+02 -0.15989474623E+03  0.36278531045E+02  0.17514633369E+03  0.47000000000E+01 0.  1.
         13    1    4    4    0    0 -0.88920112251E+01  0.17710358908E+02 -0.23631880078E+01  0.19957688589E+02  0.00000000000E+00 0. -1.
        -14    1    4    4    0    0  0.70146185400E+02 -0.31063225281E+02  0.46870129669E+02  0.89901169882E+02  0.00000000000E+00 0.  1.
</event>
<event>
12    1  0.9873238E-001  0.1822255E+03  0.7818608E-02  0.1165766E+00
         21   -1    0    0  503  502  0.00000000000E+00  0.00000000000E+00  0.79588927414E+02  0.79588927414E+02  0.00000000000E+00 0. -1.
         21   -1    0    0  501  503 -0.00000000000E+00 -0.00000000000E+00 -0.43991461543E+03  0.43991461543E+03  0.00000000000E+00 0. -1.
          6    2    1    2  501    0  0.43173069205E+02  0.41056866166E+02 -0.11973626783E+03  0.21769333189E+03  0.17176737977E+03 0.  0.
         24    2    3    3    0    0 -0.22299459081E+02  0.68305223491E+02 -0.89110957868E+02  0.14030389755E+03  0.81126761460E+02 0.  0.
         -6    2    1    2    0  502 -0.43173069205E+02 -0.41056866166E+02 -0.24058942019E+03  0.30181021096E+03  0.17221078411E+03 0.  0.
        -24    2    5    5    0    0 -0.75001360541E+01 -0.81761796725E+02 -0.21571008611E+03  0.24205637597E+03  0.72932876352E+02 0.  0.
          5    1    3    3  501    0  0.65472528286E+02 -0.27248357325E+02 -0.30625309957E+02  0.77389434337E+02  0.47000000000E+01 0. -1.
        -13    1    4    4    0    0  0.11925898968E+01  0.69746544729E+02 -0.93201041780E+02  0.11641493444E+03  0.00000000000E+00 0.  1.
         14    1    4    4    0    0 -0.23492048978E+02 -0.14413212383E+01  0.40900839121E+01  0.23888963111E+02  0.00000000000E+00 0. -1.
         -5    1    5    5    0  502 -0.35672933150E+02  0.40704930559E+02 -0.24879334082E+02  0.59753834988E+02  0.47000000000E+01 0.  1.
         11    1    6    6    0    0 -0.95124983959E+01 -0.78103858504E+02 -0.22141936047E+03  0.23498347502E+03  0.00000000000E+00 0. -1.
        -12    1    6    6    0    0  0.20123623418E+01 -0.36579382206E+01  0.57092743586E+01  0.70729009552E+01  0.00000000000E+00 0.  1.
</event>
<event>
12    1  0.9873238E-001  0.2854086E+03  0.7818608E-02  0.1093485E+00
         21   -1    0    0  503  502  0.00000000000E+00  0.00000000000E+00  0.22611739839E+03  0.22611739839E+03  0.00000000000E+00 0.  1.
         21   -1    0    0  501  503 -0.00000000000E+00 -0.00000000000E+00 -0.46241956270E+03  0.46241956270E+03  0.00000000000E+00 0. -1.
          6    2    1    2  501    0  0.79491614031E+02  0.21303969588E+03  0.49707906891E+02  0.28448275419E+03  0.16356873999E+03 0.  0.
         24    2    3    3    0    0  0.91080725831E+02  0.17366501331E+03 -0.30509363305E+01  0.21747336173E+03  0.93968714917E+02 0.  0.
         -6    2    1    2    0  502 -0.79491614031E+02 -0.21303969588E+03 -0.28601007121E+03  0.40405420690E+03  0.17249119559E+03 0.  0.
        -24    2    5    5    0    0  0.10431338636E+02 -0.14941832862E+03 -0.21350763479E+03  0.27209774031E+03  0.77569455417E+02 0.  0.
          5    1    3    3  501    0 -0.11589111801E+02  0.39374682571E+02  0.52758843222E+02  0.67009392461E+02  0.47000000000E+01 0. -1.
        -11    1    4    4    0    0  0.28674594905E+02  0.13006015407E+03 -0.30346523115E+02  0.13659717250E+03  0.00000000000E+00 0.  1.
         12    1    4    4    0    0  0.62406130926E+02  0.43604859243E+02  0.27295586785E+02  0.80876189232E+02  0.00000000000E+00 0. -1.
         -5    1    5    5    0  502 -0.89922952667E+02 -0.63621367261E+02 -0.72502436419E+02  0.13195646659E+03  0.47000000000E+01 0.  1.
         11    1    6    6    0    0  0.93330851470E+01 -0.33831356837E+01 -0.57700772374E+02  0.58548537283E+02  0.00000000000E+00 0. -1.
        -12    1    6    6    0    0  0.10982534893E+01 -0.14603519294E+03 -0.15580686241E+03  0.21354920302E+03  0.00000000000E+00 0.  1.
</event>
<event>
12    1  0.9873238E-001  0.1923909E+03  0.7818608E-02  0.1156731E+00
         21   -1    0    0  501  502  0.00000000000E+00  0.00000000000E+00  0.27351002097E+03  0.27351002097E+03  0.00000000000E+00 0. -1.
         21   -1    0    0  502  503 -0.00000000000E+00 -0.00000000000E+00 -0.27546959764E+03  0.27546959764E+03  0.00000000000E+00 0. -1.
         -6    2    1    2    0  503 -0.29751331075E+02  0.79809386031E+02 -0.19765788826E+03  0.27583128786E+03  0.17250964834E+03 0.  0.
        -24    2    3    3    0    0 -0.11348841217E+02  0.11039498709E+03 -0.19705586694E+03  0.23982319079E+03  0.79801621384E+02 0.  0.
          6    2    1    2  501    0  0.29751331075E+02 -0.79809386031E+02  0.19569831159E+03  0.27314833075E+03  0.17046261067E+03 0.  0.
         24    2    5    5    0    0  0.24600756546E+02  0.14066981172E+02  0.14029631134E+03  0.16392025575E+03  0.79898173244E+02 0.  0.
          5    1    5    5  501    0  0.51505745296E+01 -0.93876367203E+02  0.55402000249E+02  0.10922807500E+03  0.47000000000E+01 0. -1.
        -11    1    6    6    0    0 -0.33136831254E+00 -0.27833195455E+02  0.88552003475E+02  0.92823778708E+02  0.00000000000E+00 0.  1.
         12    1    6    6    0    0  0.24932124858E+02  0.41900176628E+02  0.51744307862E+02  0.71096477040E+02  0.00000000000E+00 0. -1.
         -5    1    3    3    0  503 -0.18402489859E+02 -0.30585601054E+02 -0.60202132645E+00  0.36008097069E+02  0.47000000000E+01 0.  1.
         13    1    4    4    0    0 -0.59339075154E+01  0.14368701348E+02  0.47624329089E+01  0.16258893075E+02  0.00000000000E+00 0. -1.
        -14    1    4    4    0    0 -0.54149337013E+01  0.96026285737E+02 -0.20181829985E+03  0.22356429771E+03  0.00000000000E+00 0.  1.
</event>
<event>
12    1  0.9873238E-001  0.2894885E+03  0.7818608E-02  0.1090623E+00
         21   -1    0    0  501  502  0.00000000000E+00  0.00000000000E+00  0.22375505525E+03  0.22375505525E+03  0.00000000000E+00 0. -1.
         21   -1    0    0  502  503 -0.00000000000E+00 -0.00000000000E+00 -0.53188721736E+03  0.53188721736E+03  0.00000000000E+00 0.  1.
         -6    2    1    2    0  503 -0.20465620411E+03  0.11103346582E+03 -0.35960169406E+03  0.46161391022E+03  0.17193438089E+03 0.  0.
        -24    2    3    3    0    0 -0.15179449997E+03  0.76708884595E+02 -0.14428778799E+03  0.23721537015E+03  0.80785783883E+02 0.  0.
          6    2    1    2  501    0  0.20465620411E+03 -0.11103346582E+03  0.51469531948E+02  0.29402836239E+03  0.17202026845E+03 0.  0.
         24    2    5    5    0    0  0.21640214077E+03 -0.84647529908E+02  0.12162049079E+02  0.24502476200E+03  0.76773222583E+02 0.  0.
          5    1    5    5  501    0 -0.11745936657E+02 -0.26385935912E+02  0.39307482870E+02  0.49003600393E+02  0.47000000000E+01 0. -1.
        -11    1    6    6    0    0  0.21346014973E+03 -0.62954102027E+02  0.14420272994E+02  0.22301658852E+03  0.00000000000E+00 0.  1.
         12    1    6    6    0    0  0.29419910442E+01 -0.21693427881E+02 -0.22582239156E+01  0.22008173477E+02  0.00000000000E+00 0. -1.
         -5    1    3    3    0  503 -0.52861704146E+02  0.34324581225E+02 -0.21531390606E+03  0.22439854007E+03  0.47000000000E+01 0.  1.
         11    1    4    4    0    0 -0.18363029518E+02 -0.70466764949E+01  0.48737320514E+01  0.20263508255E+02  0.00000000000E+00 0. -1.
        -12    1    4    4    0    0 -0.13343147045E+03  0.83755561090E+02 -0.14916152005E+03  0.21695186190E+03  0.00000000000E+00 0.  1.
</event>
<event>
12    1  0.9873238E-001  0.5699998E+03  0.7818608E-02  0.9969850E-01
         21   -1    0    0  503  502  0.00000000000E+00  0.00000000000E+00  0.11116622271E+04  0.11116622271E+04  0.00000000000E+00 0.  1.
         21   -1    0    0  501  503 -0.00000000000E+00 -0.00000000000E+00 -0.29894240776E+03  0.29894240776E+03  0.00000000000E+00 0.  1.
          6    2    1    2  501    0 -0.53840294195E+03  0.71091612826E+02  0.29959441379E+03  0.64366433170E+03  0.17209071390E+03 0.  0.
         24    2    3    3    0    0 -0.42489731079E+03  0.36472623505E+02  0.16717248369E+03  0.46578892503E+03  0.84526365099E+02 0.  0.
         -6    2    1    2    0  502  0.53840294195E+03 -0.71091612826E+02  0.51312540555E+03  0.76694030315E+03  0.17311268429E+03 0.  0.
        -24    2    5    5    0    0  0.28583455163E+03 -0.33765735475E+02  0.18381359543E+03  0.35022412733E+03  0.77640103689E+02 0.  0.
          5    1    3    3  501    0 -0.11350563117E+03  0.34618989322E+02  0.13242193009E+03  0.17787540667E+03  0.47000000000E+01 0. -1.
        -11    1    4    4    0    0 -0.28847272784E+02  0.25255690343E+02  0.18888250003E+02  0.42740859022E+02  0.00000000000E+00 0.  1.
         12    1    4    4    0    0 -0.39605003800E+03  0.11216933162E+02  0.14828423369E+03  0.42304806601E+03  0.00000000000E+00 0. -1.
         -5    1    5    5    0  502  0.25256839033E+03 -0.37325877352E+02  0.32931181011E+03  0.41671617582E+03  0.47000000000E+01 0.  1.
         13    1    6    6    0    0  0.12313055144E+03 -0.30447391607E+02  0.12245021770E+03  0.17630153762E+03  0.00000000000E+00 0. -1.
        -14    1    6    6    0    0  0.16270400019E+03 -0.33183438672E+01  0.61363377735E+02  0.17392258971E+03  0.00000000000E+00 0.  1.
</event>
<event>
12    1  0.9873238E-001  0.1832326E+03  0.7818608E-02  0.1164803E+00
         21   -1    0    0  503  502  0.00000000000E+00  0.00000000000E+00  0.53348232572E+02  0.53348232572E+02  0.00000000000E+00 0. -1.
         21   -1    0    0  501  503 -0.00000000000E+00 -0.00000000000E+00 -0.64140807061E+03  0.64140807061E+03  0.00000000000E+00 0. -1.
          6    2    1    2  501    0 -0.40677863742E+02 -0.46443286507E+02 -0.34454658900E+03  0.39023908152E+03  0.17251817670E+03 0.  0.
         24    2    3    3    0    0 -0.74873314907E+02  0.14891301751E+02 -0.17558966960E+03  0.20720959971E+03  0.79223241467E+02 0.  0.
         -6    2    1    2    0  502  0.40677863742E+02  0.46443286507E+02 -0.24351324904E+03  0.30451722167E+03  0.17210568955E+03 0.  0.
        -24    2    5    5    0    0 -0.71098213613E+01  0.69470149594E+02 -0.79784694784E+02  0.13234571197E+03  0.79203148371E+02 0.  0.
          5    1    3    3  501    0  0.34195451165E+02 -0.61334588258E+02 -0.16895691940E+03  0.18302948181E+03  0.47000000000E+01 0. -1.
        -13    1    4    4    0    0  0.83500986055E+01  0.12435474101E+02 -0.75714087144E+02  0.77181527291E+02  0.00000000000E+00 0.  1.
         14    1    4    4    0    0 -0.83223413512E+02  0.24558276506E+01 -0.99875582456E+02  0.13002807242E+03  0.00000000000E+00 0. -1.
         -5    1    5    5    0  502  0.47787685103E+02 -0.23026863087E+02 -0.16372855426E+03  0.17217150969E+03  0.47000000000E+01 0.  1.
         11    1    6    6    0    0  0.35636199374E+02  0.28203209498E+02 -0.26946841236E+02  0.52834571867E+02  0.00000000000E+00 0. -1.
        -12    1    6    6    0    0 -0.42746020735E+02  0.41266940097E+02 -0.52837853548E+02  0.79511140108E+02  0.00000000000E+00 0.  1.
</event>
<event>
12    1  0.9873238E-001  0.1738338E+03  0.7818608E-02  0.1173908E+00
         21   -1    0    0  501  502  0.00000000000E+00  0.00000000000E+00  0.15083465492E+04  0.15083465492E+04  0.00000000000E+00 0.  1.
         21   -1    0    0  502  503 -0.00000000000E+00 -0.00000000000E+00 -0.21592798335E+02  0.21592798335E+02  0.00000000000E+00 0.  1.
         -6    2    1    2    0  503  0.91873884825E+01  0.26564679475E+02  0.94891817992E+03  0.96470922605E+03  0.17154616970E+03 0.  0.
        -24    2    3    3    0    0 -0.16538874660E+02 -0.41228311007E+02  0.67744240473E+03  0.68367734763E+03  0.80704373666E+02 0.  0.
          6    2    1    2  501    0 -0.91873884825E+01 -0.26564679475E+02  0.53783557097E+03  0.56523012152E+03  0.17154561656E+03 0.  0.
         24    2    5    5    0    0 -0.37880969629E+02  0.43083585128E+02  0.29825563487E+03  0.31404326250E+03  0.79847253051E+02 0.  0.
          5    1    5    5  501    0  0.28693581147E+02 -0.69648264602E+02  0.23957993610E+03  0.25118685902E+03  0.47000000000E+01 0. -1.
        -13    1    6    6    0    0  0.78846164647E+01  0.49489579360E+02  0.12348658618E+03  0.13326786037E+03  0.00000000000E+00 0.  1.
         14    1    6    6    0    0 -0.45765586094E+02 -0.64059942322E+01  0.17476904869E+03  0.18077540213E+03  0.00000000000E+00 0. -1.
         -5    1    3    3    0  503  0.25726263143E+02  0.67792990481E+02  0.27147577519E+03  0.28103187842E+03  0.47000000000E+01 0.  1.
         11    1    4    4    0    0  0.27396979077E+02 -0.13247718066E+02  0.11969950751E+03  0.12350736251E+03  0.00000000000E+00 0. -1.
        -12    1    4    4    0    0 -0.43935853737E+02 -0.27980592941E+02  0.55774289722E+03  0.56016998512E+03  0.00000000000E+00 0.  1.
</event>
<event>
12    1  0.9873238E-001  0.1781249E+03  0.7818608E-02  0.1169705E+00
         21   -1    0    0  501  502  0.00000000000E+00  0.00000000000E+00  0.11887066638E+03  0.11887066638E+03  0.00000000000E+00 0. -1.
         21   -1    0    0  502  503 -0.00000000000E+00 -0.00000000000E+00 -0.31346494821E+03  0.31346494821E+03  0.00000000000E+00 0. -1.
         -6    2    1    2    0  503  0.42965206910E+02 -0.58940433255E+01 -0.13659512497E+02  0.17864788261E+03  0.17276497020E+03 0.  0.
        -24    2    3    3    0    0  0.30327079098E+02  0.38816624556E+02 -0.60830192458E+02  0.11227070924E+03  0.80485637044E+02 0.  0.
          6    2    1    2  501    0 -0.42965206910E+02  0.58940433255E+01 -0.18093476933E+03  0.25368773198E+03  0.17245093752E+03 0.  0.
         24    2    5    5    0    0 -0.21554066749E+02  0.47929041859E+01 -0.85217718864E+01  0.79883298437E+02  0.76296599198E+02 0.  0.
          5    1    5    5  501    0 -0.21411140160E+02  0.11011391396E+01 -0.17241299745E+03  0.17380443354E+03  0.47000000000E+01 0. -1.
        -11    1    6    6    0    0 -0.10253859809E+02 -0.32462983019E+02  0.11718520886E+02  0.36004314175E+02  0.00000000000E+00 0.  1.
         12    1    6    6    0    0 -0.11300206941E+02  0.37255887205E+02 -0.20240292772E+02  0.43878984262E+02  0.00000000000E+00 0. -1.
         -5    1    3    3    0  503  0.12638127811E+02 -0.44710667882E+02  0.47170679961E+02  0.66377173373E+02  0.47000000000E+01 0.  1.
         11    1    4    4    0    0  0.69150443071E+01  0.29221168639E+02  0.14107289810E+02  0.33176952243E+02  0.00000000000E+00 0. -1.
        -12    1    4    4    0    0  0.23412034791E+02  0.95954559175E+01 -0.74937482268E+02  0.79093756997E+02  0.00000000000E+00 0.  1.
</event>
<event>
12    1  0.9873238E-001  0.4683128E+03  0.7818608E-02  0.1022415E+00
         21   -1    0    0  503  502  0.00000000000E+00  0.00000000000E+00  0.75482223928E+03  0.75482223928E+03  0.00000000000E+00 0. -1.
         21   -1    0    0  501  503 -0.00000000000E+00 -0.00000000000E+00 -0.32033354008E+03  0.32033354008E+03  0.00000000000E+00 0. -1.
          6    2    1    2  501    0 -0.38507666811E+03 -0.20315729836E+03  0.38163128059E+03  0.60411860731E+03  0.17251066396E+03 0.  0.
         24    2    3    3    0    0 -0.26208748050E+03 -0.95481964850E+02  0.16921930295E+03  0.33604910894E+03  0.80543020068E+02 0.  0.
         -6    2    1    2    0  502  0.38507666811E+03  0.20315729836E+03  0.52857418608E+02  0.47103717205E+03  0.17182893397E+03 0.  0.
        -24    2    5    5    0    0  0.11530517533E+03  0.37217386310E+02  0.50015296602E+02  0.15426772846E+03  0.81342392703E+02 0.  0.
          5    1    3    3  501    0 -0.12298918761E+03 -0.10767533351E+03  0.21241197764E+03  0.26806949838E+03  0.47000000000E+01 0. -1.
        -11    1    4    4    0    0 -0.19204471078E+02 -0.17664382704E+02 -0.57978256491E+01  0.26729326740E+02  0.00000000000E+00 0.  1.
         12    1    4    4    0    0 -0.24288300942E+03 -0.77817582145E+02  0.17501712860E+03  0.30931978220E+03  0.00000000000E+00 0. -1.
         -5    1    5    5    0  502  0.26977149278E+03  0.16593991205E+03  0.28421220069E+01  0.31676944358E+03  0.47000000000E+01 0.  1.
         13    1    6    6    0    0  0.10430554320E+03  0.57907427966E+02  0.53189007177E+02  0.13062154126E+03  0.00000000000E+00 0. -1.
        -14    1    6    6    0    0  0.10999632126E+02 -0.20690041656E+02 -0.31737105755E+01  0.23646187207E+02  0.00000000000E+00 0.  1.
</event>
<event>
12    1  0.9873238E-001  0.1731875E+03  0.7818608E-02  0.1174726E+00
         21   -1    0    0  501  502  0.00000000000E+00  0.00000000000E+00  0.22132830175E+04  0.22132830175E+04  0.00000000000E+00 0.  1.
         21   -1    0    0  502  503 -0.00000000000E+00 -0.00000000000E+00 -0.32755114861E+02  0.32755114861E+02  0.00000000000E+00 0.  1.
         -6    2    1    2    0  503 -0.17547528143E+02 -0.69623475931E+01  0.19504246270E+04  0.19580426107E+04  0.17151749076E+03 0.  0.
        -24    2    3    3    0    0 -0.13038328650E+02 -0.55384209367E+02  0.72082203259E+03  0.72746971981E+03  0.79939864379E+02 0.  0.
          6    2    1    2  501    0  0.17547528143E+02  0.69623475931E+01  0.23010327561E+03  0.28799552164E+03  0.17215549080E+03 0.  0.
         24    2    5    5    0    0  0.59582727123E+02 -0.19340670889E+02  0.78430500556E+02  0.12835364923E+03  0.79994705649E+02 0.  0.
          5    1    5    5  501    0 -0.42035198980E+02  0.26303018482E+02  0.15167277505E+03  0.15964187241E+03  0.47000000000E+01 0. -1.
        -13    1    6    6    0    0  0.89466603539E+01 -0.23011277124E+02 -0.97968091936E+01  0.26561985557E+02  0.00000000000E+00 0.  1.
         14    1    6    6    0    0  0.50636066769E+02  0.36706062353E+01  0.88227309749E+02  0.10179166367E+03  0.00000000000E+00 0. -1.
         -5    1    3    3    0  503 -0.45091994928E+01  0.48421861774E+02  0.12296025944E+04  0.12305728909E+04  0.47000000000E+01 0.  1.
         11    1    4    4    0    0  0.12517088451E+02 -0.16531573617E+01  0.17200315968E+02  0.21336853141E+02  0.00000000000E+00 0. -1.
        -12    1    4    4    0    0 -0.25555417101E+02 -0.53731052005E+02  0.70362171662E+03  0.70613286667E+03  0.00000000000E+00 0.  1.
</event>
<event>
12    1  0.9873238E-001  0.1760791E+03  0.7818608E-02  0.1172006E+00
         21   -1    0    0  501  502  0.00000000000E+00  0.00000000000E+00  0.82455919516E+02  0.82455919516E+02  0.00000000000E+00 0.  1.
         21   -1    0    0  502  503 -0.00000000000E+00 -0.00000000000E+00 -0.46794214776E+03  0.46794214776E+03  0.00000000000E+00 0.  1.
         -6    2    1    2    0  503  0.28197706897E+02 -0.77768386523E+00 -0.68157589066E+02  0.18749130262E+03  0.17237115810E+03 0.  0.
        -24    2    3    3    0    0 -0.19473304654E+02  0.28654742114E+02 -0.92623730791E+02  0.12617674373E+03  0.78365243017E+02 0.  0.
          6    2    1    2  501    0 -0.28197706897E+02  0.77768386523E+00 -0.31732863918E+03  0.36290676465E+03  0.17380488808E+03 0.  0.
         24    2    5    5    0    0 -0.18353007475E+02 -0.68001477091E+02 -0.19702470170E+03  0.22390094298E+03  0.79698591037E+02 0.  0.
          5    1    5    5  501    0 -0.98446994221E+01  0.68779160956E+02 -0.12030393747E+03  0.13900582168E+03  0.47000000000E+01 0. -1.
        -11    1    6    6    0    0 -0.75545519176E+01 -0.75344550896E+02 -0.97142607260E+02  0.12316882215E+03  0.00000000000E+00 0.  1.
         12    1    6    6    0    0 -0.10798455557E+02  0.73430738052E+01 -0.99882094445E+02  0.10073212083E+03  0.00000000000E+00 0. -1.
         -5    1    3    3    0  503  0.47671011551E+02 -0.29432425979E+02  0.24466141725E+02  0.61314558892E+02  0.47000000000E+01 0.  1.
         13    1    4    4    0    0 -0.73926197094E+01  0.55518423433E+02 -0.64909095779E+02  0.85732939303E+02  0.00000000000E+00 0. -1.
        -14    1    4    4    0    0 -0.12080684944E+02 -0.26863681319E+02 -0.27714635012E+02  0.40443804428E+02  0.00000000000E+00 0.  1.
</event>
<event>
12    1  0.9873238E-001  0.2443591E+03  0.7818608E-02  0.1117021E+00
         21   -1    0    0  503  502  0.00000000000E+00  0.00000000000E+00  0.11016313334E+03  0.11016313334E+03  0.00000000000E+00 0.  1.
         21   -1    0    0  501  503 -0.00000000000E+00 -0.00000000000E+00 -0.55079950491E+03  0.55079950491E+03  0.00000000000E+00 0.  1.
          6    2    1    2  501    0  0.15789177295E+03 -0.70364299226E+02 -0.17580959427E+03  0.30103219948E+03  0.17271486651E+03 0.  0.
         24    2    3    3    0    0  0.78795996556E+02 -0.98601233883E+02 -0.15454310578E+03  0.21426918976E+03  0.78081378952E+02 0.  0.
         -6    2    1    2    0  502 -0.15789177295E+03  0.70364299226E+02 -0.26482677730E+03  0.35993043877E+03  0.17185968755E+03 0.  0.
        -24    2    5    5    0    0 -0.15510302880E+03  0.13853638410E+02 -0.14706656071E+03  0.22919868864E+03  0.81575687287E+02 0.  0.
          5    1    3    3  501    0  0.79095776395E+02  0.28236934657E+02 -0.21266488491E+02  0.86763009717E+02  0.47000000000E+01 0. -1.
        -13    1    4    4    0    0 -0.14612149083E+02 -0.88122885502E+01 -0.85896527548E+01  0.19103755253E+02  0.00000000000E+00 0.  1.
         14    1    4    4    0    0  0.93408145638E+02 -0.89788945333E+02 -0.14595345303E+03  0.19516543451E+03  0.00000000000E+00 0. -1.
         -5    1    5    5    0  502 -0.27887441531E+01  0.56510660816E+02 -0.11776021659E+03  0.13073175013E+03  0.47000000000E+01 0.  1.
         13    1    6    6    0    0 -0.92482841729E+01  0.54678434514E+01  0.10009103446E+02  0.14683672018E+02  0.00000000000E+00 0. -1.
        -14    1    6    6    0    0 -0.14585474462E+03  0.83857949582E+01 -0.15707566416E+03  0.21451501662E+03  0.00000000000E+00 0.  1.
</event>
<event>
12    1  0.9873238E-001  0.2377067E+03  0.7818608E-02  0.1121514E+00
         21   -1    0    0  501  502  0.00000000000E+00  0.00000000000E+00  0.12198909483E+04  0.12198909483E+04  0.00000000000E+00 0. -1.
         21   -1    0    0  502  503 -0.00000000000E+00 -0.00000000000E+00 -0.11864087663E+03  0.11864087663E+03  0.00000000000E+00 0. -1.
         -6    2    1    2    0  503 -0.15089148091E+03  0.61124229177E+02  0.10734327354E+04  0.10992030586E+04  0.17171230623E+03 0.  0.
        -24    2    3    3    0    0 -0.44108757341E+02 -0.24189952204E+02  0.35700467992E+03  0.36983874063E+03  0.82447658056E+02 0.  0.
          6    2    1    2  501    0  0.15089148091E+03 -0.61124229177E+02  0.27817336217E+02  0.23932876632E+03  0.17320520717E+03 0.  0.
         24    2    5    5    0    0  0.12794929697E+03 -0.91020417063E+02  0.63750914026E+02  0.18704647612E+03  0.79161014858E+02 0.  0.
          5    1    5    5  501    0  0.22942183944E+02  0.29896187887E+02 -0.35933577809E+02  0.52282290199E+02  0.47000000000E+01 0. -1.
        -11    1    6    6    0    0 -0.81866537053E+01  0.21782199004E+00 -0.47008610710E+01  0.94428195005E+01  0.00000000000E+00 0.  1.
         12    1    6    6    0    0  0.13613595067E+03 -0.91238239053E+02  0.68451775097E+02  0.17760365662E+03  0.00000000000E+00 0. -1.
         -5    1    3    3    0  503 -0.10678272357E+03  0.85314181381E+02  0.71642805552E+03  0.72936431798E+03  0.47000000000E+01 0.  1.
         11    1    4    4    0    0  0.22719670598E+02 -0.64733193939E+01  0.14314720013E+03  0.14508345254E+03  0.00000000000E+00 0. -1.
        -12    1    4    4    0    0 -0.66828427939E+02 -0.17716632811E+02  0.21385747980E+03  0.22475528809E+03  0.00000000000E+00 0.  1.
</event>
<event>
12    1  0.9873238E-001  0.1938057E+03  0.7818608E-02  0.1155342E+00
         21   -1    0    0  503  502  0.00000000000E+00  0.00000000000E+00  0.14736825642E+02  0.14736825642E+02  0.00000000000E+00 0.  1.
         21   -1    0    0  501  503 -0.00000000000E+00 -0.00000000000E+00 -0.28382747339E+04  0.28382747339E+04  0.00000000000E+00 0.  1.
          6    2    1    2  501    0  0.86037314643E+02 -0.22420537434E+02 -0.94770443953E+03  0.96731812374E+03  0.17220786219E+03 0.  0.
         24    2    3    3    0    0  0.57463211619E+01 -0.38510421009E+02 -0.71491834656E+03  0.72050446312E+03  0.80637251908E+02 0.  0.
         -6    2    1    2    0  502 -0.86037314643E+02  0.22420537434E+02 -0.18758334687E+04  0.18856934358E+04  0.17083158789E+03 0.  0.
        -24    2    5    5    0    0 -0.72556371685E+02 -0.19866011506E+02 -0.16978397858E+04  0.17021894053E+04  0.95549713885E+02 0.  0.
          5    1    3    3  501    0  0.80290993481E+02  0.16089883575E+02 -0.23278609297E+03  0.24681366061E+03  0.47000000000E+01 0. -1.
        -11    1    4    4    0    0  0.29864027756E+02 -0.52928343409E+02 -0.44580937837E+03  0.44993251887E+03  0.00000000000E+00 0.  1.
         12    1    4    4    0    0 -0.24117706594E+02  0.14417922400E+02 -0.26910896819E+03  0.27057194425E+03  0.00000000000E+00 0. -1.
         -5    1    5    5    0  502 -0.13480942958E+02  0.42286548940E+02 -0.17799368289E+03  0.18350403046E+03  0.47000000000E+01 0.  1.
         11    1    6    6    0    0 -0.72650662718E+02  0.66426466403E+01 -0.66151135098E+03  0.66552198388E+03  0.00000000000E+00 0. -1.
        -12    1    6    6    0    0  0.94291033216E-01 -0.26508658146E+02 -0.10363284348E+04  0.10366674214E+04  0.00000000000E+00 0.  1.
</event>
<event>
12    1  0.9873238E-001  0.2102915E+03  0.7818608E-02  0.1142732E+00
         21   -1    0    0  503  502  0.00000000000E+00  0.00000000000E+00  0.91877714590E+02  0.91877714590E+02  0.00000000000E+00 0. -1.
         21   -1    0    0  501  503 -0.00000000000E+00 -0.00000000000E+00 -0.46726474548E+03  0.46726474548E+03  0.00000000000E+00 0. -1.
          6    2    1    2  501    0 -0.10986503722E+03 -0.56599886180E+01 -0.20144733524E+03  0.28623677438E+03  0.17102075973E+03 0.  0.
         24    2    3    3    0    0 -0.97212577646E+02  0.37494947876E+02 -0.72812616593E+02  0.14988643841E+03  0.79423616867E+02 0.  0.
         -6    2    1    2    0  502  0.10986503722E+03  0.56599886180E+01 -0.17393969565E+03  0.27290568569E+03  0.17922090750E+03 0.  0.
        -24    2    5    5    0    0  0.19514384291E+02  0.41987121090E+02 -0.14216640790E+03  0.17036528949E+03  0.81665872904E+02 0.  0.
          5    1    3    3  501    0 -0.12652459577E+02 -0.43154936494E+02 -0.12863471864E+03  0.13635033596E+03  0.47000000000E+01 0. -1.
        -11    1    4    4    0    0 -0.33679312108E+02  0.53053300857E+02 -0.51009703962E+02  0.80937869345E+02  0.00000000000E+00 0.  1.
         12    1    4    4    0    0 -0.63533265537E+02 -0.15558352980E+02 -0.21802912631E+02  0.68948569068E+02  0.00000000000E+00 0. -1.
         -5    1    5    5    0  502  0.90350652931E+02 -0.36327132472E+02 -0.31773287758E+02  0.10254039620E+03  0.47000000000E+01 0.  1.
         11    1    6    6    0    0 -0.22324398729E+02 -0.74632322957E+01 -0.67663173765E+02  0.71640656745E+02  0.00000000000E+00 0. -1.
        -12    1    6    6    0    0  0.41838783020E+02  0.49450353385E+02 -0.74503234130E+02  0.98724632744E+02  0.00000000000E+00 0.  1.
</event>
<event>
12    1  0.9873238E-001  0.3390041E+03  0.7818608E-02  0.1067290E+00
         21   -1    0    0  501  502  0.00000000000E+00  0.00000000000E+00  0.15397493681E+03  0.15397493681E+03  0.00000000000E+00 0.  1.
         21   -1    0    0  502  503 -0.00000000000E+00 -0.00000000000E+00 -0.75546292719E+03  0.75546292719E+03  0.00000000000E+00 0. -1.
         -6    2    1    2    0  503  0.60670648795E+02 -0.28478724496E+03 -0.24685789981E+03  0.41883995573E+03  0.17234669507E+03 0.  0.
        -24    2    3    3    0    0  0.26818076694E+02 -0.27033776704E+03 -0.16232831619E+03  0.32652460188E+03  0.80412162475E+02 0.  0.
          6    2    1    2  501    0 -0.60670648795E+02  0.28478724496E+03 -0.35463009057E+03  0.49059790827E+03  0.17360617484E+03 0.  0.
         24    2    5    5    0    0  0.23729430046E+02  0.19027908130E+03 -0.17972744158E+03  0.27456968574E+03  0.79481723929E+02 0.  0.
          5    1    5    5  501    0 -0.84400078840E+02  0.94508163664E+02 -0.17490264898E+03  0.21602822253E+03  0.47000000000E+01 0. -1.
        -11    1    6    6    0    0 -0.54716294519E+01  0.15967802960E+02  0.62566716496E+01  0.18001538833E+02  0.00000000000E+00 0.  1.
         12    1    6    6    0    0  0.29201059497E+02  0.17431127834E+03 -0.18598411323E+03  0.25656814691E+03  0.00000000000E+00 0. -1.
         -5    1    3    3    0  503  0.33852572101E+02 -0.14449477925E+02 -0.84529583611E+02  0.92315353846E+02  0.47000000000E+01 0.  1.
         11    1    4    4    0    0 -0.52392524043E+01 -0.12889095057E+03 -0.11810686811E+03  0.17489871126E+03  0.00000000000E+00 0. -1.
        -12    1    4    4    0    0  0.32057329098E+02 -0.14144681647E+03 -0.44221448081E+02  0.15162589063E+03  0.00000000000E+00 0.  1.
</event>
<event>
12    1  0.9873238E-001  0.3433457E+03  0.7818608E-02  0.1065499E+00
         21   -1    0    0  501  502  0.00000000000E+00  0.00000000000E+00  0.15494721201E+03  0.15494721201E+03  0.00000000000E+00 0. -1.
         21   -1    0    0  502  503 -0.00000000000E+00 -0.00000000000E+00 -0.87414339587E+03  0.87414339587E+03  0.00000000000E+00 0.  1.
         -6    2    1    2    0  503  0.17582284549E+03  0.23887703828E+03 -0.17280911249E+03  0.38438165112E+03  0.17294609548E+03 0.  0.
        -24    2    3    3    0    0  0.13418186741E+03  0.11167614519E+03 -0.40112558162E+02  0.19584915050E+03  0.79193039356E+02 0.  0.
          6    2    1    2  501    0 -0.17582284549E+03 -0.23887703828E+03 -0.54638707138E+03  0.64470895676E+03  0.17068946878E+03 0.  0.
         24    2    5    5    0    0 -0.17149452637E+03 -0.12610899211E+03 -0.33296690541E+03  0.40324338194E+03  0.80152445469E+02 0.  0.
          5    1    5    5  501    0 -0.43283191161E+01 -0.11276804617E+03 -0.21342016596E+03  0.24146557482E+03  0.47000000000E+01 0. -1.
        -13    1    6    6    0    0  0.81464316542E+01 -0.63454912468E+01 -0.25797102610E+02  0.27787049338E+02  0.00000000000E+00 0.  1.
         14    1    6    6    0    0 -0.17964095803E+03 -0.11976350086E+03 -0.30716980280E+03  0.37545633261E+03  0.00000000000E+00 0. -1.
         -5    1    3    3    0  503  0.41640978077E+02  0.12720089309E+03 -0.13269655433E+03  0.18853250062E+03  0.47000000000E+01 0.  1.
         11    1    4    4    0    0 -0.89325361955E+01 -0.43728311444E+00 -0.62804119006E+01  0.10928174278E+02  0.00000000000E+00 0. -1.
        -12    1    4    4    0    0  0.14311440361E+03  0.11211342830E+03 -0.33832146261E+02  0.18492097622E+03  0.00000000000E+00 0.  1.
</event>
<event>
12    1  0.9873238E-001  0.2863759E+03  0.7818608E-02  0.1092845E+00
         21   -1    0    0  503  502  0.00000000000E+00  0.00000000000E+00  0.17727622418E+04  0.17727622418E+04  0.00000000000E+00 0.  1.
         21   -1    0    0  501  503 -0.00000000000E+00 -0.00000000000E+00 -0.99329010828E+02  0.99329010828E+02  0.00000000000E+00 0.  1.
          6    2    1    2  501    0  0.91184530004E+02  0.20258708024E+03  0.15096488563E+03  0.32373065168E+03  0.18070692999E+03 0.  0.
         24    2    3    3    0    0  0.10428313039E+03  0.19956163335E+03  0.80514263477E+02  0.25185501726E+03  0.79048000000E+02 0.  0.
         -6    2    1    2    0  502 -0.91184530004E+02 -0.20258708024E+03  0.15224683453E+04  0.15483606009E+04  0.17365063898E+03 0.  0.
        -24    2    5    5    0    0 -0.10057068173E+03 -0.10892773125E+03  0.68350215975E+03  0.70411743452E+03  0.81402988609E+02 0.  0.
          5    1    3    3  501    0 -0.13098600388E+02  0.30254468891E+01  0.70450622156E+02  0.71875634419E+02  0.47000000000E+01 0. -1.
        -13    1    4    4    0    0  0.20325577980E+02  0.12388807650E+03  0.39406909847E+02  0.13158377242E+03  0.00000000000E+00 0.  1.
         14    1    4    4    0    0  0.83957552412E+02  0.75673556853E+02  0.41107353630E+02  0.12027124484E+03  0.00000000000E+00 0. -1.
         -5    1    5    5    0  502  0.93861517294E+01 -0.93659348995E+02  0.83896618555E+03  0.84424316638E+03  0.47000000000E+01 0.  1.
         11    1    6    6    0    0 -0.13003325131E+02  0.80364837032E+01  0.22786928252E+02  0.27439308190E+02  0.00000000000E+00 0. -1.
        -12    1    6    6    0    0 -0.87567356603E+02 -0.11696421495E+03  0.66071523150E+03  0.67667812633E+03  0.00000000000E+00 0.  1.
</event>
<event>
12    1  0.9873238E-001  0.6827994E+03  0.7818608E-02  0.9747676E-01
         21   -1    0    0  501  502  0.00000000000E+00  0.00000000000E+00  0.78975321369E+03  0.78975321369E+03  0.00000000000E+00 0.  1.
         21   -1    0    0  502  503 -0.00000000000E+00 -0.00000000000E+00 -0.62715156495E+03  0.62715156495E+03  0.00000000000E+00 0.  1.
         -6    2    1    2    0  503 -0.20145080581E+03  0.62832388705E+03  0.25560873221E+03  0.72907528981E+03  0.17561782379E+03 0.  0.
        -24    2    3    3    0    0 -0.12203864392E+03  0.55785474031E+03  0.21764464932E+03  0.61622337938E+03  0.79162604940E+02 0.  0.
          6    2    1    2  501    0  0.20145080581E+03 -0.62832388705E+03 -0.93007083470E+02  0.68782948884E+03  0.17054546004E+03 0.  0.
         24    2    5    5    0    0  0.15316407055E+03 -0.52111298316E+03 -0.20108454784E+02  0.54940229939E+03  0.80128415003E+02 0.  0.
          5    1    5    5  501    0  0.48286735258E+02 -0.10721090389E+03 -0.72898628686E+02  0.13842718945E+03  0.47000000000E+01 0. -1.
        -13    1    6    6    0    0  0.28751076905E+01 -0.22323150071E+02 -0.17410866456E+02  0.28455711977E+02  0.00000000000E+00 0.  1.
         14    1    6    6    0    0  0.15028896286E+03 -0.49878983309E+03 -0.26975883276E+01  0.52094658741E+03  0.00000000000E+00 0. -1.
         -5    1    3    3    0  503 -0.79412161888E+02  0.70469146738E+02  0.37964082895E+02  0.11285191043E+03  0.47000000000E+01 0.  1.
         13    1    4    4    0    0 -0.55098117675E+02  0.37069877929E+03  0.17161854851E+03  0.41219693561E+03  0.00000000000E+00 0. -1.
        -14    1    4    4    0    0 -0.66940526244E+02  0.18715596103E+03  0.46026100808E+02  0.20402644377E+03  0.00000000000E+00 0.  1.
</event>
<event>
12    1  0.9873238E-001  0.2137571E+03  0.7818608E-02  0.1138642E+00
         21   -1    0    0  501  502  0.00000000000E+00  0.00000000000E+00  0.23818340741E+03  0.23818340741E+03  0.00000000000E+00 0. -1.
         21   -1    0    0  502  503 -0.00000000000E+00 -0.00000000000E+00 -0.25906589072E+03  0.25906589072E+03  0.00000000000E+00 0. -1.
         -6    2    1    2    0  503 -0.36908465822E+01 -0.12716865094E+03 -0.13717097878E+03  0.25398422993E+03  0.17177492106E+03 0.  0.
        -24    2    3    3    0    0  0.39715074883E+02 -0.41840314889E+02 -0.12456967569E+03  0.15731012900E+03  0.76817793901E+02 0.  0.
          6    2    1    2  501    0  0.36908465822E+01  0.12716865094E+03  0.11628849546E+03  0.24326506820E+03  0.17166651129E+03 0.  0.
         24    2    5    5    0    0  0.13892574132E+02  0.12098028239E+03  0.12507071332E+02  0.13869430199E+03  0.65195477061E+02 0.  0.
          5    1    5    5  501    0 -0.10201727550E+02  0.61883685534E+01  0.10378142413E+03  0.10457076621E+03  0.47000000000E+01 0. -1.
        -13    1    6    6    0    0 -0.21892966193E+02  0.39254608299E+02 -0.11319548856E+02  0.46350387568E+02  0.00000000000E+00 0.  1.
         14    1    6    6    0    0  0.35785540324E+02  0.81725674090E+02  0.23826620188E+02  0.92343914425E+02  0.00000000000E+00 0. -1.
         -5    1    3    3    0  503 -0.43405921465E+02 -0.85328336053E+02 -0.12601303084E+02  0.96674100933E+02  0.47000000000E+01 0.  1.
         11    1    4    4    0    0  0.13877134425E+02  0.22390180301E+02 -0.27501711576E+02  0.38082005900E+02  0.00000000000E+00 0. -1.
        -12    1    4    4    0    0  0.25837940457E+02 -0.64230495189E+02 -0.97067964118E+02  0.11922812310E+03  0.00000000000E+00 0.  1.
</event>
<event>
12    1  0.9873238E-001  0.6388204E+03  0.7818608E-02  0.9828371E-01
         21   -1    0    0  503  502  0.00000000000E+00  0.00000000000E+00  0.30123903720E+03  0.30123903720E+03  0.00000000000E+00 0.  1.
         21   -1    0    0  501  503 -0.00000000000E+00 -0.00000000000E+00 -0.18772239573E+04  0.18772239573E+04  0.00000000000E+00 0. -1.
          6    2    1    2  501    0  0.37973164009E+03  0.48320197917E+03 -0.13639441530E+04  0.15061325099E+04  0.17438811240E+03 0.  0.
         24    2    3    3    0    0  0.28244584403E+03  0.25183552097E+03 -0.83503044709E+03  0.92066964824E+03  0.84616601149E+02 0.  0.
         -6    2    1    2    0  502 -0.37973164009E+03 -0.48320197917E+03 -0.21204076713E+03  0.67233048461E+03  0.17142555953E+03 0.  0.
        -24    2    5    5    0    0 -0.15000744470E+03 -0.17264325889E+03 -0.25620428570E+02  0.24338461703E+03  0.79194299928E+02 0.  0.
          5    1    3    3  501    0  0.97285796056E+02  0.23136645820E+03 -0.52891370588E+03  0.58546286164E+03  0.47000000000E+01 0. -1.
        -13    1    4    4    0    0  0.19260678791E+03  0.18484909167E+03 -0.49145778683E+03  0.55928286017E+03  0.00000000000E+00 0.  1.
         14    1    4    4    0    0  0.89839056119E+02  0.66986429293E+02 -0.34357266026E+03  0.36138678807E+03  0.00000000000E+00 0. -1.
         -5    1    5    5    0  502 -0.22972419538E+03 -0.31055872028E+03 -0.18642033856E+03  0.42894586758E+03  0.47000000000E+01 0.  1.
         13    1    6    6    0    0 -0.23384351616E+02 -0.37947383983E+01 -0.21956113021E+02  0.32300136827E+02  0.00000000000E+00 0. -1.
        -14    1    6    6    0    0 -0.12662309309E+03 -0.16884852049E+03 -0.36643155488E+01  0.21108448020E+03  0.00000000000E+00 0.  1.
</event>
<event>
12    1  0.9873238E-001  0.2478656E+03  0.7818608E-02  0.1114988E+00
         21   -1    0    0  503  502  0.00000000000E+00  0.00000000000E+00  0.11800200960E+04  0.11800200960E+04  0.00000000000E+00 0.  1.
         21   -1    0    0  501  503 -0.00000000000E+00 -0.00000000000E+00 -0.62573145040E+02  0.62573145040E+02  0.00000000000E+00 0. -1.
          6    2    1    2  501    0 -0.16361401513E+03  0.61768277943E+02  0.82036258870E+03  0.85699014817E+03  0.17564871481E+03 0.  0.
         24    2    3    3    0    0 -0.16525788005E+03  0.93230634244E+02  0.76264905423E+03  0.79106955794E+03  0.90306962605E+02 0.  0.
         -6    2    1    2    0  502  0.16361401513E+03 -0.61768277943E+02  0.29708436228E+03  0.38560309289E+03  0.17275925684E+03 0.  0.
        -24    2    5    5    0    0  0.79921488771E+02 -0.94108367335E+02  0.13157704280E+03  0.19728133856E+03  0.79772045119E+02 0.  0.
          5    1    3    3  501    0  0.16438649158E+01 -0.31462356302E+02  0.57713534465E+02  0.65920590230E+02  0.47000000000E+01 0. -1.
        -13    1    4    4    0    0 -0.10524787990E+03  0.10420371362E+03  0.50309708672E+03  0.52444466707E+03  0.00000000000E+00 0.  1.
         14    1    4    4    0    0 -0.60010000149E+02 -0.10973079377E+02  0.25955196752E+03  0.26662489087E+03  0.00000000000E+00 0. -1.
         -5    1    5    5    0  502  0.83692526363E+02  0.32340089392E+02  0.16550731949E+03  0.18832175433E+03  0.47000000000E+01 0.  1.
         11    1    6    6    0    0  0.16189607180E+02  0.14019947532E+02  0.21295662671E+02  0.30202111814E+02  0.00000000000E+00 0. -1.
        -12    1    6    6    0    0  0.63731881591E+02 -0.10812831487E+03  0.11028138012E+03  0.16707922674E+03  0.00000000000E+00 0.  1.
</event>
<event>
12    1  0.9873238E-001  0.1821935E+03  0.7818608E-02  0.1169078E+00
         21   -1    0    0  501  502  0.00000000000E+00  0.00000000000E+00  0.74739425203E+03  0.74739425203E+03  0.00000000000E+00 0.  1.
         21   -1    0    0  502  503 -0.00000000000E+00 -0.00000000000E+00 -0.49839171943E+02  0.49839171943E+02  0.00000000000E+00 0.  1.
         -6    2    1    2    0  503  0.52543274656E+02  0.19233284883E+02  0.52624525028E+03  0.55689184980E+03  0.17338902492E+03 0.  0.
        -24    2    3    3    0    0  0.21845694640E+02  0.69437105807E+02  0.43493955988E+03  0.44816474115E+03  0.79877834382E+02 0.  0.
          6    2    1    2  501    0 -0.52543274656E+02 -0.19233284883E+02  0.17130982980E+03  0.24034157418E+03  0.15901666432E+03 0.  0.
         24    2    5    5    0    0  0.10763481635E+02 -0.41176852903E+02  0.55410500763E+02  0.10638632030E+03  0.80226802254E+02 0.  0.
          5    1    5    5  501    0 -0.63306756291E+02  0.21943568020E+02  0.11589932904E+03  0.13395525388E+03  0.47000000000E+01 0. -1.
        -11    1    6    6    0    0 -0.10995562407E+02 -0.33812296947E+02 -0.10102535526E+02  0.36962616811E+02  0.00000000000E+00 0.  1.
         12    1    6    6    0    0  0.21759044041E+02 -0.73645559557E+01  0.65513036289E+02  0.69423703487E+02  0.00000000000E+00 0. -1.
         -5    1    3    3    0  503  0.30697580016E+02 -0.50203820925E+02  0.91305690409E+02  0.10872710865E+03  0.47000000000E+01 0.  1.
         11    1    4    4    0    0  0.45366961570E+01  0.68139493235E+02  0.17816931399E+03  0.19080848146E+03  0.00000000000E+00 0. -1.
        -12    1    4    4    0    0  0.17308998483E+02  0.12976125724E+01  0.25677024588E+03  0.25735625968E+03  0.00000000000E+00 0.  1.
</event>
<event>
12    1  0.9873238E-001  0.1719003E+03  0.7818608E-02  0.1176022E+00
         21   -1    0    0  501  502  0.00000000000E+00  0.00000000000E+00  0.10972224823E+03  0.10972224823E+03  0.00000000000E+00 0.  1.
         21   -1    0    0  502  503 -0.00000000000E+00 -0.00000000000E+00 -0.26952481747E+03  0.26952481747E+03  0.00000000000E+00 0.  1.
         -6    2    1    2    0  503  0.10180310034E+02 -0.77600930547E+01 -0.68087003183E+02  0.18489333360E+03  0.17142300619E+03 0.  0.
        -24    2    3    3    0    0  0.60364538174E+02 -0.33254441548E+02 -0.20551317119E+02  0.11106820232E+03  0.84640732392E+02 0.  0.
          6    2    1    2  501    0 -0.10180310034E+02  0.77600930547E+01 -0.91715566061E+02  0.19435373210E+03  0.17087355081E+03 0.  0.
         24    2    5    5    0    0 -0.18314478925E+02  0.68454485489E+02 -0.49380555195E+02  0.11975938163E+03  0.82960433552E+02 0.  0.
          5    1    5    5  501    0  0.81341688910E+01 -0.60694392434E+02 -0.42335010867E+02  0.74594350467E+02  0.47000000000E+01 0. -1.
        -11    1    6    6    0    0  0.11766161057E+02  0.30919972703E+02  0.17462131670E+02  0.37408732943E+02  0.00000000000E+00 0.  1.
         12    1    6    6    0    0 -0.30080639981E+02  0.37534512786E+02 -0.66842686865E+02  0.82350648686E+02  0.00000000000E+00 0. -1.
         -5    1    3    3    0  503 -0.50184228140E+02  0.25494348493E+02 -0.47535686064E+02  0.73825131281E+02  0.47000000000E+01 0.  1.
         11    1    4    4    0    0  0.63191064853E+01  0.53827736528E+01 -0.40783559433E+02  0.41619755873E+02  0.00000000000E+00 0. -1.
        -12    1    4    4    0    0  0.54045431688E+02 -0.38637215201E+02  0.20232242314E+02  0.69448446447E+02  0.00000000000E+00 0.  1.
</event>
<event>
12    1  0.9873238E-001  0.1867305E+03  0.7818608E-02  0.1161844E+00
         21   -1    0    0  501  502  0.00000000000E+00  0.00000000000E+00  0.10813315704E+04  0.10813315704E+04  0.00000000000E+00 0. -1.
         21   -1    0    0  502  503 -0.00000000000E+00 -0.00000000000E+00 -0.50989954110E+02  0.50989954110E+02  0.00000000000E+00 0. -1.
         -6    2    1    2    0  503  0.69229401294E+02 -0.74341856809E+01  0.86264790676E+03  0.88262658094E+03  0.17326365237E+03 0.  0.
        -24    2    3    3    0    0  0.33645482900E+02 -0.72350738541E+02  0.48180045903E+03  0.49462240246E+03  0.78441002047E+02 0.  0.
          6    2    1    2  501    0 -0.69229401294E+02  0.74341856809E+01  0.16769370949E+03  0.24969494352E+03  0.17140130542E+03 0.  0.
         24    2    5    5    0    0  0.12974118758E+02 -0.38888953040E+02  0.78708739188E+02  0.11991179042E+03  0.80641759846E+02 0.  0.
          5    1    5    5  501    0 -0.82203520052E+02  0.46323138721E+02  0.88984970303E+02  0.12978315310E+03  0.47000000000E+01 0. -1.
        -11    1    6    6    0    0 -0.66176288907E+01 -0.44467319402E+02  0.71648357875E+01  0.45524393228E+02  0.00000000000E+00 0.  1.
         12    1    6    6    0    0  0.19591747648E+02  0.55783663617E+01  0.71543903401E+02  0.74387397192E+02  0.00000000000E+00 0. -1.
         -5    1    3    3    0  503  0.35583918394E+02  0.64916552860E+02  0.38084744772E+03  0.38800417848E+03  0.47000000000E+01 0.  1.
         11    1    4    4    0    0  0.41475632650E+02 -0.27220554735E+02  0.11878545927E+03  0.12872906446E+03  0.00000000000E+00 0. -1.
        -12    1    4    4    0    0 -0.78301497496E+01 -0.45130183805E+02  0.36301499977E+03  0.36589333800E+03  0.00000000000E+00 0.  1.
</event>
<event>
12    1  0.9873238E-001  0.1868187E+03  0.7818608E-02  0.1161731E+00
         21   -1    0    0  503  502  0.00000000000E+00  0.00000000000E+00  0.36827749731E+03  0.36827749731E+03  0.00000000000E+00 0. -1.
         21   -1    0    0  501  503 -0.00000000000E+00 -0.00000000000E+00 -0.98046345835E+02  0.98046345835E+02  0.00000000000E+00 0. -1.
          6    2    1    2  501    0 -0.42232629488E+02  0.59994447284E+02  0.86980329112E+02  0.20463302486E+03  0.17007694880E+03 0.  0.
         24    2    3    3    0    0 -0.26022053910E+02  0.84493985592E+02  0.11416173127E+03  0.16433502539E+03  0.78464761465E+02 0.  0.
         -6    2    1    2    0  502  0.42232629488E+02 -0.59994447284E+02  0.18325082236E+03  0.26169081828E+03  0.17180888155E+03 0.  0.
        -24    2    5    5    0    0  0.81700641028E+01 -0.39875782432E+02  0.19994885303E+03  0.21849436861E+03  0.78124370804E+02 0.  0.
          5    1    3    3  501    0 -0.16210575579E+02 -0.24499538309E+02 -0.27181402161E+02  0.40297999471E+02  0.47000000000E+01 0. -1.
        -13    1    4    4    0    0  0.20340202813E+02  0.46267237097E+02  0.23914621764E+02  0.55913238264E+02  0.00000000000E+00 0.  1.
         14    1    4    4    0    0 -0.46362256722E+02  0.38226748495E+02  0.90247109509E+02  0.10842178713E+03  0.00000000000E+00 0. -1.
         -5    1    5    5    0  502  0.34062565386E+02 -0.20118664851E+02 -0.16698030670E+02  0.43196449672E+02  0.47000000000E+01 0.  1.
         11    1    6    6    0    0  0.13342746801E+02  0.20335388856E+02  0.87713200927E+02  0.91022868275E+02  0.00000000000E+00 0. -1.
        -12    1    6    6    0    0 -0.51726826981E+01 -0.60211171289E+02  0.11223565210E+03  0.12747150033E+03  0.00000000000E+00 0.  1.
</event>
<event>
12    1  0.9873238E-001  0.1969332E+03  0.7818608E-02  0.1152656E+00
         21   -1    0    0  501  502  0.00000000000E+00  0.00000000000E+00  0.10939142365E+03  0.10939142365E+03  0.00000000000E+00 0.  1.
         21   -1    0    0  502  503 -0.00000000000E+00 -0.00000000000E+00 -0.56718929273E+03  0.56718929273E+03  0.00000000000E+00 0.  1.
         -6    2    1    2    0  503  0.66701192538E+02 -0.61408669953E+02 -0.43777324352E+03  0.48002927284E+03  0.17482166974E+03 0.  0.
        -24    2    3    3    0    0  0.38966796220E+02  0.30535939073E+02 -0.27679154472E+03  0.29251872590E+03  0.80639884587E+02 0.  0.
          6    2    1    2  501    0 -0.66701192538E+02  0.61408669953E+02 -0.20024625569E+02  0.19655144354E+03  0.17323801689E+03 0.  0.
         24    2    5    5    0    0 -0.36070459421E+02 -0.21187783547E+02  0.31013775646E+02  0.94632729161E+02  0.79015814456E+02 0.  0.
          5    1    5    5  501    0 -0.30630733117E+02  0.82596453500E+02 -0.51038401215E+02  0.10191871438E+03  0.47000000000E+01 0. -1.
        -13    1    6    6    0    0 -0.37632487787E+01  0.26058497315E+02 -0.52888774390E+01  0.26854786320E+02  0.00000000000E+00 0.  1.
         14    1    6    6    0    0 -0.32307210642E+02 -0.47246280862E+02  0.36302653085E+02  0.67777942842E+02  0.00000000000E+00 0. -1.
         -5    1    3    3    0  503  0.27734396318E+02 -0.91944609026E+02 -0.16098169880E+03  0.18751054694E+03  0.47000000000E+01 0.  1.
         11    1    4    4    0    0  0.45438842550E+02 -0.68730820171E+01 -0.81432595797E+02  0.93505055087E+02  0.00000000000E+00 0. -1.
        -12    1    4    4    0    0 -0.64720463302E+01  0.37409021090E+02 -0.19535894893E+03  0.19901367081E+03  0.00000000000E+00 0.  1.
</event>
<event>
12    1  0.9873238E-001  0.1867365E+03  0.7818608E-02  0.1161535E+00
         21   -1    0    0  501  502  0.00000000000E+00  0.00000000000E+00  0.24970205236E+04  0.24970205236E+04  0.00000000000E+00 0.  1.
         21   -1    0    0  502  503 -0.00000000000E+00 -0.00000000000E+00 -0.20271720750E+02  0.20271720750E+02  0.00000000000E+00 0.  1.
         -6    2    1    2    0  503 -0.53828612983E+01  0.73028195347E+02  0.53554232478E+03  0.56716497350E+03  0.17178018808E+03 0.  0.
        -24    2    3    3    0    0 -0.28671967487E+02  0.10737443026E+03  0.32804347430E+03  0.35550508294E+03  0.80124858632E+02 0.  0.
          6    2    1    2  501    0  0.53828612983E+01 -0.73028195347E+02  0.19412064781E+04  0.19501272709E+04  0.17132334787E+03 0.  0.
         24    2    5    5    0    0 -0.59577272184E+02 -0.67157351792E+02  0.11304731179E+04  0.11367608361E+04  0.78715736322E+02 0.  0.
          5    1    5    5  501    0  0.64960133482E+02 -0.58708435554E+01  0.81073336026E+03  0.81336643475E+03  0.47000000000E+01 0. -1.
        -13    1    6    6    0    0  0.15810799284E+02 -0.25882424737E+02  0.42304731760E+03  0.42413313265E+03  0.00000000000E+00 0.  1.
         14    1    6    6    0    0 -0.75388071468E+02 -0.41274927055E+02  0.70742580026E+03  0.71262770350E+03  0.00000000000E+00 0. -1.
         -5    1    3    3    0  503  0.23289106189E+02 -0.34346234913E+02  0.20749885048E+03  0.21165989055E+03  0.47000000000E+01 0.  1.
         13    1    4    4    0    0  0.10575539113E+02  0.61947067197E+02  0.24564664401E+03  0.25355779396E+03  0.00000000000E+00 0. -1.
        -14    1    4    4    0    0 -0.39247506601E+02  0.45427363063E+02  0.82396830291E+02  0.10194728898E+03  0.00000000000E+00 0.  1.
</event>
<event>
12    1  0.9873238E-001  0.2343130E+03  0.7818608E-02  0.1124078E+00
         21   -1    0    0  501  502  0.00000000000E+00  0.00000000000E+00  0.75060700692E+02  0.75060700692E+02  0.00000000000E+00 0.  1.
         21   -1    0    0  502  503 -0.00000000000E+00 -0.00000000000E+00 -0.75741003294E+03  0.75741003294E+03  0.00000000000E+00 0. -1.
         -6    2    1    2    0  503 -0.14708835771E+03 -0.61807508479E+02 -0.42740400397E+03  0.48620535089E+03  0.16812586815E+03 0.  0.
        -24    2    3    3    0    0 -0.10267456406E+02 -0.29665237099E+02 -0.11400431956E+03  0.14270202218E+03  0.79883886375E+02 0.  0.
          6    2    1    2  501    0  0.14708835771E+03  0.61807508479E+02 -0.25494532827E+03  0.34626538274E+03  0.17160256933E+03 0.  0.
         24    2    5    5    0    0  0.40059608460E+02  0.80066368282E+01 -0.34835848977E+02  0.95626279985E+02  0.79132613925E+02 0.  0.
          5    1    5    5  501    0  0.10702874925E+03  0.53800871651E+02 -0.22010947929E+03  0.25063910276E+03  0.47000000000E+01 0. -1.
        -13    1    6    6    0    0  0.64305100912E+02  0.59262733072E+01 -0.27693502684E+02  0.70265189173E+02  0.00000000000E+00 0.  1.
         14    1    6    6    0    0 -0.24245492452E+02  0.20803635210E+01 -0.71423462924E+01  0.25361090812E+02  0.00000000000E+00 0. -1.
         -5    1    3    3    0  503 -0.13682090130E+03 -0.32142271381E+02 -0.31339968442E+03  0.34350332871E+03  0.47000000000E+01 0.  1.
         13    1    4    4    0    0  0.39402146680E+01  0.14294960955E+02 -0.88889338388E+02  0.90117621359E+02  0.00000000000E+00 0. -1.
        -14    1    4    4    0    0 -0.14207671074E+02 -0.43960198054E+02 -0.25114981171E+02  0.52584400819E+02  0.00000000000E+00 0.  1.
</event>
<event>
12    1  0.9873238E-001  0.3726667E+03  0.7818608E-02  0.1053744E+00
         21   -1    0    0  503  502  0.00000000000E+00  0.00000000000E+00  0.19591860601E+03  0.19591860601E+03  0.00000000000E+00 0. -1.
         21   -1    0    0  501  503 -0.00000000000E+00 -0.00000000000E+00 -0.12605200710E+04  0.12605200710E+04  0.00000000000E+00 0. -1.
          6    2    1    2  501    0  0.31468316867E+03 -0.99636574453E+02 -0.49701958339E+02  0.37528120875E+03  0.17150147920E+03 0.  0.
         24    2    3    3    0    0  0.13897509391E+03 -0.76200824807E+02  0.31533101789E+02  0.18023304319E+03  0.79805832610E+02 0.  0.
         -6    2    1    2    0  502 -0.31468316867E+03  0.99636574453E+02 -0.10148995066E+04  0.10811574682E+04  0.17299571939E+03 0.  0.
        -24    2    5    5    0    0 -0.16229849085E+03  0.12132304283E+03 -0.54505154532E+03  0.58671779577E+03  0.78080112520E+02 0.  0.
          5    1    3    3  501    0  0.17570807476E+03 -0.23435749645E+02 -0.81235060128E+02  0.19504816557E+03  0.47000000000E+01 0. -1.
        -13    1    4    4    0    0  0.12038917671E+03 -0.64482759284E+02 -0.60433593308E+01  0.13670443411E+03  0.00000000000E+00 0.  1.
         14    1    4    4    0    0  0.18585917206E+02 -0.11718065523E+02  0.37576461120E+02  0.43528609078E+02  0.00000000000E+00 0. -1.
         -5    1    5    5    0  502 -0.15238467783E+03 -0.21686468374E+02 -0.46984796129E+03  0.49443967243E+03  0.47000000000E+01 0.  1.
         13    1    6    6    0    0 -0.34911719232E+02  0.44214284166E+02 -0.24941226018E+03  0.25569553495E+03  0.00000000000E+00 0. -1.
        -14    1    6    6    0    0 -0.12738677162E+03  0.77108758660E+02 -0.29563928513E+03  0.33102226082E+03  0.00000000000E+00 0.  1.
</event>
<event>
12    1  0.9873238E-001  0.2241230E+03  0.7818608E-02  0.1131428E+00
         21   -1    0    0  503  502  0.00000000000E+00  0.00000000000E+00  0.20300543923E+03  0.20300543923E+03  0.00000000000E+00 0. -1.
         21   -1    0    0  501  503 -0.00000000000E+00 -0.00000000000E+00 -0.38350493713E+03  0.38350493713E+03  0.00000000000E+00 0. -1.
          6    2    1    2  501    0  0.49452928850E+02  0.12929268405E+03 -0.26755959506E+03  0.34902615151E+03  0.17626380005E+03 0.  0.
         24    2    3    3    0    0  0.69917217161E+02  0.14959312582E+03 -0.26110281716E+03  0.31911503296E+03  0.79957504868E+02 0.  0.
         -6    2    1    2    0  502 -0.49452928850E+02 -0.12929268405E+03  0.87060097162E+02  0.23748422485E+03  0.17221238694E+03 0.  0.
        -24    2    5    5    0    0 -0.39593167016E+02 -0.10956729046E+02  0.75365041817E+02  0.11807117084E+03  0.81075539277E+02 0.  0.
          5    1    3    3  501    0 -0.20464288311E+02 -0.20300441770E+02 -0.64567779027E+01  0.29911118551E+02  0.47000000000E+01 0. -1.
        -11    1    4    4    0    0  0.74491357562E+02  0.12834022630E+03 -0.25733026056E+03  0.29705056647E+03  0.00000000000E+00 0.  1.
         12    1    4    4    0    0 -0.45741404013E+01  0.21252899516E+02 -0.37725565979E+01  0.22064466491E+02  0.00000000000E+00 0. -1.
         -5    1    5    5    0  502 -0.98597618344E+01 -0.11833595500E+03  0.11695055345E+02  0.11941305402E+03  0.47000000000E+01 0.  1.
         11    1    6    6    0    0 -0.11583821045E+02 -0.41893429052E+02  0.17796966182E+02  0.46967822103E+02  0.00000000000E+00 0. -1.
        -12    1    6    6    0    0 -0.28009345970E+02  0.30936700006E+02  0.57568075635E+02  0.71103348735E+02  0.00000000000E+00 0.  1.
</event>
<event>
12    1  0.9873238E-001  0.1929722E+03  0.7818608E-02  0.1155960E+00
         21   -1    0    0  503  502  0.00000000000E+00  0.00000000000E+00  0.74158801508E+03  0.74158801508E+03  0.00000000000E+00 0. -1.
         21   -1    0    0  501  503 -0.00000000000E+00 -0.00000000000E+00 -0.75847716992E+02  0.75847716992E+02  0.00000000000E+00 0. -1.
          6    2    1    2  501    0  0.79448478935E+02 -0.33396023818E+02  0.57091181984E+03  0.60242248860E+03  0.17188715348E+03 0.  0.
         24    2    3    3    0    0  0.10362492279E+03 -0.51927431912E+02  0.54324672257E+03  0.56100557020E+03  0.78585401937E+02 0.  0.
         -6    2    1    2    0  502 -0.79448478935E+02  0.33396023818E+02  0.94828478251E+02  0.21501324347E+03  0.17265833130E+03 0.  0.
        -24    2    5    5    0    0  0.10697268722E+02  0.48172982183E+02  0.16348704038E+02  0.94490302584E+02  0.78905445872E+02 0.  0.
          5    1    3    3  501    0 -0.24176443858E+02  0.18531408094E+02  0.27665097268E+02  0.41416918408E+02  0.47000000000E+01 0. -1.
        -11    1    4    4    0    0  0.10285773982E+03 -0.18520157671E+02  0.36566749920E+03  0.38030965127E+03  0.00000000000E+00 0.  1.
         12    1    4    4    0    0  0.76718297360E+00 -0.33407274241E+02  0.17757922337E+03  0.18069591892E+03  0.00000000000E+00 0. -1.
         -5    1    5    5    0  502 -0.90145747658E+02 -0.14776958365E+02  0.78479774213E+02  0.12052294089E+03  0.47000000000E+01 0.  1.
         11    1    6    6    0    0  0.60758179199E+01  0.66139226514E+02  0.28541953715E+02  0.72290773748E+02  0.00000000000E+00 0. -1.
        -12    1    6    6    0    0  0.46214508025E+01 -0.17966244330E+02 -0.12193249677E+02  0.22199528836E+02  0.00000000000E+00 0.  1.
</event>
<event>
12    1  0.9873238E-001  0.3538538E+03  0.7818608E-02  0.1061759E+00
         21   -1    0    0  503  502  0.00000000000E+00  0.00000000000E+00  0.36615609801E+03  0.36615609801E+03  0.00000000000E+00 0.  1.
         21   -1    0    0  501  503 -0.00000000000E+00 -0.00000000000E+00 -0.34039925314E+03  0.34039925314E+03  0.00000000000E+00 0.  1.
          6    2    1    2  501    0 -0.18220311688E+03  0.24058237963E+03 -0.30717077307E+02  0.34822333031E+03  0.17099149612E+03 0.  0.
         24    2    3    3    0    0 -0.15283302658E+03  0.11712896394E+03  0.24584672940E+02  0.20971801767E+03  0.79373248551E+02 0.  0.
         -6    2    1    2    0  502  0.18220311688E+03 -0.24058237963E+03  0.56473922181E+02  0.35833202083E+03  0.18475572001E+03 0.  0.
        -24    2    5    5    0    0  0.16032975697E+03 -0.19056897799E+03 -0.21469898208E+02  0.26305813483E+03  0.81954008001E+02 0.  0.
          5    1    3    3  501    0 -0.29370090306E+02  0.12345341569E+03 -0.55301750247E+02  0.13850531264E+03  0.47000000000E+01 0. -1.
        -11    1    4    4    0    0 -0.93676547112E+02  0.24317368829E+02  0.23753171556E+02  0.99653615412E+02  0.00000000000E+00 0.  1.
         12    1    4    4    0    0 -0.59156479465E+02  0.92811595114E+02  0.83150138418E+00  0.11006440226E+03  0.00000000000E+00 0. -1.
         -5    1    5    5    0  502  0.21873359913E+02 -0.50013401636E+02  0.77943820389E+02  0.95273886002E+02  0.47000000000E+01 0.  1.
         11    1    6    6    0    0  0.32555305363E+02 -0.80511202869E+02  0.20593948718E+02  0.89252520516E+02  0.00000000000E+00 0. -1.
        -12    1    6    6    0    0  0.12777445161E+03 -0.11005777513E+03 -0.42063846925E+02  0.17380561431E+03  0.00000000000E+00 0.  1.
</event>
<event>
12    1  0.9873238E-001  0.1971369E+03  0.7818608E-02  0.1154776E+00
         21   -1    0    0  501  502  0.00000000000E+00  0.00000000000E+00  0.59060531472E+03  0.59060531472E+03  0.00000000000E+00 0. -1.
         21   -1    0    0  502  503 -0.00000000000E+00 -0.00000000000E+00 -0.64680454288E+02  0.64680454288E+02  0.00000000000E+00 0. -1.
         -6    2    1    2    0  503 -0.56817251250E+02  0.44596926056E+02  0.32249105033E+03  0.37200451097E+03  0.17079166487E+03 0.  0.
        -24    2    3    3    0    0 -0.48313621407E+02 -0.81177495220E+01  0.29915197453E+03  0.31354126439E+03  0.80100666278E+02 0.  0.
          6    2    1    2  501    0  0.56817251250E+02 -0.44596926056E+02  0.20343381011E+03  0.28328125804E+03  0.18342810637E+03 0.  0.
         24    2    5    5    0    0  0.67804226177E+02 -0.94909494917E+02  0.12687713523E+03  0.19089574688E+03  0.82086255977E+02 0.  0.
          5    1    5    5  501    0 -0.10986974926E+02  0.50312568861E+02  0.76556674879E+02  0.92385511158E+02  0.47000000000E+01 0. -1.
        -13    1    6    6    0    0  0.44997538959E+02  0.21664878610E-01  0.39830911796E+02  0.60093930777E+02  0.00000000000E+00 0.  1.
         14    1    6    6    0    0  0.22806687218E+02 -0.94931159795E+02  0.87046223432E+02  0.13080181610E+03  0.00000000000E+00 0. -1.
         -5    1    3    3    0  503 -0.85036298434E+01  0.52714675578E+02  0.23339075791E+02  0.58463246579E+02  0.47000000000E+01 0.  1.
         11    1    4    4    0    0  0.20052462327E+02  0.46622572103E+01  0.37236794858E+02  0.42548992691E+02  0.00000000000E+00 0. -1.
        -12    1    4    4    0    0 -0.68366083734E+02 -0.12780006732E+02  0.26191517968E+03  0.27099227170E+03  0.00000000000E+00 0.  1.
</event>
<event>
12    1  0.9873238E-001  0.4440902E+03  0.7818608E-02  0.1029579E+00
         21   -1    0    0  503  502  0.00000000000E+00  0.00000000000E+00  0.85027788885E+03  0.85027788885E+03  0.00000000000E+00 0.  1.
         21   -1    0    0  501  503 -0.00000000000E+00 -0.00000000000E+00 -0.25783170003E+03  0.25783170003E+03  0.00000000000E+00 0. -1.
          6    2    1    2  501    0 -0.10694319596E+03 -0.39518624481E+03  0.47395167903E+03  0.64949693817E+03  0.17206703168E+03 0.  0.
         24    2    3    3    0    0 -0.13000864955E+03 -0.21582095100E+03  0.28266830492E+03  0.38621886657E+03  0.76044134841E+02 0.  0.
         -6    2    1    2    0  502  0.10694319596E+03  0.39518624481E+03  0.11849450979E+03  0.45861265071E+03  0.16933871173E+03 0.  0.
        -24    2    5    5    0    0  0.99657069743E+02  0.35501304741E+03  0.15115482026E+03  0.40611732421E+03  0.78215765367E+02 0.  0.
          5    1    3    3  501    0  0.23065453592E+02 -0.17936529381E+03  0.19128337412E+03  0.26327807160E+03  0.47000000000E+01 0. -1.
        -13    1    4    4    0    0 -0.38597794581E+02 -0.79678049340E+02  0.15457955256E+03  0.17813820299E+03  0.00000000000E+00 0.  1.
         14    1    4    4    0    0 -0.91410854967E+02 -0.13614290166E+03  0.12808875235E+03  0.20808066358E+03  0.00000000000E+00 0. -1.
         -5    1    5    5    0  502  0.72861262131E+01  0.40173197398E+02 -0.32660310469E+02  0.52495326500E+02  0.47000000000E+01 0.  1.
         11    1    6    6    0    0  0.23084726163E+02  0.17950324973E+02  0.23964778395E+02  0.37807794860E+02  0.00000000000E+00 0. -1.
        -12    1    6    6    0    0  0.76572343580E+02  0.33706272244E+03  0.12719004186E+03  0.36830952935E+03  0.00000000000E+00 0.  1.
</event>
<event>
12    1  0.9873238E-001  0.1949667E+03  0.7818608E-02  0.1154092E+00
         21   -1    0    0  503  502  0.00000000000E+00  0.00000000000E+00  0.43479574603E+03  0.43479574603E+03  0.00000000000E+00 0.  1.
         21   -1    0    0  501  503 -0.00000000000E+00 -0.00000000000E+00 -0.11813216395E+03  0.11813216395E+03  0.00000000000E+00 0.  1.
          6    2    1    2  501    0 -0.87640856512E+02 -0.27875776631E+02  0.29940371587E+03  0.35719871495E+03  0.17172756982E+03 0.  0.
         24    2    3    3    0    0 -0.47045373166E+02 -0.74807972323E+02  0.25233859680E+03  0.27917410541E+03  0.80336254837E+02 0.  0.
         -6    2    1    2    0  502  0.87640856512E+02  0.27875776631E+02  0.17259866216E+02  0.19572919503E+03  0.17191287373E+03 0.  0.
        -24    2    5    5    0    0 -0.20646206253E+02  0.24726832486E+02  0.38319855477E+01  0.86466201338E+02  0.80150095340E+02 0.  0.
          5    1    3    3  501    0 -0.40595483346E+02  0.46932195692E+02  0.47065119070E+02  0.78024609539E+02  0.47000000000E+01 0. -1.
        -11    1    4    4    0    0  0.18132047204E+02 -0.32333693471E+02  0.48864141095E+02  0.61334681496E+02  0.00000000000E+00 0.  1.
         12    1    4    4    0    0 -0.65177420369E+02 -0.42474278852E+02  0.20347445570E+03  0.21783942392E+03  0.00000000000E+00 0. -1.
         -5    1    5    5    0  502  0.10828706276E+03  0.31489441442E+01  0.13427880668E+02  0.10926299369E+03  0.47000000000E+01 0.  1.
         11    1    6    6    0    0  0.76102295132E+01  0.47724593591E+02 -0.60824855177E+01  0.48708819086E+02  0.00000000000E+00 0. -1.
        -12    1    6    6    0    0 -0.28256435766E+02 -0.22997761104E+02  0.99144710653E+01  0.37757382252E+02  0.00000000000E+00 0.  1.
</event>
<event>
12    1  0.9873238E-001  0.1771893E+03  0.7818608E-02  0.1170823E+00
         21   -1    0    0  501  502  0.00000000000E+00  0.00000000000E+00  0.96003115593E+02  0.96003115593E+02  0.00000000000E+00 0. -1.
         21   -1    0    0  502  503 -0.00000000000E+00 -0.00000000000E+00 -0.33323695986E+03  0.33323695986E+03  0.00000000000E+00 0. -1.
         -6    2    1    2    0  503 -0.16490825751E+02  0.38527751608E+02 -0.15270211239E+03  0.23391020380E+03  0.17216188120E+03 0.  0.
        -24    2    3    3    0    0  0.51653713581E+02  0.79753990382E+01 -0.12039166784E+03  0.15240450268E+03  0.77467836141E+02 0.  0.
          6    2    1    2  501    0  0.16490825751E+02 -0.38527751608E+02 -0.84531731878E+02  0.19532987165E+03  0.17103160552E+03 0.  0.
         24    2    5    5    0    0  0.28783613762E+02  0.38655564148E+02 -0.68971306090E+02  0.11550134467E+03  0.79125030788E+02 0.  0.
          5    1    5    5  501    0 -0.12292788011E+02 -0.77183315756E+02 -0.15560425788E+02  0.79828526974E+02  0.47000000000E+01 0. -1.
        -13    1    6    6    0    0 -0.17333852772E+01 -0.13849139493E+02 -0.49949464400E+02  0.51862821781E+02  0.00000000000E+00 0.  1.
         14    1    6    6    0    0  0.30516999039E+02  0.52504703641E+02 -0.19021841690E+02  0.63638522894E+02  0.00000000000E+00 0. -1.
         -5    1    3    3    0  503 -0.68144539332E+02  0.30552352569E+02 -0.32310444549E+02  0.81505701121E+02  0.47000000000E+01 0.  1.
         11    1    4    4    0    0  0.20836724096E+02 -0.29094874429E+02 -0.86112419882E+02  0.93252504776E+02  0.00000000000E+00 0. -1.
        -12    1    4    4    0    0  0.30816989485E+02  0.37070273467E+02 -0.34279247956E+02  0.59151997906E+02  0.00000000000E+00 0.  1.
</event>
<event>
12    1  0.9873238E-001  0.1885378E+03  0.7818608E-02  0.1160144E+00
         21   -1    0    0  501  502  0.00000000000E+00  0.00000000000E+00  0.66470373151E+02  0.66470373151E+02  0.00000000000E+00 0. -1.
         21   -1    0    0  502  503 -0.00000000000E+00 -0.00000000000E+00 -0.53053273475E+03  0.53053273475E+03  0.00000000000E+00 0. -1.
         -6    2    1    2    0  503 -0.60898715334E+02  0.41165763500E+02 -0.22744133607E+03  0.29542525457E+03  0.17361810409E+03 0.  0.
        -24    2    3    3    0    0  0.34016473658E+02  0.23319921541E+02 -0.11411452119E+03  0.14645403537E+03  0.82010495123E+02 0.  0.
          6    2    1    2  501    0  0.60898715334E+02 -0.41165763500E+02 -0.23662102552E+03  0.30157785333E+03  0.17191980190E+03 0.  0.
         24    2    5    5    0    0  0.82874882250E+02  0.25359722341E+02 -0.14575363363E+03  0.18674072916E+03  0.78208801197E+02 0.  0.
          5    1    5    5  501    0 -0.21976166916E+02 -0.66525485841E+02 -0.90867391894E+02  0.11483712417E+03  0.47000000000E+01 0. -1.
        -13    1    6    6    0    0  0.79720085674E+02  0.31979079725E+02 -0.70477227488E+02  0.11110802489E+03  0.00000000000E+00 0.  1.
         14    1    6    6    0    0  0.31547965761E+01 -0.66193573839E+01 -0.75276406140E+02  0.75632704268E+02  0.00000000000E+00 0. -1.
         -5    1    3    3    0  503 -0.94915188992E+02  0.17845841959E+02 -0.11332681488E+03  0.14897121920E+03  0.47000000000E+01 0.  1.
         11    1    4    4    0    0 -0.31100661545E+01 -0.20459066371E+02 -0.23713450180E+01  0.20829526770E+02  0.00000000000E+00 0. -1.
        -12    1    4    4    0    0  0.37126539812E+02  0.43778987912E+02 -0.11174317617E+03  0.12562450860E+03  0.00000000000E+00 0.  1.
</event>
<event>
12    1  0.9873238E-001  0.1846377E+03  0.7818608E-02  0.1164003E+00
         21   -1    0    0  501  502  0.00000000000E+00  0.00000000000E+00  0.10599334811E+03  0.10599334811E+03  0.00000000000E+00 0.  1.
         21   -1    0    0  502  503 -0.00000000000E+00 -0.00000000000E+00 -0.38625022740E+03  0.38625022740E+03  0.00000000000E+00 0.  1.
         -6    2    1    2    0  503 -0.36293624786E+02 -0.44895549933E+02 -0.24507118958E+03  0.30684031352E+03  0.17538030800E+03 0.  0.
        -24    2    3    3    0    0 -0.54420155922E+02  0.18625474414E+02 -0.20964107169E+03  0.23173455529E+03  0.80268695691E+02 0.  0.
          6    2    1    2  501    0  0.36293624786E+02  0.44895549933E+02 -0.35185689713E+02  0.18540326200E+03  0.17263689986E+03 0.  0.
         24    2    5    5    0    0 -0.27743528790E+02  0.50092671082E+02  0.19569584113E+02  0.10085743349E+03  0.80686270094E+02 0.  0.
          5    1    5    5  501    0  0.64037153576E+02 -0.51971211488E+01 -0.54755273826E+02  0.84545828508E+02  0.47000000000E+01 0. -1.
        -13    1    6    6    0    0  0.70732034431E+01 -0.13847073749E+02  0.23238345424E+02  0.27960550002E+02  0.00000000000E+00 0.  1.
         14    1    6    6    0    0 -0.34816732233E+02  0.63939744831E+02 -0.36687613114E+01  0.72896883486E+02  0.00000000000E+00 0. -1.
         -5    1    3    3    0  503  0.18126531136E+02 -0.63521024348E+02 -0.35430117883E+02  0.75105758224E+02  0.47000000000E+01 0.  1.
         13    1    4    4    0    0 -0.47928539098E+02 -0.16386794682E+02 -0.63028038460E+02  0.80859170984E+02  0.00000000000E+00 0. -1.
        -14    1    4    4    0    0 -0.64916168237E+01  0.35012269097E+02 -0.14661303323E+03  0.15087538431E+03  0.00000000000E+00 0.  1.
</event>
<event>
12    1  0.9873238E-001  0.2507771E+03  0.7818608E-02  0.1113145E+00
         21   -1    0    0  503  502  0.00000000000E+00  0.00000000000E+00  0.24426119626E+03  0.24426119626E+03  0.00000000000E+00 0.  1.
         21   -1    0    0  501  503 -0.00000000000E+00 -0.00000000000E+00 -0.54608032356E+03  0.54608032356E+03  0.00000000000E+00 0. -1.
          6    2    1    2  501    0  0.32411309971E+01 -0.17936428696E+03  0.13714388754E+03  0.28582793975E+03  0.17523445119E+03 0.  0.
         24    2    3    3    0    0 -0.24691131422E+02  0.32137090366E+01  0.28328761118E+02  0.71403692884E+02  0.60629932824E+02 0.  0.
         -6    2    1    2    0  502 -0.32411309971E+01  0.17936428696E+03 -0.43896301483E+03  0.50451358008E+03  0.17223057721E+03 0.  0.
        -24    2    5    5    0    0  0.40368139605E+02  0.13985458492E+03 -0.40168044064E+03  0.43469334392E+03  0.80138849780E+02 0.  0.
          5    1    3    3  501    0  0.27932262419E+02 -0.18257799600E+03  0.10881512642E+03  0.21442424686E+03  0.47000000000E+01 0. -1.
        -11    1    4    4    0    0  0.16508000916E+02 -0.70218119718E+01 -0.35851408414E+01  0.18294074791E+02  0.00000000000E+00 0.  1.
         12    1    4    4    0    0 -0.41199132338E+02  0.10235521008E+02  0.31913901959E+02  0.53109618093E+02  0.00000000000E+00 0. -1.
         -5    1    5    5    0  502 -0.43609270602E+02  0.39509702044E+02 -0.37282574198E+02  0.69820236156E+02  0.47000000000E+01 0.  1.
         11    1    6    6    0    0  0.21860339588E+01 -0.98411156226E+01 -0.13106441193E+02  0.16534966039E+02  0.00000000000E+00 0. -1.
        -12    1    6    6    0    0  0.38182105646E+02  0.14969570054E+03 -0.38857399944E+03  0.41815837788E+03  0.00000000000E+00 0.  1.
</event>
<event>
12    1  0.9873238E-001  0.2507570E+03  0.7818608E-02  0.1112838E+00
         21   -1    0    0  503  502  0.00000000000E+00  0.00000000000E+00  0.14048117913E+03  0.14048117913E+03  0.00000000000E+00 0.  1.
         21   -1    0    0  501  503 -0.00000000000E+00 -0.00000000000E+00 -0.76545867077E+03  0.76545867077E+03  0.00000000000E+00 0.  1.
          6    2    1    2  501    0 -0.18193345196E+03  0.16909188664E+02 -0.60446120056E+03  0.65440997074E+03  0.17173632472E+03 0.  0.
         24    2    3    3    0    0 -0.50434158783E+02  0.53076190752E+02 -0.33200209806E+03  0.34968686909E+03  0.81821921899E+02 0.  0.
         -6    2    1    2    0  502  0.18193345196E+03 -0.16909188664E+02 -0.20516291086E+02  0.25152987915E+03  0.17164107988E+03 0.  0.
        -24    2    5    5    0    0  0.83043953481E+02 -0.17740298223E+02 -0.80048845645E+02  0.13600482254E+03  0.69846099927E+02 0.  0.
          5    1    3    3  501    0 -0.13149929318E+03 -0.36167002088E+02 -0.27245910250E+03  0.30472310165E+03  0.47000000000E+01 0. -1.
        -13    1    4    4    0    0 -0.29718022256E+02 -0.18035368757E+02 -0.85475849112E+02  0.92274352636E+02  0.00000000000E+00 0.  1.
         14    1    4    4    0    0 -0.20716136527E+02  0.71111559509E+02 -0.24652624894E+03  0.25741251645E+03  0.00000000000E+00 0. -1.
         -5    1    5    5    0  502  0.98889498479E+02  0.83110955926E+00  0.59532554559E+02  0.11552505661E+03  0.47000000000E+01 0.  1.
         13    1    6    6    0    0  0.65943082393E+02 -0.29536684454E+02 -0.23852011102E+02  0.76090894841E+02  0.00000000000E+00 0. -1.
        -14    1    6    6    0    0  0.17100871088E+02  0.11796386230E+02 -0.56196834543E+02  0.59913927702E+02  0.00000000000E+00 0.  1.
</event>
<event>
12    1  0.9873238E-001  0.6350549E+03  0.7818608E-02  0.9835298E-01
         21   -1    0    0  503  502  0.00000000000E+00  0.00000000000E+00  0.66814810395E+03  0.66814810395E+03  0.00000000000E+00 0.  1.
         21   -1    0    0  501  503 -0.00000000000E+00 -0.00000000000E+00 -0.67444611796E+03  0.67444611796E+03  0.00000000000E+00 0.  1.
          6    2    1    2  501    0  0.54320185693E+03  0.28022631642E+03 -0.22091144261E+03  0.67225574256E+03  0.17184548917E+03 0.  0.
         24    2    3    3    0    0  0.52343673433E+03  0.22530901694E+03 -0.21141664774E+03  0.61293617595E+03  0.79016383681E+02 0.  0.
         -6    2    1    2    0  502 -0.54320185693E+03 -0.28022631642E+03  0.21461342860E+03  0.67033847934E+03  0.17233603037E+03 0.  0.
        -24    2    5    5    0    0 -0.26204277031E+03 -0.11944473437E+03  0.37817911631E+02  0.30131287869E+03  0.80161077739E+02 0.  0.
          5    1    3    3  501    0  0.19765122600E+02  0.54917299476E+02 -0.94947948745E+01  0.59319566610E+02  0.47000000000E+01 0. -1.
        -11    1    4    4    0    0  0.62703452601E+01 -0.60320343152E+01 -0.43838239374E+01  0.97427193317E+01  0.00000000000E+00 0.  1.
         12    1    4    4    0    0  0.51716638907E+03  0.23134105125E+03 -0.20703282380E+03  0.60319345662E+03  0.00000000000E+00 0. -1.
         -5    1    5    5    0  502 -0.28115908662E+03 -0.16078158204E+03  0.17679551697E+03  0.36902560065E+03  0.47000000000E+01 0.  1.
         11    1    6    6    0    0 -0.93594712859E+02 -0.54779415265E+02  0.52103813457E+02  0.12031442968E+03  0.00000000000E+00 0. -1.
        -12    1    6    6    0    0 -0.16844805745E+03 -0.64665319107E+02 -0.14285901827E+02  0.18099844902E+03  0.00000000000E+00 0.  1.
</event>
<event>
12    1  0.9873238E-001  0.1895798E+03  0.7818608E-02  0.1164502E+00
         21   -1    0    0  503  502  0.00000000000E+00  0.00000000000E+00  0.80355659504E+02  0.80355659504E+02  0.00000000000E+00 0.  1.
         21   -1    0    0  501  503 -0.00000000000E+00 -0.00000000000E+00 -0.62261512867E+03  0.62261512867E+03  0.00000000000E+00 0.  1.
          6    2    1    2  501    0 -0.40429047783E+01  0.20373481618E+02 -0.49513129674E+03  0.53018441228E+03  0.18843854751E+03 0.  0.
         24    2    3    3    0    0 -0.51681872667E+02 -0.31072185303E+02 -0.18552057725E+03  0.21269895509E+03  0.84773016061E+02 0.  0.
         -6    2    1    2    0  502  0.40429047783E+01 -0.20373481618E+02 -0.47128172429E+02  0.17278637589E+03  0.16493223828E+03 0.  0.
        -24    2    5    5    0    0 -0.25186362639E+01 -0.74569918241E+02 -0.38469591021E+02  0.11731234057E+03  0.81946687430E+02 0.  0.
          5    1    3    3  501    0  0.47638967889E+02  0.51445666921E+02 -0.30961071948E+03  0.31748545719E+03  0.47000000000E+01 0. -1.
        -13    1    4    4    0    0  0.39779224908E+01  0.23541383955E+01  0.76340984468E+01  0.89244212150E+01  0.00000000000E+00 0.  1.
         14    1    4    4    0    0 -0.55659795158E+02 -0.33426323699E+02 -0.19315467570E+03  0.20377453388E+03  0.00000000000E+00 0. -1.
         -5    1    5    5    0  502  0.65615410422E+01  0.54196436623E+02 -0.86585814086E+01  0.55474035327E+02  0.47000000000E+01 0.  1.
         11    1    6    6    0    0  0.31472642364E+02 -0.51440285580E+02 -0.45574313542E+02  0.75588678072E+02  0.00000000000E+00 0. -1.
        -12    1    6    6    0    0 -0.33991278628E+02 -0.23129632661E+02  0.71047225207E+01  0.41723662494E+02  0.00000000000E+00 0.  1.
</event>
<event>
12    1  0.9873238E-001  0.1890240E+03  0.7818608E-02  0.1159610E+00
         21   -1    0    0  503  502  0.00000000000E+00  0.00000000000E+00  0.55780087719E+02  0.55780087719E+02  0.00000000000E+00 0.  1.
         21   -1    0    0  501  503 -0.00000000000E+00 -0.00000000000E+00 -0.83864949352E+03  0.83864949352E+03  0.00000000000E+00 0.  1.
          6    2    1    2  501    0 -0.11592677737E+02  0.75240623173E+02 -0.61002239951E+03  0.63829255003E+03  0.17173965754E+03 0.  0.
         24    2    3    3    0    0 -0.14813508259E+01  0.28092071923E+02 -0.12536950752E+03  0.15122403275E+03  0.79748578417E+02 0.  0.
         -6    2    1    2    0  502  0.11592677737E+02 -0.75240623173E+02 -0.17284700629E+03  0.25613703121E+03  0.17301603862E+03 0.  0.
        -24    2    5    5    0    0  0.51596261662E+02  0.59667912201E+01 -0.11374650563E+03  0.14792478579E+03  0.79029727913E+02 0.  0.
          5    1    3    3  501    0 -0.10111326911E+02  0.47148551250E+02 -0.48465289199E+03  0.48706851729E+03  0.47000000000E+01 0. -1.
        -13    1    4    4    0    0  0.33740807584E+02  0.11548989935E+01 -0.26678823393E+02  0.43029472525E+02  0.00000000000E+00 0.  1.
         14    1    4    4    0    0 -0.35222158410E+02  0.26937172929E+02 -0.98690684123E+02  0.10819456022E+03  0.00000000000E+00 0. -1.
         -5    1    5    5    0  502 -0.40003583925E+02 -0.81207414393E+02 -0.59100500668E+02  0.10821224542E+03  0.47000000000E+01 0.  1.
         11    1    6    6    0    0  0.18184842150E+02 -0.66950503734E+01 -0.11034438357E+03  0.11203300928E+03  0.00000000000E+00 0. -1.
        -12    1    6    6    0    0  0.33411419512E+02  0.12661841594E+02 -0.34021220560E+01  0.35891776507E+02  0.00000000000E+00 0.  1.
</event>
<event>
12    1  0.9873238E-001  0.3259429E+03  0.7818608E-02  0.1072978E+00
         21   -1    0    0  503  502  0.00000000000E+00  0.00000000000E+00  0.10583419124E+04  0.10583419124E+04  0.00000000000E+00 0. -1.
         21   -1    0    0  501  503 -0.00000000000E+00 -0.00000000000E+00 -0.10034007493E+03  0.10034007493E+03  0.00000000000E+00 0. -1.
          6    2    1    2  501    0 -0.51025761291E+02  0.27181500233E+03  0.49118544125E+03  0.58933472866E+03  0.17194551724E+03 0.  0.
         24    2    3    3    0    0 -0.41014272064E+02  0.17262722234E+03  0.18968721527E+03  0.27174739282E+03  0.79894164123E+02 0.  0.
         -6    2    1    2    0  502  0.51025761291E+02 -0.27181500233E+03  0.46681639618E+03  0.56934725863E+03  0.17248689619E+03 0.  0.
        -24    2    5    5    0    0  0.93447111174E+02 -0.22697945337E+03  0.41356720726E+03  0.48769333345E+03  0.80962446421E+02 0.  0.
          5    1    3    3  501    0 -0.10011489227E+02  0.99187779991E+02  0.30149822598E+03  0.31758733584E+03  0.47000000000E+01 0. -1.
        -11    1    4    4    0    0 -0.63334235585E+02  0.12100982373E+03  0.15031038544E+03  0.20309558047E+03  0.00000000000E+00 0.  1.
         12    1    4    4    0    0  0.22319963521E+02  0.51617398617E+02  0.39376829832E+02  0.68651812352E+02  0.00000000000E+00 0. -1.
         -5    1    5    5    0  502 -0.42421349883E+02 -0.44835548968E+02  0.53249188922E+02  0.81653925185E+02  0.47000000000E+01 0.  1.
         13    1    6    6    0    0 -0.53664920487E+01 -0.99339030877E+01  0.12287793132E+01  0.11357445402E+02  0.00000000000E+00 0. -1.
        -14    1    6    6    0    0  0.98813603223E+02 -0.21704555028E+03  0.41233842795E+03  0.47633588804E+03  0.00000000000E+00 0.  1.
</event>
<event>
12    1  0.9873238E-001  0.2096704E+03  0.7818608E-02  0.1145678E+00
         21   -1    0    0  503  502  0.00000000000E+00  0.00000000000E+00  0.18645919405E+03  0.18645919405E+03  0.00000000000E+00 0.  1.
         21   -1    0    0  501  503 -0.00000000000E+00 -0.00000000000E+00 -0.24783507466E+03  0.24783507466E+03  0.00000000000E+00 0.  1.
          6    2    1    2  501    0  0.29275449243E+02 -0.76409572228E+02  0.48966092605E+02  0.19736172521E+03  0.17279611598E+03 0.  0.
         24    2    3    3    0    0 -0.18755569734E+02 -0.99547014363E+02  0.21804489519E+02  0.13734370546E+03  0.90146981105E+02 0.  0.
         -6    2    1    2    0  502 -0.29275449243E+02  0.76409572228E+02 -0.11034197322E+03  0.23693254349E+03  0.19304456598E+03 0.  0.
        -24    2    5    5    0    0 -0.31635627521E+02  0.12048840466E+03 -0.37985291260E+02  0.15204383203E+03  0.78461302054E+02 0.  0.
          5    1    3    3  501    0  0.48031018977E+02  0.23137442135E+02  0.27161603087E+02  0.60018019751E+02  0.47000000000E+01 0. -1.
        -11    1    4    4    0    0  0.25680050585E+02  0.85888989749E+00  0.62971668187E+01  0.26454810523E+02  0.00000000000E+00 0.  1.
         12    1    4    4    0    0 -0.44435620318E+02 -0.10040590426E+03  0.15507322700E+02  0.11088889494E+03  0.00000000000E+00 0. -1.
         -5    1    5    5    0  502  0.23601782778E+01 -0.44078832431E+02 -0.72356681955E+02  0.84888711461E+02  0.47000000000E+01 0.  1.
         11    1    6    6    0    0  0.56849240046E+01  0.67663726311E+02  0.13676493273E+02  0.69265754075E+02  0.00000000000E+00 0. -1.
        -12    1    6    6    0    0 -0.37320551526E+02  0.52824678347E+02 -0.51661784533E+02  0.82778077954E+02  0.00000000000E+00 0.  1.
</event>
<event>
12    1  0.9873238E-001  0.1810595E+03  0.7818608E-02  0.1166958E+00
         21   -1    0    0  501  502  0.00000000000E+00  0.00000000000E+00  0.10766420127E+03  0.10766420127E+03  0.00000000000E+00 0.  1.
         21   -1    0    0  502  503 -0.00000000000E+00 -0.00000000000E+00 -0.55992017358E+03  0.55992017358E+03  0.00000000000E+00 0.  1.
         -6    2    1    2    0  503  0.11022177695E+02  0.53231044903E+02 -0.38460551378E+00  0.18105992686E+03  0.17270644646E+03 0.  0.
        -24    2    3    3    0    0  0.62100103839E+02  0.60245914608E+01 -0.32796902687E+02  0.10418307213E+03  0.76718688027E+02 0.  0.
          6    2    1    2  501    0 -0.11022177695E+02 -0.53231044903E+02 -0.45187136680E+03  0.48652444799E+03  0.17193973893E+03 0.  0.
         24    2    5    5    0    0 -0.21980298905E+02  0.33596277359E+02 -0.26822841930E+03  0.28304008379E+03  0.80952830198E+02 0.  0.
          5    1    5    5  501    0  0.10958121210E+02 -0.86827322262E+02 -0.18364294749E+03  0.20348436421E+03  0.47000000000E+01 0. -1.
        -11    1    6    6    0    0  0.17194096494E+02  0.28857714880E+01 -0.10085084619E+02  0.20141339655E+02  0.00000000000E+00 0.  1.
         12    1    6    6    0    0 -0.39174395399E+02  0.30710505871E+02 -0.25814333468E+03  0.26289874413E+03  0.00000000000E+00 0. -1.
         -5    1    3    3    0  503 -0.51077926143E+02  0.47206453442E+02  0.32412297173E+02  0.76876854733E+02  0.47000000000E+01 0.  1.
         11    1    4    4    0    0  0.37214416109E+02  0.40490174669E+02 -0.27045867205E+02  0.61284956913E+02  0.00000000000E+00 0. -1.
        -12    1    4    4    0    0  0.24885687730E+02 -0.34465583208E+02 -0.57510354822E+01  0.42898115212E+02  0.00000000000E+00 0.  1.
</event>
<event>
12    1  0.9873238E-001  0.2005359E+03  0.7818608E-02  0.1149339E+00
         21   -1    0    0  503  502  0.00000000000E+00  0.00000000000E+00  0.15259958654E+03  0.15259958654E+03  0.00000000000E+00 0.  1.
         21   -1    0    0  501  503 -0.00000000000E+00 -0.00000000000E+00 -0.26533833367E+03  0.26533833367E+03  0.00000000000E+00 0.  1.
          6    2    1    2  501    0  0.54768431583E+02 -0.86772887348E+02 -0.37621237796E+02  0.20379479945E+03  0.17201118473E+03 0.  0.
         24    2    3    3    0    0 -0.29069478020E+02 -0.21787336355E+02 -0.41683458604E+02  0.97537994668E+02  0.80351895466E+02 0.  0.
         -6    2    1    2    0  502 -0.54768431583E+02  0.86772887348E+02 -0.75117509332E+02  0.21414312077E+03  0.17229486611E+03 0.  0.
        -24    2    5    5    0    0 -0.14057028170E+02 -0.82253715992E+00  0.14111577932E+02  0.82559319422E+02  0.80116340302E+02 0.  0.
          5    1    3    3  501    0  0.83837909604E+02 -0.64985550992E+02  0.40622208073E+01  0.10625680478E+03  0.47000000000E+01 0. -1.
        -13    1    4    4    0    0  0.16649491803E+02  0.11091529223E+02  0.88493535147E+01  0.21875526403E+02  0.00000000000E+00 0.  1.
         14    1    4    4    0    0 -0.45718969823E+02 -0.32878865578E+02 -0.50532812118E+02  0.75662468265E+02  0.00000000000E+00 0. -1.
         -5    1    5    5    0  502 -0.40711403413E+02  0.87595424508E+02 -0.89229087265E+02  0.13158380135E+03  0.47000000000E+01 0.  1.
         11    1    6    6    0    0  0.25422104512E+02  0.23755703943E+02  0.46716518562E+01  0.35106141895E+02  0.00000000000E+00 0. -1.
        -12    1    6    6    0    0 -0.39479132683E+02 -0.24578241103E+02  0.94399260762E+01  0.47453177527E+02  0.00000000000E+00 0.  1.
</event>
<event>
12    1  0.9873238E-001  0.8282152E+03  0.7818608E-02  0.9520064E-01
         21   -1    0    0  501  502  0.00000000000E+00  0.00000000000E+00  0.64916849851E+03  0.64916849851E+03  0.00000000000E+00 0.  1.
         21   -1    0    0  502  503 -0.00000000000E+00 -0.00000000000E+00 -0.10590904064E+04  0.10590904064E+04  0.00000000000E+00 0. -1.
         -6    2    1    2    0  503  0.47317781531E+03  0.65730735132E+03 -0.16353817684E+03  0.84417250918E+03  0.17300951122E+03 0.  0.
        -24    2    3    3    0    0  0.32629716923E+03  0.33727547179E+03 -0.93167168438E+02  0.48505066783E+03  0.79808787578E+02 0.  0.
          6    2    1    2  501    0 -0.47317781531E+03 -0.65730735132E+03 -0.24638373107E+03  0.86408639575E+03  0.17317666523E+03 0.  0.
         24    2    5    5    0    0 -0.14840747665E+03 -0.30550284072E+03 -0.11822001007E+03  0.36841491590E+03  0.79980089170E+02 0.  0.
          5    1    5    5  501    0 -0.32477033866E+03 -0.35180451060E+03 -0.12816372101E+03  0.49567147985E+03  0.47000000000E+01 0. -1.
        -13    1    6    6    0    0 -0.67102355769E+01  0.35994902393E+01 -0.78052650755E+01  0.10904391518E+02  0.00000000000E+00 0.  1.
         14    1    6    6    0    0 -0.14169724107E+03 -0.30910233096E+03 -0.11041474499E+03  0.35751052438E+03  0.00000000000E+00 0. -1.
         -5    1    3    3    0  503  0.14688064608E+03  0.32003187953E+03 -0.70371008398E+02  0.35912184134E+03  0.47000000000E+01 0.  1.
         11    1    4    4    0    0  0.13805215234E+03  0.18854367387E+03 -0.70430020665E+02  0.24406454378E+03  0.00000000000E+00 0. -1.
        -12    1    4    4    0    0  0.18824501689E+03  0.14873179792E+03 -0.22737147773E+02  0.24098612405E+03  0.00000000000E+00 0.  1.
</event>
<event>
12    1  0.9873238E-001  0.2257624E+03  0.7818608E-02  0.1130077E+00
         21   -1    0    0  503  502  0.00000000000E+00  0.00000000000E+00  0.39349199388E+03  0.39349199388E+03  0.00000000000E+00 0.  1.
         21   -1    0    0  501  503 -0.00000000000E+00 -0.00000000000E+00 -0.14437708814E+03  0.14437708814E+03  0.00000000000E+00 0. -1.
          6    2    1    2  501    0 -0.11964088894E+03 -0.82878798919E+02  0.21513033063E+03  0.31184884144E+03  0.17258564000E+03 0.  0.
         24    2    3    3    0    0 -0.17582644471E+02 -0.49393053044E+02  0.34090206328E+02  0.10129054299E+03  0.79679412999E+02 0.  0.
         -6    2    1    2    0  502  0.11964088894E+03  0.82878798919E+02  0.33984575113E+02  0.22602024058E+03  0.16955046503E+03 0.  0.
        -24    2    5    5    0    0  0.13151468151E+03  0.93501916148E+02 -0.92551920188E+01  0.17969956452E+03  0.78533783386E+02 0.  0.
          5    1    3    3  501    0 -0.10205824447E+03 -0.33485745876E+02  0.18104012430E+03  0.21055829845E+03  0.47000000000E+01 0. -1.
        -13    1    4    4    0    0  0.64249565024E+01 -0.65815568168E+02  0.20901596957E+02  0.69353052094E+02  0.00000000000E+00 0.  1.
         14    1    4    4    0    0 -0.24007600974E+02  0.16422515124E+02  0.13188609371E+02  0.31937490895E+02  0.00000000000E+00 0. -1.
         -5    1    5    5    0  502 -0.11873792569E+02 -0.10623117228E+02  0.43239767131E+02  0.46320676066E+02  0.47000000000E+01 0.  1.
         13    1    6    6    0    0  0.10102502495E+03  0.76372600697E+02  0.26822589019E+02  0.12945377972E+03  0.00000000000E+00 0. -1.
        -14    1    6    6    0    0  0.30489656561E+02  0.17129315451E+02 -0.36077781038E+02  0.50245784795E+02  0.00000000000E+00 0.  1.
</event>
<event>
12    1  0.9873238E-001  0.2467564E+03  0.7818608E-02  0.1115516E+00
         21   -1    0    0  501  502  0.00000000000E+00  0.00000000000E+00  0.48269321774E+03  0.48269321774E+03  0.00000000000E+00 0.  1.
         21   -1    0    0  502  503 -0.00000000000E+00 -0.00000000000E+00 -0.12954397665E+03  0.12954397665E+03  0.00000000000E+00 0.  1.
         -6    2    1    2    0  503  0.14577619522E+03 -0.99191539821E+02  0.22969590494E+03  0.33711854064E+03  0.17262398741E+03 0.  0.
        -24    2    3    3    0    0  0.86508024709E+02 -0.39229900209E+01  0.17978742028E+03  0.21422932444E+03  0.77920849379E+02 0.  0.
          6    2    1    2  501    0 -0.14577619522E+03  0.99191539821E+02  0.12345333614E+03  0.27511865375E+03  0.17134726953E+03 0.  0.
         24    2    5    5    0    0 -0.10074585121E+03  0.87634395798E+02  0.14410229708E+02  0.15648565447E+03  0.80315574277E+02 0.  0.
          5    1    5    5  501    0 -0.45030344013E+02  0.11557144023E+02  0.10904310643E+03  0.11863299929E+03  0.47000000000E+01 0. -1.
        -11    1    6    6    0    0 -0.72822948876E+01 -0.77029130222E+01 -0.16343755607E+02  0.19480375643E+02  0.00000000000E+00 0.  1.
         12    1    6    6    0    0 -0.93463556319E+02  0.95337308820E+02  0.30753985315E+02  0.13700527882E+03  0.00000000000E+00 0. -1.
         -5    1    3    3    0  503  0.59268170511E+02 -0.95268549800E+02  0.49908484664E+02  0.12288921620E+03  0.47000000000E+01 0.  1.
         11    1    4    4    0    0  0.15294766506E+02 -0.30427924603E+02  0.26533186729E+02  0.43171732373E+02  0.00000000000E+00 0. -1.
        -12    1    4    4    0    0  0.71213258203E+02  0.26504934582E+02  0.15325423355E+03  0.17105759206E+03  0.00000000000E+00 0.  1.
</event>
<event>
12    1  0.9873238E-001  0.1968700E+03  0.7818608E-02  0.1152566E+00
         21   -1    0    0  503  502  0.00000000000E+00  0.00000000000E+00  0.73361773902E+03  0.73361773902E+03  0.00000000000E+00 0. -1.
         21   -1    0    0  501  503 -0.00000000000E+00 -0.00000000000E+00 -0.52960107239E+02  0.52960107239E+02  0.00000000000E+00 0. -1.
          6    2    1    2  501    0 -0.74662137555E+02 -0.54607927945E+02  0.37186232923E+03  0.42076049793E+03  0.17378533925E+03 0.  0.
         24    2    3    3    0    0 -0.30777967687E+01 -0.83805887762E+02  0.26350894015E+03  0.28757121297E+03  0.78913505390E+02 0.  0.
         -6    2    1    2    0  502  0.74662137555E+02  0.54607927945E+02  0.30879530256E+03  0.36581734833E+03  0.17294893143E+03 0.  0.
        -24    2    5    5    0    0  0.10952928484E+03  0.50588166929E+01  0.19569411052E+03  0.23742419421E+03  0.77793362438E+02 0.  0.
          5    1    3    3  501    0 -0.71584340786E+02  0.29197959818E+02  0.10835338907E+03  0.13318928496E+03  0.47000000000E+01 0. -1.
        -13    1    4    4    0    0  0.22943431421E+02 -0.32780460320E+02  0.19111627791E+03  0.19525980464E+03  0.00000000000E+00 0.  1.
         14    1    4    4    0    0 -0.26021228190E+02 -0.51025427443E+02  0.72392662239E+02  0.92311408333E+02  0.00000000000E+00 0. -1.
         -5    1    5    5    0  502 -0.34867147289E+02  0.49549111252E+02  0.11310119204E+03  0.12839315412E+03  0.47000000000E+01 0.  1.
         13    1    6    6    0    0  0.19356254892E+02 -0.31590750982E+02  0.57002346591E+02  0.67984613464E+02  0.00000000000E+00 0. -1.
        -14    1    6    6    0    0  0.90173029952E+02  0.36649567675E+02  0.13869176393E+03  0.16943958075E+03  0.00000000000E+00 0.  1.
</event>
<event>
12    1  0.9873238E-001  0.2158312E+03  0.7818608E-02  0.1138189E+00
         21   -1    0    0  503  502  0.00000000000E+00  0.00000000000E+00  0.39527482264E+03  0.39527482264E+03  0.00000000000E+00 0. -1.
         21   -1    0    0  501  503 -0.00000000000E+00 -0.00000000000E+00 -0.13286337051E+03  0.13286337051E+03  0.00000000000E+00 0. -1.
          6    2    1    2  501    0  0.11938055797E+03  0.51374082846E+02  0.31748393594E+02  0.21224493942E+03  0.16476935335E+03 0.  0.
         24    2    3    3    0    0  0.93067718291E+02  0.23338923689E+02 -0.39788234892E+02  0.13089437153E+03  0.79648774725E+02 0.  0.
         -6    2    1    2    0  502 -0.11938055797E+03 -0.51374082846E+02  0.23066305853E+03  0.31589325374E+03  0.17231392043E+03 0.  0.
        -24    2    5    5    0    0  0.29790832860E+00 -0.32193807757E+02  0.73585101746E+02  0.11743320044E+03  0.85669477402E+02 0.  0.
          5    1    3    3  501    0  0.26312839675E+02  0.28035159157E+02  0.71536628487E+02  0.81350567890E+02  0.47000000000E+01 0. -1.
        -11    1    4    4    0    0  0.29886390980E+02  0.25277195269E+02  0.19939583265E+02  0.43928577797E+02  0.00000000000E+00 0.  1.
         12    1    4    4    0    0  0.63181327311E+02 -0.19382715808E+01 -0.59727818157E+02  0.86965793732E+02  0.00000000000E+00 0. -1.
         -5    1    5    5    0  502 -0.11967846629E+03 -0.19180275089E+02  0.15707795679E+03  0.19846005330E+03  0.47000000000E+01 0.  1.
         11    1    6    6    0    0  0.76919858863E+01 -0.18090960369E+02  0.91428333787E+02  0.93517857723E+02  0.00000000000E+00 0. -1.
        -12    1    6    6    0    0 -0.73940775577E+01 -0.14102847388E+02 -0.17843232042E+02  0.23915342713E+02  0.00000000000E+00 0.  1.
</event>
<event>
12    1  0.9873238E-001  0.2357700E+03  0.7818608E-02  0.1123082E+00
         21   -1    0    0  501  502  0.00000000000E+00  0.00000000000E+00  0.16480644433E+03  0.16480644433E+03  0.00000000000E+00 0. -1.
         21   -1    0    0  502  503 -0.00000000000E+00 -0.00000000000E+00 -0.33561719044E+03  0.33561719044E+03  0.00000000000E+00 0. -1.
         -6    2    1    2    0  503  0.14969988742E+03  0.58444645835E+02 -0.66655251614E+02  0.24501102181E+03  0.17251563790E+03 0.  0.
        -24    2    3    3    0    0  0.12267775858E+03  0.11381508450E+02  0.13253808149E+02  0.14830175555E+03  0.81476230180E+02 0.  0.
          6    2    1    2  501    0 -0.14969988742E+03 -0.58444645835E+02 -0.10415549449E+03  0.25541261296E+03  0.16900119203E+03 0.  0.
         24    2    5    5    0    0 -0.16756177062E+03 -0.18184471877E+02 -0.98175141671E+02  0.21071604599E+03  0.79719957378E+02 0.  0.
          5    1    5    5  501    0  0.17861883208E+02 -0.40260173958E+02 -0.59803528231E+01  0.44696566969E+02  0.47000000000E+01 0. -1.
        -13    1    6    6    0    0 -0.48710445875E+02  0.28110041158E+02 -0.14198146611E+02  0.58004045707E+02  0.00000000000E+00 0.  1.
         14    1    6    6    0    0 -0.11885132475E+03 -0.46294513034E+02 -0.83976995060E+02  0.15271200029E+03  0.00000000000E+00 0. -1.
         -5    1    3    3    0  503  0.27022128838E+02  0.47063137385E+02 -0.79909059763E+02  0.96709266255E+02  0.47000000000E+01 0.  1.
         13    1    4    4    0    0  0.17809759404E+02  0.32177971517E+02  0.18688091256E+02  0.41253534828E+02  0.00000000000E+00 0. -1.
        -14    1    4    4    0    0  0.10486799917E+03 -0.20796463067E+02 -0.54342831074E+01  0.10704822072E+03  0.00000000000E+00 0.  1.
</event>
<event>
12    1  0.9873238E-001  0.2031991E+03  0.7818608E-02  0.1147668E+00
         21   -1    0    0  503  502  0.00000000000E+00  0.00000000000E+00  0.11127908452E+04  0.11127908452E+04  0.00000000000E+00 0.  1.
         21   -1    0    0  501  503 -0.00000000000E+00 -0.00000000000E+00 -0.39423457743E+02  0.39423457743E+02  0.00000000000E+00 0.  1.
          6    2    1    2  501    0 -0.10712131575E+03  0.13533901350E+02  0.69496530960E+03  0.72406260329E+03  0.17213869165E+03 0.  0.
         24    2    3    3    0    0 -0.49649774467E+02 -0.53800675676E+02  0.46703193942E+03  0.47949638616E+03  0.80239261538E+02 0.  0.
         -6    2    1    2    0  502  0.10712131575E+03 -0.13533901350E+02  0.37840207790E+03  0.42815169969E+03  0.16872345011E+03 0.  0.
        -24    2    5    5    0    0  0.69176675889E+02 -0.22724105570E+02  0.10142749678E+03  0.14839955201E+03  0.80206561281E+02 0.  0.
          5    1    3    3  501    0 -0.57471541285E+02  0.67334577026E+02  0.22793337017E+03  0.24456621713E+03  0.47000000000E+01 0. -1.
        -13    1    4    4    0    0 -0.23571484669E+02 -0.15767392778E+01  0.28149704845E+02  0.36749243246E+02  0.00000000000E+00 0.  1.
         14    1    4    4    0    0 -0.26078289799E+02 -0.52223936398E+02  0.43888223458E+03  0.44274714292E+03  0.00000000000E+00 0. -1.
         -5    1    5    5    0  502  0.37944639864E+02  0.91902042201E+01  0.27697458112E+03  0.27975214768E+03  0.47000000000E+01 0.  1.
         13    1    6    6    0    0 -0.41534518943E+00 -0.36201991777E+02  0.24065706560E+02  0.43473152088E+02  0.00000000000E+00 0. -1.
        -14    1    6    6    0    0  0.69592021078E+02  0.13477886207E+02  0.77361790219E+02  0.10492639992E+03  0.00000000000E+00 0.  1.
</event>
<event>
12    1  0.9873238E-001  0.1838122E+03  0.7818608E-02  0.1164595E+00
         21   -1    0    0  503  502  0.00000000000E+00  0.00000000000E+00  0.55655107941E+03  0.55655107941E+03  0.00000000000E+00 0. -1.
         21   -1    0    0  501  503 -0.00000000000E+00 -0.00000000000E+00 -0.91131823977E+02  0.91131823977E+02  0.00000000000E+00 0. -1.
          6    2    1    2  501    0  0.59756652471E+02  0.12034715771E+02  0.44525346269E+02  0.18912803854E+03  0.17341054352E+03 0.  0.
         24    2    3    3    0    0  0.92985398125E+02  0.40221097558E+02  0.54650049464E+01  0.13042180446E+03  0.81950960007E+02 0.  0.
         -6    2    1    2    0  502 -0.59756652471E+02 -0.12034715771E+02  0.42089390916E+03  0.45855486484E+03  0.17147941393E+03 0.  0.
        -24    2    5    5    0    0  0.19497271995E+02  0.96582691061E+01  0.11188412063E+03  0.13877226753E+03  0.79159712029E+02 0.  0.
          5    1    3    3  501    0 -0.33228745654E+02 -0.28186381788E+02  0.39060341323E+02  0.58706234083E+02  0.47000000000E+01 0. -1.
        -11    1    4    4    0    0  0.45936882044E+02  0.17902583380E+02  0.43649639675E+02  0.65848239668E+02  0.00000000000E+00 0.  1.
         12    1    4    4    0    0  0.47048516081E+02  0.22318514179E+02 -0.38184634728E+02  0.64573564792E+02  0.00000000000E+00 0. -1.
         -5    1    5    5    0  502 -0.79253924466E+02 -0.21692984877E+02  0.30900978853E+03  0.31978259732E+03  0.47000000000E+01 0.  1.
         13    1    6    6    0    0  0.25645253119E+02 -0.10558477134E+02  0.30444742294E+01  0.27900345343E+02  0.00000000000E+00 0. -1.
        -14    1    6    6    0    0 -0.61479811242E+01  0.20216746240E+02  0.10883964640E+03  0.11087192219E+03  0.00000000000E+00 0.  1.
</event>
<event>
12    1  0.9873238E-001  0.2312563E+03  0.7818608E-02  0.1125864E+00
         21   -1    0    0  501  502  0.00000000000E+00  0.00000000000E+00  0.17762591145E+03  0.17762591145E+03  0.00000000000E+00 0. -1.
         21   -1    0    0  502  503 -0.00000000000E+00 -0.00000000000E+00 -0.31086644262E+03  0.31086644262E+03  0.00000000000E+00 0. -1.
         -6    2    1    2    0  503 -0.15241318834E+03 -0.21717814444E+02 -0.11157961842E+03  0.25622386593E+03  0.17175335449E+03 0.  0.
        -24    2    3    3    0    0 -0.12851927555E+03 -0.16076674584E+02 -0.11225316416E+02  0.15280328066E+03  0.80294278734E+02 0.  0.
          6    2    1    2  501    0  0.15241318834E+03  0.21717814444E+02 -0.21660912754E+02  0.23226848814E+03  0.17256306672E+03 0.  0.
         24    2    5    5    0    0  0.59925688262E+02 -0.52698677457E+02 -0.71711703148E+01  0.11258643195E+03  0.79095134211E+02 0.  0.
          5    1    5    5  501    0  0.92487500081E+02  0.74416491902E+02 -0.14489742439E+02  0.11968205619E+03  0.47000000000E+01 0. -1.
        -13    1    6    6    0    0  0.22834240280E+02 -0.29265262822E+02 -0.42375946904E+02  0.56334527718E+02  0.00000000000E+00 0.  1.
         14    1    6    6    0    0  0.37091447982E+02 -0.23433414636E+02  0.35204776590E+02  0.56251904231E+02  0.00000000000E+00 0. -1.
         -5    1    3    3    0  503 -0.23893912795E+02 -0.56411398599E+01 -0.10035430200E+03  0.10342058527E+03  0.47000000000E+01 0.  1.
         11    1    4    4    0    0 -0.67307390759E+02  0.30430482029E+02 -0.16707763616E+02  0.75732743595E+02  0.00000000000E+00 0. -1.
        -12    1    4    4    0    0 -0.61211884788E+02 -0.46507156613E+02  0.54824471996E+01  0.77070537061E+02  0.00000000000E+00 0.  1.
</event>
<event>
12    1  0.9873238E-001  0.1892867E+03  0.7818608E-02  0.1159597E+00
         21   -1    0    0  503  502  0.00000000000E+00  0.00000000000E+00  0.70617864169E+02  0.70617864169E+02  0.00000000000E+00 0. -1.
         21   -1    0    0  501  503 -0.00000000000E+00 -0.00000000000E+00 -0.52297770009E+03  0.52297770009E+03  0.00000000000E+00 0. -1.
          6    2    1    2  501    0  0.74104521323E+02 -0.25808040337E+02 -0.16743391842E+03  0.25271246532E+03  0.17225544422E+03 0.  0.
         24    2    3    3    0    0  0.10059165457E+03 -0.25124113329E+02 -0.64706935838E+02  0.14651943855E+03  0.80814950898E+02 0.  0.
         -6    2    1    2    0  502 -0.74104521323E+02  0.25808040337E+02 -0.28492591751E+03  0.34088309894E+03  0.16988517785E+03 0.  0.
        -24    2    5    5    0    0  0.10424244478E+02 -0.29565526059E+02 -0.14373434044E+03  0.16719229453E+03  0.79441283501E+02 0.  0.
          5    1    3    3  501    0 -0.26487133247E+02 -0.68392700792E+00 -0.10272698258E+03  0.10619302677E+03  0.47000000000E+01 0. -1.
        -11    1    4    4    0    0  0.35808345332E+02  0.11386563857E+02 -0.61520465956E+02  0.72087857253E+02  0.00000000000E+00 0.  1.
         12    1    4    4    0    0  0.64783309239E+02 -0.36510677186E+02 -0.31864698816E+01  0.74431581300E+02  0.00000000000E+00 0. -1.
         -5    1    5    5    0  502 -0.84528765801E+02  0.55373566396E+02 -0.14119157707E+03  0.17369080441E+03  0.47000000000E+01 0.  1.
         13    1    6    6    0    0 -0.28974425725E+02 -0.34120884110E+02 -0.88708646022E+02  0.99362849988E+02  0.00000000000E+00 0. -1.
        -14    1    6    6    0    0  0.39398670203E+02  0.45553580514E+01 -0.55025694419E+02  0.67829444543E+02  0.00000000000E+00 0.  1.
</event>
<event>
12    1  0.9873238E-001  0.2893490E+03  0.7818608E-02  0.1090858E+00
         21   -1    0    0  501  502  0.00000000000E+00  0.00000000000E+00  0.67109042631E+03  0.67109042631E+03  0.00000000000E+00 0.  1.
         21   -1    0    0  502  503 -0.00000000000E+00 -0.00000000000E+00 -0.16982378907E+03  0.16982378907E+03  0.00000000000E+00 0.  1.
         -6    2    1    2    0  503 -0.20819645051E+03 -0.10238978219E+03  0.32304789756E+02  0.28987151386E+03  0.17074093124E+03 0.  0.
        -24    2    3    3    0    0 -0.22785860117E+03 -0.10974345398E+03  0.22908127553E+02  0.26639676321E+03  0.80494008003E+02 0.  0.
          6    2    1    2  501    0  0.20819645051E+03  0.10238978219E+03  0.46896184748E+03  0.55104270153E+03  0.17289712263E+03 0.  0.
         24    2    5    5    0    0  0.59120535687E+02  0.89564260807E+02  0.27811419875E+03  0.30848747606E+03  0.79372670245E+02 0.  0.
          5    1    5    5  501    0  0.14907591482E+03  0.12825521383E+02  0.19084764873E+03  0.24255522547E+03  0.47000000000E+01 0. -1.
        -13    1    6    6    0    0  0.18046335016E+02  0.63841939608E+02  0.77104982970E+02  0.10171844405E+03  0.00000000000E+00 0.  1.
         14    1    6    6    0    0  0.41074200671E+02  0.25722321199E+02  0.20100921578E+03  0.20676903201E+03  0.00000000000E+00 0. -1.
         -5    1    3    3    0  503  0.19662150655E+02  0.73536717934E+01  0.93966622030E+01  0.23474750643E+02  0.47000000000E+01 0.  1.
         11    1    4    4    0    0 -0.18414654418E+03 -0.78333184800E+02  0.49810853440E+02  0.20622114027E+03  0.00000000000E+00 0. -1.
        -12    1    4    4    0    0 -0.43712056982E+02 -0.31410269183E+02 -0.26902725887E+02  0.60175622938E+02  0.00000000000E+00 0.  1.
</event>
<event>
12    1  0.9873238E-001  0.1805834E+03  0.7818608E-02  0.1167283E+00
         21   -1    0    0  503  502  0.00000000000E+00  0.00000000000E+00  0.78436387650E+03  0.78436387650E+03  0.00000000000E+00 0. -1.
         21   -1    0    0  501  503 -0.00000000000E+00 -0.00000000000E+00 -0.50009482548E+02  0.50009482548E+02  0.00000000000E+00 0. -1.
          6    2    1    2  501    0 -0.43638679713E+02 -0.24495378358E+02  0.53907554481E+03  0.56851806530E+03  0.17351077670E+03 0.  0.
         24    2    3    3    0    0 -0.43909191113E+02  0.11688882250E+02  0.51940895442E+03  0.52706642276E+03  0.77127848616E+02 0.  0.
         -6    2    1    2    0  502  0.43638679713E+02  0.24495378358E+02  0.19527884914E+03  0.26585529374E+03  0.17332296548E+03 0.  0.
        -24    2    5    5    0    0  0.64199995563E+02  0.63693946722E+02  0.18196351705E+03  0.21939365860E+03  0.82730270276E+02 0.  0.
          5    1    3    3  501    0  0.27051140017E+00 -0.36184260608E+02  0.19666590393E+02  0.41451642547E+02  0.47000000000E+01 0. -1.
        -13    1    4    4    0    0 -0.70006187186E+01 -0.31738852314E+02  0.18298530298E+03  0.18584935974E+03  0.00000000000E+00 0.  1.
         14    1    4    4    0    0 -0.36908572394E+02  0.43427734564E+02  0.33642365144E+03  0.34121706302E+03  0.00000000000E+00 0. -1.
         -5    1    5    5    0  502 -0.20561315850E+02 -0.39198568364E+02  0.13315332090E+02  0.46461635141E+02  0.47000000000E+01 0.  1.
         11    1    6    6    0    0  0.28267875197E+02 -0.69268673687E+00  0.11937182277E+03  0.12267511832E+03  0.00000000000E+00 0. -1.
        -12    1    6    6    0    0  0.35932120366E+02  0.64386633459E+02  0.62591694274E+02  0.96718540282E+02  0.00000000000E+00 0.  1.
</event>
<event>
12    1  0.9873238E-001  0.1875224E+03  0.7818608E-02  0.1164213E+00
         21   -1    0    0  503  502  0.00000000000E+00  0.00000000000E+00  0.97321977686E+02  0.97321977686E+02  0.00000000000E+00 0. -1.
         21   -1    0    0  501  503 -0.00000000000E+00 -0.00000000000E+00 -0.38396978676E+03  0.38396978676E+03  0.00000000000E+00 0. -1.
          6    2    1    2  501    0 -0.52120140893E+02  0.26157625868E+02 -0.51292018332E+02  0.18036485053E+03  0.16278783028E+03 0.  0.
         24    2    3    3    0    0 -0.50907663237E+02 -0.32543384078E+02  0.14652520198E+01  0.10129084567E+03  0.81283617224E+02 0.  0.
         -6    2    1    2    0  502  0.52120140893E+02 -0.26157625868E+02 -0.23535579074E+03  0.30092691391E+03  0.17822437769E+03 0.  0.
        -24    2    5    5    0    0  0.71348462023E+02  0.19101739875E+02 -0.22593298151E+03  0.25063757255E+03  0.79485854964E+02 0.  0.
          5    1    3    3  501    0 -0.12124776562E+01  0.58701009946E+02 -0.52757270351E+02  0.79074004867E+02  0.47000000000E+01 0. -1.
        -11    1    4    4    0    0 -0.26512030314E+02  0.21720836625E+02  0.19100223990E+02  0.39236476033E+02  0.00000000000E+00 0.  1.
         12    1    4    4    0    0 -0.24395632923E+02 -0.54264220704E+02 -0.17634971970E+02  0.62054369634E+02  0.00000000000E+00 0. -1.
         -5    1    5    5    0  502 -0.19228321130E+02 -0.45259365742E+02 -0.94228092314E+01  0.50289341363E+02  0.47000000000E+01 0.  1.
         13    1    6    6    0    0  0.13234590541E+02  0.96836644891E+01  0.76805039558E+00  0.16416992603E+02  0.00000000000E+00 0. -1.
        -14    1    6    6    0    0  0.58113871482E+02  0.94180753854E+01 -0.22670103190E+03  0.23422057994E+03  0.00000000000E+00 0.  1.
</event>
<event>
12    1  0.9873238E-001  0.1898682E+03  0.7818608E-02  0.1158584E+00
         21   -1    0    0  503  502  0.00000000000E+00  0.00000000000E+00  0.12373596302E+03  0.12373596302E+03  0.00000000000E+00 0. -1.
         21   -1    0    0  501  503 -0.00000000000E+00 -0.00000000000E+00 -0.29132381023E+03  0.29132381023E+03  0.00000000000E+00 0. -1.
          6    2    1    2  501    0  0.79483306060E+02 -0.87229752070E+01 -0.83206676934E+02  0.20729997948E+03  0.17220988406E+03 0.  0.
         24    2    3    3    0    0  0.96980266331E+02  0.27965580433E+02 -0.94021464313E+02  0.16497689642E+03  0.90499142840E+02 0.  0.
         -6    2    1    2    0  502 -0.79483306060E+02  0.87229752070E+01 -0.84381170272E+02  0.20775979376E+03  0.17219251949E+03 0.  0.
        -24    2    5    5    0    0 -0.90232631101E+02  0.17162748600E+02 -0.11758034705E+03  0.17155132649E+03  0.84665411789E+02 0.  0.
          5    1    3    3  501    0 -0.17496960270E+02 -0.36688555640E+02  0.10814787379E+02  0.42323083060E+02  0.47000000000E+01 0. -1.
        -13    1    4    4    0    0  0.54038505209E+02  0.60756726727E+02 -0.61073541419E+02  0.10169325125E+03  0.00000000000E+00 0.  1.
         14    1    4    4    0    0  0.42941761121E+02 -0.32791146294E+02 -0.32947922894E+02  0.63283645174E+02  0.00000000000E+00 0. -1.
         -5    1    5    5    0  502  0.10749325041E+02 -0.84397733930E+01  0.33199176776E+02  0.36208467274E+02  0.47000000000E+01 0.  1.
         13    1    6    6    0    0 -0.60065207721E+02  0.43854066208E+02 -0.10627848486E+03  0.12971555283E+03  0.00000000000E+00 0. -1.
        -14    1    6    6    0    0 -0.30167423380E+02 -0.26691317608E+02 -0.11301862191E+02  0.41835773663E+02  0.00000000000E+00 0.  1.
</event>
<event>
12    1  0.9873238E-001  0.1898374E+03  0.7818608E-02  0.1158809E+00
         21   -1    0    0  501  502  0.00000000000E+00  0.00000000000E+00  0.20265705437E+03  0.20265705437E+03  0.00000000000E+00 0. -1.
         21   -1    0    0  502  503 -0.00000000000E+00 -0.00000000000E+00 -0.81478444150E+03  0.81478444150E+03  0.00000000000E+00 0. -1.
         -6    2    1    2    0  503 -0.46867863494E+02 -0.61031055702E+02 -0.75599361579E+03  0.77924888241E+03  0.17257197697E+03 0.  0.
        -24    2    3    3    0    0 -0.73697281080E+02  0.13883160678E+02 -0.42056484407E+03  0.43447865696E+03  0.79201539708E+02 0.  0.
          6    2    1    2  501    0  0.46867863494E+02  0.61031055702E+02  0.14386622866E+03  0.23819261346E+03  0.17354204958E+03 0.  0.
         24    2    5    5    0    0  0.66796773925E+02  0.80024610454E+01  0.25855687069E+02  0.10720493752E+03  0.79363301881E+02 0.  0.
          5    1    5    5  501    0 -0.19928910432E+02  0.53028594656E+02  0.11801054159E+03  0.13098767594E+03  0.47000000000E+01 0. -1.
        -13    1    6    6    0    0  0.74703706169E+02  0.22593272231E+02  0.37839570813E+02  0.86734841816E+02  0.00000000000E+00 0.  1.
         14    1    6    6    0    0 -0.79069322440E+01 -0.14590811185E+02 -0.11983883745E+02  0.20470095705E+02  0.00000000000E+00 0. -1.
         -5    1    3    3    0  503  0.26829417586E+02 -0.74914216379E+02 -0.33542877172E+03  0.34477022545E+03  0.47000000000E+01 0.  1.
         13    1    4    4    0    0 -0.50663953379E+02  0.33633871526E+02 -0.37392619401E+03  0.37883884708E+03  0.00000000000E+00 0. -1.
        -14    1    4    4    0    0 -0.23033327701E+02 -0.19750710849E+02 -0.46638650058E+02  0.55639809878E+02  0.00000000000E+00 0.  1.
</event>
<event>
12    1  0.9873238E-001  0.2512505E+03  0.7818608E-02  0.1112523E+00
         21   -1    0    0  503  502  0.00000000000E+00  0.00000000000E+00  0.14986109433E+03  0.14986109433E+03  0.00000000000E+00 0.  1.
         21   -1    0    0  501  503 -0.00000000000E+00 -0.00000000000E+00 -0.42340169571E+03  0.42340169571E+03  0.00000000000E+00 0.  1.
          6    2    1    2  501    0 -0.13994319483E+03  0.11842124395E+03 -0.15756836703E+03  0.29653845414E+03  0.17175440517E+03 0.  0.
         24    2    3    3    0    0 -0.10679743285E+02  0.14052323592E+02 -0.75012461833E+02  0.11095968670E+03  0.79835192283E+02 0.  0.
         -6    2    1    2    0  502  0.13994319483E+03 -0.11842124395E+03 -0.11597223434E+03  0.27672433591E+03  0.17181126315E+03 0.  0.
        -24    2    5    5    0    0  0.12811558195E+03 -0.22536484268E+02 -0.54177536621E+02  0.16194431050E+03  0.79807636028E+02 0.  0.
          5    1    3    3  501    0 -0.12926345155E+03  0.10436892036E+03 -0.82555905202E+02  0.18557876744E+03  0.47000000000E+01 0. -1.
        -11    1    4    4    0    0  0.18779792888E+02 -0.18556796522E+01  0.87150030077E+01  0.20786424544E+02  0.00000000000E+00 0.  1.
         12    1    4    4    0    0 -0.29459536174E+02  0.15908003244E+02 -0.83727464840E+02  0.90173262153E+02  0.00000000000E+00 0. -1.
         -5    1    5    5    0  502  0.11827612887E+02 -0.95884759680E+02 -0.61794697722E+02  0.11478002540E+03  0.47000000000E+01 0.  1.
         11    1    6    6    0    0  0.11591086063E+02  0.22468053335E+02 -0.20559339290E+02  0.32586087964E+02  0.00000000000E+00 0. -1.
        -12    1    6    6    0    0  0.11652449588E+03 -0.45004537603E+02 -0.33618197331E+02  0.12935822254E+03  0.00000000000E+00 0.  1.
</event>
<event>
12    1  0.9873238E-001  0.1968180E+03  0.7818608E-02  0.1154292E+00
         21   -1    0    0  503  502  0.00000000000E+00  0.00000000000E+00  0.35897124192E+03  0.35897124192E+03  0.00000000000E+00 0. -1.
         21   -1    0    0  501  503 -0.00000000000E+00 -0.00000000000E+00 -0.15791333466E+03  0.15791333466E+03  0.00000000000E+00 0. -1.
          6    2    1    2  501    0  0.46796185331E+02  0.61520305355E+02 -0.49892409748E+02  0.20304327484E+03  0.18100466285E+03 0.  0.
         24    2    3    3    0    0  0.32641754785E+02  0.10947809220E+03 -0.10773126612E+02  0.13938241138E+03  0.79123065656E+02 0.  0.
         -6    2    1    2    0  502 -0.46796185331E+02 -0.61520305355E+02  0.25095031702E+03  0.31384130174E+03  0.17188853987E+03 0.  0.
        -24    2    5    5    0    0  0.17409654207E+02 -0.85874396337E+02  0.17468139088E+03  0.21110595888E+03  0.79841277244E+02 0.  0.
          5    1    3    3  501    0  0.14154430546E+02 -0.47957786842E+02 -0.39119283136E+02  0.63660863456E+02  0.47000000000E+01 0. -1.
        -11    1    4    4    0    0  0.28780493074E+02  0.16947082361E+02  0.23276180159E+02  0.40709961249E+02  0.00000000000E+00 0.  1.
         12    1    4    4    0    0  0.38612617106E+01  0.92531009835E+02 -0.34049306772E+02  0.98672450131E+02  0.00000000000E+00 0. -1.
         -5    1    5    5    0  502 -0.64205839538E+02  0.24354090982E+02  0.76268926139E+02  0.10273534286E+03  0.47000000000E+01 0.  1.
         11    1    6    6    0    0  0.43544011477E+01  0.14256099427E+02  0.10063668251E+02  0.17985399604E+02  0.00000000000E+00 0. -1.
        -12    1    6    6    0    0  0.13055253059E+02 -0.10013049576E+03  0.16461772262E+03  0.19312055928E+03  0.00000000000E+00 0.  1.
</event>
<event>
12    1  0.9873238E-001  0.2003649E+03  0.7818608E-02  0.1150816E+00
         21   -1    0    0  501  502  0.00000000000E+00  0.00000000000E+00  0.43072778236E+02  0.43072778236E+02  0.00000000000E+00 0. -1.
         21   -1    0    0  502  503 -0.00000000000E+00 -0.00000000000E+00 -0.90760046850E+03  0.90760046850E+03  0.00000000000E+00 0. -1.
         -6    2    1    2    0  503  0.16144618429E+02 -0.89684297181E+02 -0.47585929396E+03  0.51632175064E+03  0.17844371851E+03 0.  0.
        -24    2    3    3    0    0  0.58501239508E+02 -0.29751634356E+02 -0.39098505418E+03  0.40401977381E+03  0.77814589035E+02 0.  0.
          6    2    1    2  501    0 -0.16144618429E+02  0.89684297181E+02 -0.38866839631E+03  0.43435149609E+03  0.17115542062E+03 0.  0.
         24    2    5    5    0    0  0.30657617782E+02  0.10265782119E+03 -0.21093365200E+03  0.25004064190E+03  0.80924651848E+02 0.  0.
          5    1    5    5  501    0 -0.46802236212E+02 -0.12973524010E+02 -0.17773474430E+03  0.18431085419E+03  0.47000000000E+01 0. -1.
        -11    1    6    6    0    0  0.52650584869E+02  0.71116391634E+02 -0.10481761477E+03  0.13717272911E+03  0.00000000000E+00 0.  1.
         12    1    6    6    0    0 -0.21992967087E+02  0.31541429557E+02 -0.10611603723E+03  0.11286791279E+03  0.00000000000E+00 0. -1.
         -5    1    3    3    0  503 -0.42356621079E+02 -0.59932662826E+02 -0.84874239781E+02  0.11230197683E+03  0.47000000000E+01 0.  1.
         11    1    4    4    0    0  0.40173665841E+02  0.22390726325E+02 -0.15716136376E+03  0.16375274750E+03  0.00000000000E+00 0. -1.
        -12    1    4    4    0    0  0.18327573667E+02 -0.52142360681E+02 -0.23382369041E+03  0.24026702631E+03  0.00000000000E+00 0.  1.
</event>
<event>
12    1  0.9873238E-001  0.2116541E+03  0.7818608E-02  0.1140271E+00
         21   -1    0    0  501  502  0.00000000000E+00  0.00000000000E+00  0.11714025797E+03  0.11714025797E+03  0.00000000000E+00 0. -1.
         21   -1    0    0  502  503 -0.00000000000E+00 -0.00000000000E+00 -0.64674552370E+03  0.64674552370E+03  0.00000000000E+00 0. -1.
         -6    2    1    2    0  503 -0.12283751244E+03 -0.11107962302E+02 -0.20611551949E+02  0.21265535827E+03  0.17200297683E+03 0.  0.
        -24    2    3    3    0    0 -0.58944551836E+02 -0.34330020371E+02  0.46847055922E+02  0.11676829881E+03  0.82384333882E+02 0.  0.
          6    2    1    2  501    0  0.12283751244E+03  0.11107962302E+02 -0.50899371378E+03  0.55123042340E+03  0.17195330100E+03 0.  0.
         24    2    5    5    0    0  0.15628389553E+03  0.19504984904E+02 -0.43527915228E+03  0.46971295835E+03  0.79732191745E+02 0.  0.
          5    1    5    5  501    0 -0.33446383087E+02 -0.83970226018E+01 -0.73714561507E+02  0.81517465051E+02  0.47000000000E+01 0. -1.
        -11    1    6    6    0    0  0.39137547920E+02  0.36652805044E+01 -0.36002259028E+02  0.53304264309E+02  0.00000000000E+00 0.  1.
         12    1    6    6    0    0  0.11714634761E+03  0.15839704399E+02 -0.39927689325E+03  0.41640869404E+03  0.00000000000E+00 0. -1.
         -5    1    3    3    0  503 -0.63892960606E+02  0.23222058069E+02 -0.67458607871E+02  0.95887059460E+02  0.47000000000E+01 0.  1.
         13    1    4    4    0    0 -0.14952472367E+02  0.16039980010E+02  0.44779070000E+02  0.49860029068E+02  0.00000000000E+00 0. -1.
        -14    1    4    4    0    0 -0.43992079470E+02 -0.50370000381E+02  0.20679859214E+01  0.66908269744E+02  0.00000000000E+00 0.  1.
</event>
<event>
12    1  0.9873238E-001  0.4651489E+03  0.7818608E-02  0.1023312E+00
         21   -1    0    0  501  502  0.00000000000E+00  0.00000000000E+00  0.13238687459E+04  0.13238687459E+04  0.00000000000E+00 0. -1.
         21   -1    0    0  502  503 -0.00000000000E+00 -0.00000000000E+00 -0.17956975397E+03  0.17956975397E+03  0.00000000000E+00 0. -1.
         -6    2    1    2    0  503 -0.32825832200E+03 -0.28078128825E+03  0.79806884202E+03  0.92373013343E+03  0.17254513906E+03 0.  0.
        -24    2    3    3    0    0 -0.21732461042E+03 -0.26422853462E+03  0.63132617666E+03  0.72271896839E+03  0.81873445874E+02 0.  0.
          6    2    1    2  501    0  0.32825832200E+03  0.28078128825E+03  0.34623014994E+03  0.57970836647E+03  0.17203143792E+03 0.  0.
         24    2    5    5    0    0  0.54721957488E+02  0.48516418022E+02  0.73053160342E+02  0.12869077225E+03  0.76656475112E+02 0.  0.
          5    1    5    5  501    0  0.27353636451E+03  0.23226487022E+03  0.27317698959E+03  0.45101759422E+03  0.47000000000E+01 0. -1.
        -11    1    6    6    0    0  0.27202256376E+02  0.43008588154E+02  0.84288946173E+02  0.98459777848E+02  0.00000000000E+00 0.  1.
         12    1    6    6    0    0  0.27519701112E+02  0.55078298682E+01 -0.11235785831E+02  0.30230994399E+02  0.00000000000E+00 0. -1.
         -5    1    3    3    0  503 -0.11093371158E+03 -0.16552753625E+02  0.16674266537E+03  0.20101116504E+03  0.47000000000E+01 0.  1.
         11    1    4    4    0    0 -0.10688819135E+03 -0.13708846765E+03  0.23682518786E+03  0.29377628056E+03  0.00000000000E+00 0. -1.
        -12    1    4    4    0    0 -0.11043641907E+03 -0.12714006697E+03  0.39450098879E+03  0.42894268783E+03  0.00000000000E+00 0.  1.
</event>
<event>
12    1  0.9873238E-001  0.2989102E+03  0.7818608E-02  0.1085796E+00
         21   -1    0    0  501  502  0.00000000000E+00  0.00000000000E+00  0.52149540273E+03  0.52149540273E+03  0.00000000000E+00 0.  1.
         21   -1    0    0  502  503 -0.00000000000E+00 -0.00000000000E+00 -0.22561820708E+03  0.22561820708E+03  0.00000000000E+00 0.  1.
         -6    2    1    2    0  503  0.82054158697E+02  0.23045460429E+03 -0.35363582075E+02  0.30099480447E+03  0.17177042756E+03 0.  0.
        -24    2    3    3    0    0  0.71328791264E+02  0.20374210856E+03 -0.83437390456E+02  0.24476516827E+03  0.79684039882E+02 0.  0.
          6    2    1    2  501    0 -0.82054158697E+02 -0.23045460429E+03  0.33124077773E+03  0.44611880533E+03  0.17163719306E+03 0.  0.
         24    2    5    5    0    0 -0.17273236268E+01 -0.38079364565E+02  0.11963285487E+03  0.14903188824E+03  0.80283635283E+02 0.  0.
          5    1    5    5  501    0 -0.80326835070E+02 -0.19237523973E+03  0.21160792286E+03  0.29708691710E+03  0.47000000000E+01 0. -1.
        -11    1    6    6    0    0 -0.38394258344E+02 -0.36356344965E+01  0.51939837797E+02  0.64692222580E+02  0.00000000000E+00 0.  1.
         12    1    6    6    0    0  0.36666934717E+02 -0.34443730068E+02  0.67693017073E+02  0.84339665656E+02  0.00000000000E+00 0. -1.
         -5    1    3    3    0  503  0.10725367433E+02  0.26712495736E+02  0.48073808381E+02  0.56229636201E+02  0.47000000000E+01 0.  1.
         13    1    4    4    0    0 -0.10548979346E+02  0.70242724856E+02 -0.97810588255E+01  0.71700700640E+02  0.00000000000E+00 0. -1.
        -14    1    4    4    0    0  0.81877770609E+02  0.13349938370E+03 -0.73656331630E+02  0.17306446763E+03  0.00000000000E+00 0.  1.
</event>
<event>
12    1  0.9873238E-001  0.2347003E+03  0.7818608E-02  0.1125490E+00
         21   -1    0    0  501  502  0.00000000000E+00  0.00000000000E+00  0.74125161751E+02  0.74125161751E+02  0.00000000000E+00 0.  1.
         21   -1    0    0  502  503 -0.00000000000E+00 -0.00000000000E+00 -0.70970526239E+03  0.70970526239E+03  0.00000000000E+00 0.  1.
         -6    2    1    2    0  503  0.15884347404E+03 -0.89417410132E+01 -0.29636794700E+03  0.37804522589E+03  0.17254862745E+03 0.  0.
        -24    2    3    3    0    0  0.67381719225E+02  0.25566489317E+02 -0.61060379257E+02  0.12319661987E+03  0.79089163424E+02 0.  0.
          6    2    1    2  501    0 -0.15884347404E+03  0.89417410132E+01 -0.33921215364E+03  0.40578519825E+03  0.15583817877E+03 0.  0.
         24    2    5    5    0    0 -0.16868978024E+03 -0.74958969492E+01 -0.23795577195E+03  0.30262468972E+03  0.80288996705E+02 0.  0.
          5    1    5    5  501    0  0.98463062053E+01  0.16437637962E+02 -0.10125638169E+03  0.10316050853E+03  0.47000000000E+01 0. -1.
        -11    1    6    6    0    0 -0.67588200485E+02 -0.40498197514E+02 -0.80734124728E+02  0.11281076076E+03  0.00000000000E+00 0.  1.
         12    1    6    6    0    0 -0.10110157976E+03  0.33002300565E+02 -0.15722164722E+03  0.18981392896E+03  0.00000000000E+00 0. -1.
         -5    1    3    3    0  503  0.91461754813E+02 -0.34508230330E+02 -0.23530756774E+03  0.25484860602E+03  0.47000000000E+01 0.  1.
         13    1    4    4    0    0  0.37223013857E+02 -0.19216521338E+02 -0.27015144833E+00  0.41891531778E+02  0.00000000000E+00 0. -1.
        -14    1    4    4    0    0  0.30158705368E+02  0.44783010656E+02 -0.60790227809E+02  0.81305088094E+02  0.00000000000E+00 0.  1.
</event>
<event>
12    1  0.9873238E-001  0.2382585E+03  0.7818608E-02  0.1121220E+00
         21   -1    0    0  503  502  0.00000000000E+00  0.00000000000E+00  0.18422039907E+03  0.18422039907E+03  0.00000000000E+00 0. -1.
         21   -1    0    0  501  503 -0.00000000000E+00 -0.00000000000E+00 -0.33654004166E+03  0.33654004166E+03  0.00000000000E+00 0. -1.
          6    2    1    2  501    0  0.13510584727E+03  0.83332645621E+02  0.23139017659E+01  0.23672056437E+03  0.17559428141E+03 0.  0.
         24    2    3    3    0    0  0.11069221675E+03  0.12915038575E+02 -0.49400397628E+02  0.14588486930E+03  0.80140069472E+02 0.  0.
         -6    2    1    2    0  502 -0.13510584727E+03 -0.83332645621E+02 -0.15463354435E+03  0.28403987636E+03  0.17767723132E+03 0.  0.
        -24    2    5    5    0    0 -0.33278427711E+02 -0.77797156496E+00 -0.11149548351E+03  0.14595627894E+03  0.88113185897E+02 0.  0.
          5    1    3    3  501    0  0.24413630517E+02  0.70417607046E+02  0.51714299394E+02  0.90835695070E+02  0.47000000000E+01 0. -1.
        -11    1    4    4    0    0  0.10948080680E+03  0.34758111508E+02 -0.46051262436E+02  0.12375335205E+03  0.00000000000E+00 0.  1.
         12    1    4    4    0    0  0.12114099539E+01 -0.21843072933E+02 -0.33491351925E+01  0.22131517249E+02  0.00000000000E+00 0. -1.
         -5    1    5    5    0  502 -0.10182741956E+03 -0.82554674056E+02 -0.43138060839E+02  0.13808359741E+03  0.47000000000E+01 0.  1.
         11    1    6    6    0    0  0.95015207253E+00 -0.41007100936E+02 -0.42527136330E+02  0.59085044137E+02  0.00000000000E+00 0. -1.
        -12    1    6    6    0    0 -0.34228579784E+02  0.40229129371E+02 -0.68968347182E+02  0.86871234808E+02  0.00000000000E+00 0.  1.
</event>
<event>
12    1  0.9873238E-001  0.1810673E+03  0.7818608E-02  0.1167784E+00
         21   -1    0    0  503  502  0.00000000000E+00  0.00000000000E+00  0.16302022776E+03  0.16302022776E+03  0.00000000000E+00 0.  1.
         21   -1    0    0  501  503 -0.00000000000E+00 -0.00000000000E+00 -0.19652514075E+03  0.19652514075E+03  0.00000000000E+00 0.  1.
          6    2    1    2  501    0 -0.50918018050E+02  0.17688728543E+02 -0.17245107600E+02  0.18188668753E+03  0.17285785399E+03 0.  0.
         24    2    3    3    0    0 -0.61116871198E+01 -0.46122895295E+02 -0.40376109349E+02  0.10042096547E+03  0.79306153042E+02 0.  0.
         -6    2    1    2    0  502  0.50918018050E+02 -0.17688728543E+02 -0.16259805397E+02  0.17765868098E+03  0.16850130556E+03 0.  0.
        -24    2    5    5    0    0  0.12881186363E+02 -0.32631318573E+02 -0.69142886143E+02  0.11066023480E+03  0.78957082947E+02 0.  0.
          5    1    3    3  501    0 -0.44806330931E+02  0.63811623838E+02  0.23131001749E+02  0.81465722057E+02  0.47000000000E+01 0. -1.
        -13    1    4    4    0    0 -0.59169316316E+01 -0.68537560073E+02 -0.35772516658E+02  0.77537604869E+02  0.00000000000E+00 0.  1.
         14    1    4    4    0    0 -0.19475548817E+00  0.22414664778E+02 -0.46035926909E+01  0.22883360603E+02  0.00000000000E+00 0. -1.
         -5    1    5    5    0  502  0.38036831687E+02  0.14942590030E+02  0.52883080745E+02  0.66998446181E+02  0.47000000000E+01 0.  1.
         13    1    6    6    0    0 -0.19970486838E+02 -0.29117148669E+02 -0.14529245224E+01  0.35337510960E+02  0.00000000000E+00 0. -1.
        -14    1    6    6    0    0  0.32851673202E+02 -0.35141699042E+01 -0.67689961620E+02  0.75322723838E+02  0.00000000000E+00 0.  1.
</event>
<event>
12    1  0.9873238E-001  0.4373107E+03  0.7818608E-02  0.1031936E+00
         21   -1    0    0  501  502  0.00000000000E+00  0.00000000000E+00  0.19035176930E+04  0.19035176930E+04  0.00000000000E+00 0.  1.
         21   -1    0    0  502  503 -0.00000000000E+00 -0.00000000000E+00 -0.99415187691E+02  0.99415187691E+02  0.00000000000E+00 0. -1.
         -6    2    1    2    0  503  0.66179097020E+02  0.39417992839E+03  0.90800658069E+03  0.10058227912E+04  0.16566848783E+03 0.  0.
        -24    2    3    3    0    0  0.63579860373E+02  0.25273652783E+03  0.44733288163E+03  0.52389402196E+03  0.80250159627E+02 0.  0.
          6    2    1    2  501    0 -0.66179097020E+02 -0.39417992839E+03  0.89609592462E+03  0.99711008951E+03  0.17743487721E+03 0.  0.
         24    2    5    5    0    0 -0.42676048454E+02 -0.33942497010E+03  0.60253978088E+03  0.69753072060E+03  0.80401263641E+02 0.  0.
          5    1    5    5  501    0 -0.23503048566E+02 -0.54754958285E+02  0.29355614373E+03  0.29957936890E+03  0.47000000000E+01 0. -1.
        -13    1    6    6    0    0 -0.33991330432E+02 -0.18804093214E+03  0.41088151764E+03  0.45314282985E+03  0.00000000000E+00 0.  1.
         14    1    6    6    0    0 -0.86847180222E+01 -0.15138403797E+03  0.19165826324E+03  0.24438789075E+03  0.00000000000E+00 0. -1.
         -5    1    3    3    0  503  0.25992366476E+01  0.14144340056E+03  0.46067369906E+03  0.48192876922E+03  0.47000000000E+01 0.  1.
         13    1    4    4    0    0  0.44589688156E+02  0.46385255253E+02  0.86731588301E+02  0.10799166914E+03  0.00000000000E+00 0. -1.
        -14    1    4    4    0    0  0.18990172217E+02  0.20635127257E+03  0.36060129333E+03  0.41590235282E+03  0.00000000000E+00 0.  1.
</event>
<event>
12    1  0.9873238E-001  0.2155922E+03  0.7818608E-02  0.1137444E+00
         21   -1    0    0  503  502  0.00000000000E+00  0.00000000000E+00  0.31388504469E+03  0.31388504469E+03  0.00000000000E+00 0.  1.
         21   -1    0    0  501  503 -0.00000000000E+00 -0.00000000000E+00 -0.21970758246E+03  0.21970758246E+03  0.00000000000E+00 0.  1.
          6    2    1    2  501    0  0.43426613759E+02  0.12012931121E+03  0.20021143579E+03  0.29333606632E+03  0.17217580141E+03 0.  0.
         24    2    3    3    0    0 -0.38739288150E+02  0.85000599529E+02  0.10223169238E+03  0.16064325589E+03  0.81419299742E+02 0.  0.
         -6    2    1    2    0  502 -0.43426613759E+02 -0.12012931121E+03 -0.10603397356E+03  0.24025656082E+03  0.17367524083E+03 0.  0.
        -24    2    5    5    0    0 -0.65080583925E+02 -0.95629929053E+02 -0.13612124897E+03  0.19557492823E+03  0.79624069188E+02 0.  0.
          5    1    3    3  501    0  0.82165901909E+02  0.35128711680E+02  0.97979743411E+02  0.13269281043E+03  0.47000000000E+01 0. -1.
        -13    1    4    4    0    0 -0.38066789378E+02  0.10070952374E+03  0.93846043220E+02  0.14282355707E+03  0.00000000000E+00 0.  1.
         14    1    4    4    0    0 -0.67249877141E+00 -0.15708924210E+02  0.83856491622E+01  0.17819698827E+02  0.00000000000E+00 0. -1.
         -5    1    5    5    0  502  0.21653970166E+02 -0.24499382156E+02  0.30087275412E+02  0.44681632599E+02  0.47000000000E+01 0.  1.
         11    1    6    6    0    0 -0.41235381721E+02 -0.73357485833E+02 -0.13934790378E+03  0.16278671851E+03  0.00000000000E+00 0. -1.
        -12    1    6    6    0    0 -0.23845202205E+02 -0.22272443220E+02  0.32266548138E+01  0.32788209717E+02  0.00000000000E+00 0.  1.
</event>
<event>
12    1  0.9873238E-001  0.4130234E+03  0.7818608E-02  0.1039388E+00
         21   -1    0    0  501  502  0.00000000000E+00  0.00000000000E+00  0.38639899059E+03  0.38639899059E+03  0.00000000000E+00 0.  1.
         21   -1    0    0  502  503 -0.00000000000E+00 -0.00000000000E+00 -0.68106656116E+03  0.68106656116E+03  0.00000000000E+00 0. -1.
         -6    2    1    2    0  503 -0.33629487889E+03  0.16626088281E+03  0.16948989019E+03  0.44615206434E+03  0.17201138020E+03 0.  0.
        -24    2    3    3    0    0 -0.31538491079E+03  0.12645500697E+03  0.18893882514E+03  0.39693737559E+03  0.80018058888E+02 0.  0.
          6    2    1    2  501    0  0.33629487889E+03 -0.16626088281E+03 -0.46415746076E+03  0.62131348741E+03  0.17277550327E+03 0.  0.
         24    2    5    5    0    0  0.32485503499E+03 -0.13892101849E+03 -0.46731114292E+03  0.59114108411E+03  0.78982491039E+02 0.  0.
          5    1    5    5  501    0  0.11439843904E+02 -0.27339864319E+02  0.31536821560E+01  0.30172403296E+02  0.47000000000E+01 0. -1.
        -13    1    6    6    0    0  0.53435225188E+02 -0.98781937986E+01 -0.35023153224E+02  0.64649232520E+02  0.00000000000E+00 0.  1.
         14    1    6    6    0    0  0.27141980980E+03 -0.12904282470E+03 -0.43228798969E+03  0.52649185159E+03  0.00000000000E+00 0. -1.
         -5    1    3    3    0  503 -0.20909968098E+02  0.39805875848E+02 -0.19448934960E+02  0.49214688752E+02  0.47000000000E+01 0.  1.
         11    1    4    4    0    0 -0.82061274275E+02 -0.21217361337E+01  0.54488833989E+02  0.98527090332E+02  0.00000000000E+00 0. -1.
        -12    1    4    4    0    0 -0.23332363652E+03  0.12857674310E+03  0.13444999116E+03  0.29841028526E+03  0.00000000000E+00 0.  1.
</event>
<event>
12    1  0.9873238E-001  0.2442971E+03  0.7818608E-02  0.1116965E+00
         21   -1    0    0  503  502  0.00000000000E+00  0.00000000000E+00  0.74147406006E+03  0.74147406006E+03  0.00000000000E+00 0. -1.
         21   -1    0    0  501  503 -0.00000000000E+00 -0.00000000000E+00 -0.31693944414E+03  0.31693944414E+03  0.00000000000E+00 0. -1.
          6    2    1    2  501    0  0.12968320308E+03 -0.11531765227E+03 -0.24483324760E+03  0.34585867352E+03  0.17192733590E+03 0.  0.
         24    2    3    3    0    0  0.86457101162E+02  0.36009898195E+01 -0.10840688067E+03  0.15972865735E+03  0.79204764593E+02 0.  0.
         -6    2    1    2    0  502 -0.12968320308E+03  0.11531765227E+03  0.66936786353E+03  0.71255483068E+03  0.17194521195E+03 0.  0.
        -24    2    5    5    0    0 -0.21546318678E+02  0.57276787049E+01  0.15628073696E+03  0.17684591950E+03  0.79710478259E+02 0.  0.
          5    1    3    3  501    0  0.43226101923E+02 -0.11891864209E+03 -0.13642636693E+03  0.18613001616E+03  0.47000000000E+01 0. -1.
        -11    1    4    4    0    0  0.61826869937E+02  0.50649553402E+01 -0.15971739161E+02  0.64057100080E+02  0.00000000000E+00 0.  1.
         12    1    4    4    0    0  0.24630231224E+02 -0.14639655206E+01 -0.92435141511E+02  0.95671557275E+02  0.00000000000E+00 0. -1.
         -5    1    5    5    0  502 -0.10813688441E+03  0.10958997357E+03  0.51308712657E+03  0.53570891118E+03  0.47000000000E+01 0.  1.
         11    1    6    6    0    0 -0.18466134781E+02 -0.10512799319E+02  0.16268175892E+01  0.21311114910E+02  0.00000000000E+00 0. -1.
        -12    1    6    6    0    0 -0.30801838979E+01  0.16240478024E+02  0.15465391938E+03  0.15553480459E+03  0.00000000000E+00 0.  1.
</event>
<event>
12    1  0.9873238E-001  0.2146496E+03  0.7818608E-02  0.1138124E+00
         21   -1    0    0  503  502  0.00000000000E+00  0.00000000000E+00  0.72344094740E+02  0.72344094740E+02  0.00000000000E+00 0.  1.
         21   -1    0    0  501  503 -0.00000000000E+00 -0.00000000000E+00 -0.87719836915E+03  0.87719836915E+03  0.00000000000E+00 0.  1.
          6    2    1    2  501    0 -0.83106215361E+02 -0.97215532604E+02 -0.65307992123E+03  0.68745023025E+03  0.17238599928E+03 0.  0.
         24    2    3    3    0    0 -0.92296225028E+02 -0.37644349482E+02 -0.57296896964E+03  0.58708571112E+03  0.80252737194E+02 0.  0.
         -6    2    1    2    0  502  0.83106215361E+02  0.97215532604E+02 -0.15177435318E+03  0.26209223363E+03  0.17117062201E+03 0.  0.
        -24    2    5    5    0    0  0.89402235189E+02  0.34827663881E+02 -0.15460543668E+03  0.19914788470E+03  0.80940182232E+02 0.  0.
          5    1    3    3  501    0  0.91900096672E+01 -0.59571183123E+02 -0.80110951592E+02  0.10036451914E+03  0.47000000000E+01 0. -1.
        -11    1    4    4    0    0 -0.18663660947E+01  0.42929326603E+00 -0.23885410859E+03  0.23886178599E+03  0.00000000000E+00 0.  1.
         12    1    4    4    0    0 -0.90429858934E+02 -0.38073642748E+02 -0.33411486104E+03  0.34822392513E+03  0.00000000000E+00 0. -1.
         -5    1    5    5    0  502 -0.62960198283E+01  0.62387868724E+02  0.28310835011E+01  0.62944348939E+02  0.47000000000E+01 0.  1.
         11    1    6    6    0    0 -0.91244210911E+01  0.34989822014E+01 -0.54043667177E+02  0.54920086477E+02  0.00000000000E+00 0. -1.
        -12    1    6    6    0    0  0.98526656280E+02  0.31328681679E+02 -0.10056176950E+03  0.14422779822E+03  0.00000000000E+00 0.  1.
</event>
<event>
12    1  0.9873238E-001  0.2219125E+03  0.7818608E-02  0.1133069E+00
         21   -1    0    0  503  502  0.00000000000E+00  0.00000000000E+00  0.25354192872E+03  0.25354192872E+03  0.00000000000E+00 0. -1.
         21   -1    0    0  501  503 -0.00000000000E+00 -0.00000000000E+00 -0.21650531940E+03  0.21650531940E+03  0.00000000000E+00 0.  1.
          6    2    1    2  501    0  0.99008423788E+01 -0.13396046852E+03  0.98435456775E+02  0.23979747562E+03  0.17253943421E+03 0.  0.
         24    2    3    3    0    0 -0.57783278043E+02 -0.10788362404E+03  0.64642099553E+02  0.15963998709E+03  0.79552126845E+02 0.  0.
         -6    2    1    2    0  502 -0.99008423788E+01  0.13396046852E+03 -0.61398847457E+02  0.23024977250E+03  0.17664004490E+03 0.  0.
        -24    2    5    5    0    0 -0.37676059813E+02  0.21386885601E+02  0.12358530003E+02  0.92748808857E+02  0.81072337587E+02 0.  0.
          5    1    3    3  501    0  0.67684120422E+02 -0.26076844472E+02  0.33793357222E+02  0.80157488529E+02  0.47000000000E+01 0. -1.
        -13    1    4    4    0    0 -0.74783245523E+01 -0.69192927023E+02  0.66347646551E+02  0.96154025870E+02  0.00000000000E+00 0.  1.
         14    1    4    4    0    0 -0.50304953491E+02 -0.38690697021E+02 -0.17055469976E+01  0.63485961222E+02  0.00000000000E+00 0. -1.
         -5    1    5    5    0  502  0.27775217434E+02  0.11257358292E+03 -0.73757377459E+02  0.13750096365E+03  0.47000000000E+01 0.  1.
         11    1    6    6    0    0 -0.38574004240E+01 -0.10177597411E+02 -0.28825699018E+02  0.30812074759E+02  0.00000000000E+00 0. -1.
        -12    1    6    6    0    0 -0.33818659389E+02  0.31564483012E+02  0.41184229021E+02  0.61936734098E+02  0.00000000000E+00 0.  1.
</event>
<event>
12    1  0.9873238E-001  0.3748179E+03  0.7818608E-02  0.1052871E+00
         21   -1    0    0  503  502  0.00000000000E+00  0.00000000000E+00  0.25164054169E+03  0.25164054169E+03  0.00000000000E+00 0. -1.
         21   -1    0    0  501  503 -0.00000000000E+00 -0.00000000000E+00 -0.55926647554E+03  0.55926647554E+03  0.00000000000E+00 0. -1.
          6    2    1    2  501    0 -0.33317788658E+03  0.70711809199E+01 -0.17149656340E+03  0.41218867784E+03  0.17155444960E+03 0.  0.
         24    2    3    3    0    0 -0.27760191178E+03  0.41502532913E+02 -0.85439304716E+02  0.30401220745E+03  0.79613226445E+02 0.  0.
         -6    2    1    2    0  502  0.33317788658E+03 -0.70711809199E+01 -0.13612937045E+03  0.39871833938E+03  0.17142812766E+03 0.  0.
        -24    2    5    5    0    0  0.34096592158E+03  0.56419210640E+01 -0.10862131203E+03  0.36707881143E+03  0.81600694985E+02 0.  0.
          5    1    3    3  501    0 -0.55575974800E+02 -0.34431351993E+02 -0.86057258682E+02  0.10817647039E+03  0.47000000000E+01 0. -1.
        -11    1    4    4    0    0 -0.21688209895E+03  0.24743601254E+01 -0.81570327013E+02  0.23172761068E+03  0.00000000000E+00 0.  1.
         12    1    4    4    0    0 -0.60719812831E+02  0.39028172788E+02 -0.38689777023E+01  0.72284596768E+02  0.00000000000E+00 0. -1.
         -5    1    5    5    0  502 -0.77880349931E+01 -0.12713101984E+02 -0.27508058425E+02  0.31639527958E+02  0.47000000000E+01 0.  1.
         11    1    6    6    0    0  0.14251486771E+03 -0.70724146125E+01 -0.48484682834E+01  0.14277259615E+03  0.00000000000E+00 0. -1.
        -12    1    6    6    0    0  0.19845105386E+03  0.12714335677E+02 -0.10377284375E+03  0.22430621527E+03  0.00000000000E+00 0.  1.
</event>
<event>
12    1  0.9873238E-001  0.1945070E+03  0.7818608E-02  0.1154531E+00
         21   -1    0    0  503  502  0.00000000000E+00  0.00000000000E+00  0.26851877889E+03  0.26851877889E+03  0.00000000000E+00 0.  1.
         21   -1    0    0  501  503 -0.00000000000E+00 -0.00000000000E+00 -0.14842292066E+03  0.14842292066E+03  0.00000000000E+00 0.  1.
          6    2    1    2  501    0  0.22721935117E+02 -0.88497896545E+02  0.10779822398E+03  0.22238131277E+03  0.17171146481E+03 0.  0.
         24    2    3    3    0    0 -0.50901927431E+02 -0.60513693035E+02  0.44265239699E+02  0.12107919594E+03  0.80298486800E+02 0.  0.
         -6    2    1    2    0  502 -0.22721935117E+02  0.88497896545E+02  0.12297634252E+02  0.19456038678E+03  0.17133110712E+03 0.  0.
        -24    2    5    5    0    0  0.35589759364E+02  0.10147975864E+03  0.38762906679E+01  0.13404764858E+03  0.79931058259E+02 0.  0.
          5    1    3    3  501    0  0.73623862548E+02 -0.27984203510E+02  0.63532984280E+02  0.10130211683E+03  0.47000000000E+01 0. -1.
        -13    1    4    4    0    0 -0.52317666719E+02 -0.22153013058E+01  0.95968200497E+01  0.53236686278E+02  0.00000000000E+00 0.  1.
         14    1    4    4    0    0  0.14157392884E+01 -0.58298391729E+02  0.34668419649E+02  0.67842509660E+02  0.00000000000E+00 0. -1.
         -5    1    5    5    0  502 -0.58311694481E+02 -0.12981862096E+02  0.84213435845E+01  0.60512738201E+02  0.47000000000E+01 0.  1.
         11    1    6    6    0    0  0.21439675343E+02 -0.82783704886E+01  0.42953948496E+01  0.23380365986E+02  0.00000000000E+00 0. -1.
        -12    1    6    6    0    0  0.14150084021E+02  0.10975812913E+03 -0.41910418175E+00  0.11066728259E+03  0.00000000000E+00 0.  1.
</event>
<event>
12    1  0.9873238E-001  0.3383949E+03  0.7818608E-02  0.1067531E+00
         21   -1    0    0  503  502  0.00000000000E+00  0.00000000000E+00  0.14299103929E+03  0.14299103929E+03  0.00000000000E+00 0.  1.
         21   -1    0    0  501  503 -0.00000000000E+00 -0.00000000000E+00 -0.82387566632E+03  0.82387566632E+03  0.00000000000E+00 0.  1.
          6    2    1    2  501    0 -0.11021039202E+03  0.27002798198E+03 -0.42298082630E+03  0.54139584589E+03  0.17069048294E+03 0.  0.
         24    2    3    3    0    0 -0.81894649688E+01  0.45724646098E+02 -0.94152170541E+02  0.13045712674E+03  0.77437846713E+02 0.  0.
         -6    2    1    2    0  502  0.11021039202E+03 -0.27002798198E+03 -0.25790380073E+03  0.42547085973E+03  0.17160897552E+03 0.  0.
        -24    2    5    5    0    0  0.24248682304E+02 -0.22860094004E+03 -0.19831683264E+03  0.31287284861E+03  0.75587465278E+02 0.  0.
          5    1    3    3  501    0 -0.10202092705E+03  0.22430333589E+03 -0.32882865576E+03  0.41093871915E+03  0.47000000000E+01 0. -1.
        -13    1    4    4    0    0  0.62783452915E+01  0.56094276170E+02 -0.97197676821E+02  0.11239828210E+03  0.00000000000E+00 0.  1.
         14    1    4    4    0    0 -0.14467810260E+02 -0.10369630072E+02  0.30455062796E+01  0.18058844649E+02  0.00000000000E+00 0. -1.
         -5    1    5    5    0  502  0.85961709716E+02 -0.41427041947E+02 -0.59586968096E+02  0.11259801112E+03  0.47000000000E+01 0.  1.
         13    1    6    6    0    0  0.20312000878E+02 -0.11034157102E+03 -0.49187953600E+02  0.12250426300E+03  0.00000000000E+00 0. -1.
        -14    1    6    6    0    0  0.39366814264E+01 -0.11825936902E+03 -0.14912887904E+03  0.19036858561E+03  0.00000000000E+00 0.  1.
</event>
<event>
12    1  0.9873238E-001  0.4430004E+03  0.7818608E-02  0.1029834E+00
         21   -1    0    0  503  502  0.00000000000E+00  0.00000000000E+00  0.13577859443E+04  0.13577859443E+04  0.00000000000E+00 0.  1.
         21   -1    0    0  501  503 -0.00000000000E+00 -0.00000000000E+00 -0.15718706591E+03  0.15718706591E+03  0.00000000000E+00 0.  1.
          6    2    1    2  501    0  0.21300963210E+03  0.34804466278E+03  0.81534178232E+03  0.92791786344E+03  0.17245622238E+03 0.  0.
         24    2    3    3    0    0  0.41405099928E+02  0.16842481326E+03  0.42153778895E+03  0.46228380004E+03  0.77012364236E+02 0.  0.
         -6    2    1    2    0  502 -0.21300963210E+03 -0.34804466278E+03  0.38525709610E+03  0.58705514679E+03  0.17234420392E+03 0.  0.
        -24    2    5    5    0    0 -0.18293951842E+03 -0.17118658496E+03  0.23830703638E+03  0.35510816691E+03  0.80869353548E+02 0.  0.
          5    1    3    3  501    0  0.17160453217E+03  0.17961984952E+03  0.39380399337E+03  0.46563406340E+03  0.47000000000E+01 0. -1.
        -13    1    4    4    0    0  0.45447089040E+02  0.64327706164E+02  0.24446400241E+03  0.25683874349E+03  0.00000000000E+00 0.  1.
         14    1    4    4    0    0 -0.40419891123E+01  0.10409710710E+03  0.17707378654E+03  0.20544505655E+03  0.00000000000E+00 0. -1.
         -5    1    5    5    0  502 -0.30070113679E+02 -0.17685807783E+03  0.14695005971E+03  0.23194697989E+03  0.47000000000E+01 0.  1.
         13    1    6    6    0    0 -0.71244876827E+02 -0.22975615538E+02  0.46034458677E+02  0.87879933825E+02  0.00000000000E+00 0. -1.
        -14    1    6    6    0    0 -0.11169464160E+03 -0.14821096942E+03  0.19227257771E+03  0.26722823308E+03  0.00000000000E+00 0.  1.
</event>
<event>
12    1  0.9873238E-001  0.2185613E+03  0.7818608E-02  0.1135100E+00
         21   -1    0    0  503  502  0.00000000000E+00  0.00000000000E+00  0.25237192878E+03  0.25237192878E+03  0.00000000000E+00 0. -1.
         21   -1    0    0  501  503 -0.00000000000E+00 -0.00000000000E+00 -0.18874906128E+03  0.18874906128E+03  0.00000000000E+00 0.  1.
          6    2    1    2  501    0 -0.45964574477E+02 -0.12444899809E+03  0.26508701412E+02  0.22016299285E+03  0.17369149932E+03 0.  0.
         24    2    3    3    0    0  0.15088051150E+02 -0.20946344518E+02  0.46870346832E+02  0.98192057800E+02  0.82331355914E+02 0.  0.
         -6    2    1    2    0  502  0.45964574477E+02  0.12444899809E+03  0.37114166086E+02  0.22095799722E+03  0.17275612863E+03 0.  0.
        -24    2    5    5    0    0  0.35647811913E+01  0.56118369168E+02  0.82998225680E+02  0.12825279648E+03  0.79988094845E+02 0.  0.
          5    1    3    3  501    0 -0.61052625626E+02 -0.10350265357E+03 -0.20361645420E+02  0.12197093504E+03  0.47000000000E+01 0. -1.
        -11    1    4    4    0    0  0.37092254999E+02 -0.20426937239E+02 -0.42273821257E+01  0.42555445075E+02  0.00000000000E+00 0.  1.
         12    1    4    4    0    0 -0.22004203849E+02 -0.51940727901E+00  0.51097728958E+02  0.55636612726E+02  0.00000000000E+00 0. -1.
         -5    1    5    5    0  502  0.42399793285E+02  0.68330628918E+02 -0.45884059594E+02  0.92705200737E+02  0.47000000000E+01 0.  1.
         13    1    6    6    0    0 -0.15625095963E+02  0.27646062451E+02 -0.64821831172E+01  0.32410910059E+02  0.00000000000E+00 0. -1.
        -14    1    6    6    0    0  0.19189877154E+02  0.28472306718E+02  0.89480408797E+02  0.95841886425E+02  0.00000000000E+00 0.  1.
</event>
<event>
12    1  0.9873238E-001  0.1978945E+03  0.7818608E-02  0.1151641E+00
         21   -1    0    0  501  502  0.00000000000E+00  0.00000000000E+00  0.21465920604E+03  0.21465920604E+03  0.00000000000E+00 0. -1.
         21   -1    0    0  502  503 -0.00000000000E+00 -0.00000000000E+00 -0.18211378324E+03  0.18211378324E+03  0.00000000000E+00 0. -1.
         -6    2    1    2    0  503 -0.11903382087E+02  0.97127780565E+02  0.22242674178E+02  0.19914056704E+03  0.17200794349E+03 0.  0.
        -24    2    3    3    0    0  0.50645047787E+02  0.30692476548E+02 -0.88828645839E+01  0.10261676240E+03  0.83332740624E+02 0.  0.
          6    2    1    2  501    0  0.11903382087E+02 -0.97127780565E+02  0.10302748619E+02  0.19763242224E+03  0.17139699948E+03 0.  0.
         24    2    5    5    0    0  0.53134219292E+02 -0.83148686358E+01  0.18868156478E+02  0.99229315211E+02  0.81228488649E+02 0.  0.
          5    1    5    5  501    0 -0.41230837206E+02 -0.88812911930E+02 -0.85654078592E+01  0.98403107034E+02  0.47000000000E+01 0. -1.
        -11    1    6    6    0    0  0.17171136111E+02  0.68816408815E+01 -0.30876045984E+02  0.35993542645E+02  0.00000000000E+00 0.  1.
         12    1    6    6    0    0  0.35963083182E+02 -0.15196509517E+02  0.49744202462E+02  0.63235772566E+02  0.00000000000E+00 0. -1.
         -5    1    3    3    0  503 -0.62548429874E+02  0.66435304017E+02  0.31125538761E+02  0.96523804643E+02  0.47000000000E+01 0.  1.
         11    1    4    4    0    0  0.34833570056E+02 -0.58539261180E+01 -0.39053568166E+02  0.52657641804E+02  0.00000000000E+00 0. -1.
        -12    1    4    4    0    0  0.15811477731E+02  0.36546402666E+02  0.30170703582E+02  0.49959120594E+02  0.00000000000E+00 0.  1.
</event>
<event>
12    1  0.9873238E-001  0.3607050E+03  0.7818608E-02  0.1058463E+00
         21   -1    0    0  501  502  0.00000000000E+00  0.00000000000E+00  0.59037494912E+03  0.59037494912E+03  0.00000000000E+00 0.  1.
         21   -1    0    0  502  503 -0.00000000000E+00 -0.00000000000E+00 -0.22249341782E+03  0.22249341782E+03  0.00000000000E+00 0. -1.
         -6    2    1    2    0  503  0.31467710647E+03  0.24338432297E+02  0.13567157801E+03  0.38388170889E+03  0.17130192269E+03 0.  0.
        -24    2    3    3    0    0  0.23574025046E+03  0.67065844176E+02  0.56782738583E+02  0.26428991173E+03  0.80954214822E+02 0.  0.
          6    2    1    2  501    0 -0.31467710647E+03 -0.24338432297E+02  0.23220995329E+03  0.42898665804E+03  0.17462545561E+03 0.  0.
         24    2    5    5    0    0 -0.18087469864E+03  0.55769311323E+02  0.12085716783E+03  0.23730497462E+03  0.76689785959E+02 0.  0.
          5    1    5    5  501    0 -0.13380240783E+03 -0.80107743620E+02  0.11135278547E+03  0.19168168342E+03  0.47000000000E+01 0. -1.
        -13    1    6    6    0    0 -0.41844395378E+02  0.30854563645E+01  0.67235711669E+02  0.79253481874E+02  0.00000000000E+00 0.  1.
         14    1    6    6    0    0 -0.13903030326E+03  0.52683854958E+02  0.53621456157E+02  0.15805149275E+03  0.00000000000E+00 0. -1.
         -5    1    3    3    0  503  0.78936856012E+02 -0.42727411879E+02  0.78888839425E+02  0.11959179716E+03  0.47000000000E+01 0.  1.
         13    1    4    4    0    0  0.17452938194E+03  0.30111584816E+02  0.71524896904E+01  0.17725228012E+03  0.00000000000E+00 0. -1.
        -14    1    4    4    0    0  0.61210868521E+02  0.36954259360E+02  0.49630248893E+02  0.87037631604E+02  0.00000000000E+00 0.  1.
</event>
<event>
12    1  0.9873238E-001  0.2468937E+03  0.7818608E-02  0.1115387E+00
         21   -1    0    0  503  502  0.00000000000E+00  0.00000000000E+00  0.12540380502E+03  0.12540380502E+03  0.00000000000E+00 0.  1.
         21   -1    0    0  501  503 -0.00000000000E+00 -0.00000000000E+00 -0.64332173630E+03  0.64332173630E+03  0.00000000000E+00 0.  1.
          6    2    1    2  501    0 -0.87347415754E+02  0.15381624451E+03 -0.67921259753E+02  0.25544834167E+03  0.17132293956E+03 0.  0.
         24    2    3    3    0    0 -0.41483722599E+01  0.40909178600E+02  0.16525946926E+02  0.91669505771E+02  0.80246006009E+02 0.  0.
         -6    2    1    2    0  502  0.87347415754E+02 -0.15381624451E+03 -0.44999667153E+03  0.51327719965E+03  0.17224247786E+03 0.  0.
        -24    2    5    5    0    0  0.17445016503E+02 -0.15511744134E+03 -0.34467112249E+03  0.38677186452E+03  0.80178197174E+02 0.  0.
          5    1    3    3  501    0 -0.83199043494E+02  0.11290706591E+03 -0.84447206679E+02  0.16377883590E+03  0.47000000000E+01 0. -1.
        -11    1    4    4    0    0 -0.22029947416E+01  0.11274359150E+02  0.47434226823E+02  0.48805432427E+02  0.00000000000E+00 0.  1.
         12    1    4    4    0    0 -0.19453775183E+01  0.29634819449E+02 -0.30908279897E+02  0.42864073344E+02  0.00000000000E+00 0. -1.
         -5    1    5    5    0  502  0.69902399250E+02  0.13011968280E+01 -0.10532554905E+03  0.12650533513E+03  0.47000000000E+01 0.  1.
         13    1    6    6    0    0  0.49011990130E+02 -0.78028018921E+02 -0.18496615510E+03  0.20664710365E+03  0.00000000000E+00 0. -1.
        -14    1    6    6    0    0 -0.31566973627E+02 -0.77089422419E+02 -0.15970496738E+03  0.18012476087E+03  0.00000000000E+00 0.  1.
</event>
<event>
12    1  0.9873238E-001  0.4972491E+03  0.7818608E-02  0.1014660E+00
         21   -1    0    0  501  502  0.00000000000E+00  0.00000000000E+00  0.38649798647E+03  0.38649798647E+03  0.00000000000E+00 0.  1.
         21   -1    0    0  502  503 -0.00000000000E+00 -0.00000000000E+00 -0.68142747687E+03  0.68142747687E+03  0.00000000000E+00 0.  1.
         -6    2    1    2    0  503 -0.12585646168E+03 -0.44942269605E+03 -0.28407088125E+03  0.57055778301E+03  0.16437551368E+03 0.  0.
        -24    2    3    3    0    0 -0.97371670939E+02 -0.44593910985E+03 -0.25521022725E+03  0.52958772045E+03  0.83594028257E+02 0.  0.
          6    2    1    2  501    0  0.12585646168E+03  0.44942269605E+03 -0.10858609146E+02  0.49736768034E+03  0.17156949431E+03 0.  0.
         24    2    5    5    0    0  0.14367460773E+03  0.28326800847E+03 -0.32310186541E+02  0.32882354158E+03  0.78726207961E+02 0.  0.
          5    1    5    5  501    0 -0.17818146047E+02  0.16615468759E+03  0.21451577394E+02  0.16854413875E+03  0.47000000000E+01 0. -1.
        -11    1    6    6    0    0  0.16724582316E+02  0.18141463284E+02 -0.24492639834E+02  0.34766560799E+02  0.00000000000E+00 0.  1.
         12    1    6    6    0    0  0.12695002541E+03  0.26512654518E+03 -0.78175467064E+01  0.29405698079E+03  0.00000000000E+00 0. -1.
         -5    1    3    3    0  503 -0.28484790740E+02 -0.34835861998E+01 -0.28860654005E+02  0.40970062556E+02  0.47000000000E+01 0.  1.
         13    1    4    4    0    0 -0.10222740533E+03 -0.28106441632E+03 -0.16256089151E+03  0.34040225025E+03  0.00000000000E+00 0. -1.
        -14    1    4    4    0    0  0.48557343940E+01 -0.16487469353E+03 -0.92649335741E+02  0.18918547020E+03  0.00000000000E+00 0.  1.
</event>
<event>
12    1  0.9873238E-001  0.1803649E+03  0.7818608E-02  0.1168055E+00
         21   -1    0    0  501  502  0.00000000000E+00  0.00000000000E+00  0.54690535616E+02  0.54690535616E+02  0.00000000000E+00 0. -1.
         21   -1    0    0  502  503 -0.00000000000E+00 -0.00000000000E+00 -0.58666665570E+03  0.58666665570E+03  0.00000000000E+00 0. -1.
         -6    2    1    2    0  503  0.47479505800E+02 -0.21924351460E+02 -0.26588204001E+03  0.31989557270E+03  0.17001452167E+03 0.  0.
        -24    2    3    3    0    0  0.52260922716E+02 -0.68367525303E+02 -0.23751346250E+03  0.26506222032E+03  0.80249692894E+02 0.  0.
          6    2    1    2  501    0 -0.47479505800E+02  0.21924351460E+02 -0.26609408008E+03  0.32146161862E+03  0.17261672032E+03 0.  0.
         24    2    5    5    0    0  0.11125533172E+02  0.68378755394E+02 -0.16413269950E+03  0.19492792600E+03  0.79107026313E+02 0.  0.
          5    1    5    5  501    0 -0.58605038972E+02 -0.46454403934E+02 -0.10196138058E+03  0.12653369262E+03  0.47000000000E+01 0. -1.
        -13    1    6    6    0    0  0.91898339433E+01  0.42124238662E+02 -0.16296969722E+03  0.16857647149E+03  0.00000000000E+00 0.  1.
         14    1    6    6    0    0  0.19356992283E+01  0.26254516731E+02 -0.11630022849E+01  0.26351454507E+02  0.00000000000E+00 0. -1.
         -5    1    3    3    0  503 -0.47814169153E+01  0.46443173843E+02 -0.28368577505E+02  0.54833352387E+02  0.47000000000E+01 0.  1.
         13    1    4    4    0    0  0.67675557176E+01 -0.10757884009E+02 -0.15129260573E+03  0.15182550651E+03  0.00000000000E+00 0. -1.
        -14    1    4    4    0    0  0.45493366998E+02 -0.57609641294E+02 -0.86220856775E+02  0.11323671381E+03  0.00000000000E+00 0.  1.
</event>
<event>
12    1  0.9873238E-001  0.2166971E+03  0.7818608E-02  0.1136470E+00
         21   -1    0    0  501  502  0.00000000000E+00  0.00000000000E+00  0.34895995650E+03  0.34895995650E+03  0.00000000000E+00 0.  1.
         21   -1    0    0  502  503 -0.00000000000E+00 -0.00000000000E+00 -0.14032047655E+03  0.14032047655E+03  0.00000000000E+00 0.  1.
         -6    2    1    2    0  503  0.11962671609E+03 -0.52854404914E+02  0.53509997103E+02  0.22320605382E+03  0.17278160594E+03 0.  0.
        -24    2    3    3    0    0  0.50358066492E+02 -0.31838056065E+02  0.97029683559E+02  0.13861358462E+03  0.79052954876E+02 0.  0.
          6    2    1    2  501    0 -0.11962671609E+03  0.52854404914E+02  0.15512948285E+03  0.26607437923E+03  0.17212286167E+03 0.  0.
         24    2    5    5    0    0 -0.42417570364E+02  0.11970608646E+02  0.15579819569E+03  0.17857995564E+03  0.75333770857E+02 0.  0.
          5    1    5    5  501    0 -0.77209145728E+02  0.40883796268E+02 -0.66871283603E+00  0.87494423583E+02  0.47000000000E+01 0. -1.
        -13    1    6    6    0    0 -0.27192044985E+02 -0.30772205130E+02  0.61740719628E+02  0.74150201478E+02  0.00000000000E+00 0.  1.
         14    1    6    6    0    0 -0.15225525379E+02  0.42742813776E+02  0.94057476059E+02  0.10442975417E+03  0.00000000000E+00 0. -1.
         -5    1    3    3    0  503  0.69268649600E+02 -0.21016348849E+02 -0.43519686455E+02  0.84592469201E+02  0.47000000000E+01 0.  1.
         13    1    4    4    0    0 -0.12770319272E+02 -0.65181469251E+01  0.58937775090E+02  0.60656645359E+02  0.00000000000E+00 0. -1.
        -14    1    4    4    0    0  0.63128385763E+02 -0.25319909140E+02  0.38091908468E+02  0.77956939259E+02  0.00000000000E+00 0.  1.
</event>
<event>
12    1  0.9873238E-001  0.2567568E+03  0.7818608E-02  0.1109250E+00
         21   -1    0    0  503  502  0.00000000000E+00  0.00000000000E+00  0.14865504984E+03  0.14865504984E+03  0.00000000000E+00 0.  1.
         21   -1    0    0  501  503 -0.00000000000E+00 -0.00000000000E+00 -0.59152034168E+03  0.59152034168E+03  0.00000000000E+00 0.  1.
          6    2    1    2  501    0 -0.16415866810E+03  0.93344042835E+02 -0.35582799388E+02  0.25921069545E+03  0.17396226711E+03 0.  0.
         24    2    3    3    0    0 -0.48572525095E+02  0.61490579485E+02  0.37385374442E+02  0.11877834884E+03  0.81057068606E+02 0.  0.
         -6    2    1    2    0  502  0.16415866810E+03 -0.93344042835E+02 -0.40728249245E+03  0.48096469607E+03  0.17258861945E+03 0.  0.
        -24    2    5    5    0    0  0.12703624602E+03  0.65956568902E+01 -0.23478124841E+03  0.27812291784E+03  0.77771539311E+02 0.  0.
          5    1    3    3  501    0 -0.11558614301E+03  0.31853463351E+02 -0.72968173830E+02  0.14043234661E+03  0.47000000000E+01 0. -1.
        -11    1    4    4    0    0  0.20601304483E+02  0.95092739511E+00  0.41940210046E+01  0.21045375300E+02  0.00000000000E+00 0.  1.
         12    1    4    4    0    0 -0.69173829578E+02  0.60539652090E+02  0.33191353437E+02  0.97732973538E+02  0.00000000000E+00 0. -1.
         -5    1    5    5    0  502  0.37122422083E+02 -0.99939699726E+02 -0.17250124403E+03  0.20284177823E+03  0.47000000000E+01 0.  1.
         13    1    6    6    0    0  0.13775312471E+03  0.73513341277E+01 -0.21192924008E+03  0.25287144616E+03  0.00000000000E+00 0. -1.
        -14    1    6    6    0    0 -0.10716878693E+02 -0.75567723749E+00 -0.22852008336E+02  0.25251471680E+02  0.00000000000E+00 0.  1.
</event>
<event>
12    1  0.9873238E-001  0.6832585E+03  0.7818608E-02  0.9746385E-01
         21   -1    0    0  503  502  0.00000000000E+00  0.00000000000E+00  0.91421524194E+03  0.91421524194E+03  0.00000000000E+00 0.  1.
         21   -1    0    0  501  503 -0.00000000000E+00 -0.00000000000E+00 -0.54245990081E+03  0.54245990081E+03  0.00000000000E+00 0.  1.
          6    2    1    2  501    0 -0.46611540681E+03 -0.46872307083E+03  0.90674543723E+01  0.68312189086E+03  0.17207094306E+03 0.  0.
         24    2    3    3    0    0 -0.21262817864E+03 -0.17299905153E+03 -0.48942704061E+02  0.28929992738E+03  0.78483409193E+02 0.  0.
         -6    2    1    2    0  502  0.46611540681E+03  0.46872307083E+03  0.36268788676E+03  0.77355325189E+03  0.17285034198E+03 0.  0.
        -24    2    5    5    0    0  0.96394021906E+02  0.95931102790E+02  0.71867435982E+02  0.17333131088E+03  0.79901383177E+02 0.  0.
          5    1    3    3  501    0 -0.25348722816E+03 -0.29572401930E+03  0.58010158433E+02  0.39382196347E+03  0.47000000000E+01 0. -1.
        -11    1    4    4    0    0 -0.15919635441E+03 -0.16696400189E+03 -0.47350242415E+02  0.23550478263E+03  0.00000000000E+00 0.  1.
         12    1    4    4    0    0 -0.53431824232E+02 -0.60350496433E+01 -0.15924616460E+01  0.53795144753E+02  0.00000000000E+00 0. -1.
         -5    1    5    5    0  502  0.36972138490E+03  0.37279196804E+03  0.29082045078E+03  0.60022194102E+03  0.47000000000E+01 0.  1.
         13    1    6    6    0    0  0.54991140746E+02  0.92611051512E+02  0.75655878618E+02  0.13162311496E+03  0.00000000000E+00 0. -1.
        -14    1    6    6    0    0  0.41402881160E+02  0.33200512785E+01 -0.37884426363E+01  0.41708195914E+02  0.00000000000E+00 0.  1.
</event>
<event>
12    1  0.9873238E-001  0.2854950E+03  0.7818608E-02  0.1094156E+00
         21   -1    0    0  501  502  0.00000000000E+00  0.00000000000E+00  0.61566203276E+03  0.61566203276E+03  0.00000000000E+00 0.  1.
         21   -1    0    0  502  503 -0.00000000000E+00 -0.00000000000E+00 -0.21026836242E+03  0.21026836242E+03  0.00000000000E+00 0.  1.
         -6    2    1    2    0  503 -0.17320464064E+03  0.12626118255E+03 -0.53980949833E+02  0.29055352762E+03  0.18858864151E+03 0.  0.
        -24    2    3    3    0    0 -0.16917398741E+03  0.40088368287E+02 -0.62032557149E+01  0.19182765391E+03  0.80823592697E+02 0.  0.
          6    2    1    2  501    0  0.17320464064E+03 -0.12626118255E+03  0.45937462017E+03  0.53537686757E+03  0.17222547694E+03 0.  0.
         24    2    5    5    0    0  0.20019958843E+03 -0.10247507942E+03  0.40282678815E+03  0.46818867504E+03  0.79688123805E+02 0.  0.
          5    1    5    5  501    0 -0.26994947788E+02 -0.23786103130E+02  0.56547832019E+02  0.67188192521E+02  0.47000000000E+01 0. -1.
        -11    1    6    6    0    0  0.14616376364E+02 -0.16441152059E+02  0.77988623212E+01  0.23340355450E+02  0.00000000000E+00 0.  1.
         12    1    6    6    0    0  0.18558321207E+03 -0.86033927364E+02  0.39502792583E+03  0.44484831959E+03  0.00000000000E+00 0. -1.
         -5    1    3    3    0  503 -0.40306532329E+01  0.86172814267E+02 -0.47777694118E+02  0.98725873707E+02  0.47000000000E+01 0.  1.
         13    1    4    4    0    0 -0.10432785563E+03  0.28895292099E+02 -0.42942256102E+02  0.11646148172E+03  0.00000000000E+00 0. -1.
        -14    1    4    4    0    0 -0.64846131783E+02  0.11193076187E+02  0.36739000387E+02  0.75366172194E+02  0.00000000000E+00 0.  1.
</event>
<event>
12    1  0.9873238E-001  0.1832884E+03  0.7818608E-02  0.1165302E+00
         21   -1    0    0  501  502  0.00000000000E+00  0.00000000000E+00  0.11787722593E+04  0.11787722593E+04  0.00000000000E+00 0.  1.
         21   -1    0    0  502  503 -0.00000000000E+00 -0.00000000000E+00 -0.33154191879E+02  0.33154191879E+02  0.00000000000E+00 0.  1.
         -6    2    1    2    0  503  0.56122527142E+02 -0.34866662519E+01  0.81345391800E+03  0.83384766399E+03  0.17444986422E+03 0.  0.
        -24    2    3    3    0    0  0.85221315752E+02  0.25537600590E+02  0.73874184206E+03  0.74844782876E+03  0.80745287593E+02 0.  0.
          6    2    1    2  501    0 -0.56122527142E+02  0.34866662519E+01  0.33216414940E+03  0.37807878717E+03  0.17160609625E+03 0.  0.
         24    2    5    5    0    0  0.20864588754E+02 -0.19860093360E+02  0.13971190334E+03  0.16943544506E+03  0.91428659258E+02 0.  0.
          5    1    5    5  501    0 -0.76987115896E+02  0.23346759612E+02  0.19245224605E+03  0.20864334212E+03  0.47000000000E+01 0. -1.
        -11    1    6    6    0    0  0.33355611776E+02 -0.49778747358E+02  0.11094107019E+03  0.12608902244E+03  0.00000000000E+00 0.  1.
         12    1    6    6    0    0 -0.12491023022E+02  0.29918653998E+02  0.28770833154E+02  0.43346422616E+02  0.00000000000E+00 0. -1.
         -5    1    3    3    0  503 -0.29098788610E+02 -0.29024266842E+02  0.74712075948E+02  0.85399835226E+02  0.47000000000E+01 0.  1.
         11    1    4    4    0    0  0.96038479339E+02  0.33062523478E+02  0.55380829531E+03  0.56304542261E+03  0.00000000000E+00 0. -1.
        -12    1    4    4    0    0 -0.10817163587E+02 -0.75249228881E+01  0.18493354675E+03  0.18540240615E+03  0.00000000000E+00 0.  1.
</event>
<event>
12    1  0.9873238E-001  0.4304155E+03  0.7818608E-02  0.1033767E+00
         21   -1    0    0  501  502  0.00000000000E+00  0.00000000000E+00  0.86159507879E+03  0.86159507879E+03  0.00000000000E+00 0.  1.
         21   -1    0    0  502  503 -0.00000000000E+00 -0.00000000000E+00 -0.26296142330E+03  0.26296142330E+03  0.00000000000E+00 0. -1.
         -6    2    1    2    0  503 -0.33886474275E+03  0.20139492683E+03  0.58756932605E+02  0.43440754451E+03  0.17282449817E+03 0.  0.
        -24    2    3    3    0    0 -0.12106568377E+03  0.14285315945E+03  0.47549429637E+02  0.20855080509E+03  0.78540213216E+02 0.  0.
          6    2    1    2  501    0  0.33886474275E+03 -0.20139492683E+03  0.53987672288E+03  0.69014895758E+03  0.17160850011E+03 0.  0.
         24    2    5    5    0    0  0.13873060586E+03 -0.15824182064E+03  0.28778413741E+03  0.36535883308E+03  0.79879361323E+02 0.  0.
          5    1    5    5  501    0  0.20013413689E+03 -0.43153106189E+02  0.25209258547E+03  0.32479012450E+03  0.47000000000E+01 0. -1.
        -11    1    6    6    0    0 -0.98370325160E+01 -0.12427066757E+02  0.30809127527E+02  0.34646811338E+02  0.00000000000E+00 0.  1.
         12    1    6    6    0    0  0.14856763838E+03 -0.14581475388E+03  0.25697500989E+03  0.33071202175E+03  0.00000000000E+00 0. -1.
         -5    1    3    3    0  503 -0.21779905898E+03  0.58541767373E+02  0.11207502968E+02  0.22585673942E+03  0.47000000000E+01 0.  1.
         11    1    4    4    0    0 -0.67081380223E+02  0.37445996980E+02 -0.89350516522E+01  0.77343063105E+02  0.00000000000E+00 0. -1.
        -12    1    4    4    0    0 -0.53984303548E+02  0.10540716247E+03  0.56484481289E+02  0.13120774198E+03  0.00000000000E+00 0.  1.
</event>
<event>
12    1  0.9873238E-001  0.2189829E+03  0.7818608E-02  0.1134992E+00
         21   -1    0    0  503  502  0.00000000000E+00  0.00000000000E+00  0.68746144543E+03  0.68746144543E+03  0.00000000000E+00 0. -1.
         21   -1    0    0  501  503 -0.00000000000E+00 -0.00000000000E+00 -0.97737216318E+02  0.97737216318E+02  0.00000000000E+00 0. -1.
          6    2    1    2  501    0  0.11640262807E+03  0.57621414010E+02  0.50801565251E+03  0.55320287896E+03  0.17630576541E+03 0.  0.
         24    2    3    3    0    0  0.12353825721E+03  0.94879158433E+02  0.35536252011E+03  0.39583666418E+03  0.78360629841E+02 0.  0.
         -6    2    1    2    0  502 -0.11640262807E+03 -0.57621414010E+02  0.81708576601E+02  0.23199578279E+03  0.17399986370E+03 0.  0.
        -24    2    5    5    0    0  0.43303362731E+01 -0.52820744452E+02  0.40748670978E+02  0.10432707489E+03  0.80093080303E+02 0.  0.
          5    1    3    3  501    0 -0.71356291345E+01 -0.37257744423E+02  0.15265313240E+03  0.15736621478E+03  0.47000000000E+01 0. -1.
        -11    1    4    4    0    0  0.12176634345E+03  0.88017872127E+02  0.35801981382E+03  0.38826843202E+03  0.00000000000E+00 0.  1.
         12    1    4    4    0    0  0.17719137587E+01  0.68612863059E+01 -0.26572937140E+01  0.75682321596E+01  0.00000000000E+00 0. -1.
         -5    1    5    5    0  502 -0.12073296434E+03 -0.48006695573E+01  0.40959905623E+02  0.12766870790E+03  0.47000000000E+01 0.  1.
         13    1    6    6    0    0  0.25470610326E+02 -0.24056451374E+02  0.55556016253E+02  0.65680558653E+02  0.00000000000E+00 0. -1.
        -14    1    6    6    0    0 -0.21140274053E+02 -0.28764293078E+02 -0.14807345275E+02  0.38646516239E+02  0.00000000000E+00 0.  1.
</event>
<event>
12    1  0.9873238E-001  0.2463001E+03  0.7818608E-02  0.1116177E+00
         21   -1    0    0  503  502  0.00000000000E+00  0.00000000000E+00  0.10346447851E+03  0.10346447851E+03  0.00000000000E+00 0. -1.
         21   -1    0    0  501  503 -0.00000000000E+00 -0.00000000000E+00 -0.58823722191E+03  0.58823722191E+03  0.00000000000E+00 0. -1.
          6    2    1    2  501    0  0.10652891611E+03 -0.13540988692E+03 -0.19715004408E+03  0.31303223756E+03  0.17157154316E+03 0.  0.
         24    2    3    3    0    0  0.76765022797E+02 -0.16478540314E+03 -0.14425366918E+03  0.24543840074E+03  0.79898621213E+02 0.  0.
         -6    2    1    2    0  502 -0.10652891611E+03  0.13540988692E+03 -0.28762269932E+03  0.37866946287E+03  0.17600993581E+03 0.  0.
        -24    2    5    5    0    0 -0.12576834014E+03  0.10495679508E+03 -0.15165563945E+03  0.23793326423E+03  0.82335903684E+02 0.  0.
          5    1    3    3  501    0  0.29763893318E+02  0.29375516217E+02 -0.52896374900E+02  0.67593836820E+02  0.47000000000E+01 0. -1.
        -13    1    4    4    0    0  0.93248922787E+02 -0.14826050444E+03 -0.12494065213E+03  0.21514345291E+03  0.00000000000E+00 0.  1.
         14    1    4    4    0    0 -0.16483899990E+02 -0.16524898697E+02 -0.19313017055E+02  0.30294947823E+02  0.00000000000E+00 0. -1.
         -5    1    5    5    0  502  0.19239424023E+02  0.30453091837E+02 -0.13596705986E+03  0.14073619864E+03  0.47000000000E+01 0.  1.
         11    1    6    6    0    0 -0.43988983093E+02  0.88051534999E+02 -0.96583984739E+02  0.13790057852E+03  0.00000000000E+00 0. -1.
        -12    1    6    6    0    0 -0.81779357045E+02  0.16905260085E+02 -0.55071654711E+02  0.10003268571E+03  0.00000000000E+00 0.  1.
</event>
<event>
12    1  0.9873238E-001  0.2560455E+03  0.7818608E-02  0.1109654E+00
         21   -1    0    0  503  502  0.00000000000E+00  0.00000000000E+00  0.21960830095E+04  0.21960830095E+04  0.00000000000E+00 0.  1.
         21   -1    0    0  501  503 -0.00000000000E+00 -0.00000000000E+00 -0.42013822054E+02  0.42013822054E+02  0.00000000000E+00 0.  1.
          6    2    1    2  501    0  0.14032627238E+03 -0.12715933343E+03  0.16822615133E+04  0.17016354239E+04  0.17233211568E+03 0.  0.
         24    2    3    3    0    0  0.14332206223E+02 -0.34732038826E+02  0.87584813638E+03  0.88020865669E+03  0.79029074693E+02 0.  0.
         -6    2    1    2    0  502 -0.14032627238E+03  0.12715933343E+03  0.47180767415E+03  0.53646140762E+03  0.17125245012E+03 0.  0.
        -24    2    5    5    0    0 -0.16526091810E+03  0.11612316392E+03  0.45493748390E+03  0.50405420296E+03  0.79415143460E+02 0.  0.
          5    1    3    3  501    0  0.12599406616E+03 -0.92427294601E+02  0.80641337688E+03  0.82142676722E+03  0.47000000000E+01 0. -1.
        -11    1    4    4    0    0 -0.16799460445E+02 -0.44071379734E+02  0.32523474794E+03  0.32863680508E+03  0.00000000000E+00 0.  1.
         12    1    4    4    0    0  0.31131666668E+02  0.93393409083E+01  0.55061338844E+03  0.55157185161E+03  0.00000000000E+00 0. -1.
         -5    1    5    5    0  502  0.24934645721E+02  0.11036169504E+02  0.16870190256E+02  0.32407204660E+02  0.47000000000E+01 0.  1.
         11    1    6    6    0    0 -0.30686615955E+02  0.21428018563E+02  0.28726597433E+02  0.47180989587E+02  0.00000000000E+00 0. -1.
        -12    1    6    6    0    0 -0.13457430215E+03  0.94695145360E+02  0.42621088646E+03  0.45687321337E+03  0.00000000000E+00 0.  1.
</event>
<event>
12    1  0.9873238E-001  0.1878373E+03  0.7818608E-02  0.1160661E+00
         21   -1    0    0  501  502  0.00000000000E+00  0.00000000000E+00  0.35368067804E+03  0.35368067804E+03  0.00000000000E+00 0. -1.
         21   -1    0    0  502  503 -0.00000000000E+00 -0.00000000000E+00 -0.10038041195E+03  0.10038041195E+03  0.00000000000E+00 0. -1.
         -6    2    1    2    0  503 -0.63874050067E+02 -0.42183154649E+02  0.10254226830E+03  0.21400412700E+03  0.17153290290E+03 0.  0.
        -24    2    3    3    0    0  0.10133972780E+02 -0.71876147399E+02  0.49873814744E+02  0.11832279515E+03  0.79019038762E+02 0.  0.
          6    2    1    2  501    0  0.63874050067E+02  0.42183154649E+02  0.15075799778E+03  0.24005696299E+03  0.17041143969E+03 0.  0.
         24    2    5    5    0    0 -0.14686209274E+02 -0.15043152420E+02  0.41391973370E+02  0.93668500792E+02  0.81354234086E+02 0.  0.
          5    1    5    5  501    0  0.78560259341E+02  0.57226307069E+02  0.10936602441E+03  0.14638846220E+03  0.47000000000E+01 0. -1.
        -13    1    6    6    0    0  0.26673556400E+02 -0.68905116244E+01  0.43466825997E+02  0.51461856979E+02  0.00000000000E+00 0.  1.
         14    1    6    6    0    0 -0.41359765674E+02 -0.81526407952E+01 -0.20748526276E+01  0.42206643813E+02  0.00000000000E+00 0. -1.
         -5    1    3    3    0  503 -0.74008022846E+02  0.29692992750E+02  0.52668453560E+02  0.95681331849E+02  0.47000000000E+01 0.  1.
         13    1    4    4    0    0 -0.34387826983E+02 -0.35392596545E+02  0.18009913542E+02  0.52531090990E+02  0.00000000000E+00 0. -1.
        -14    1    4    4    0    0  0.44521799763E+02 -0.36483550854E+02  0.31863901201E+02  0.65791704164E+02  0.00000000000E+00 0.  1.
</event>
<event>
12    1  0.9873238E-001  0.2525223E+03  0.7818608E-02  0.1111819E+00
         21   -1    0    0  503  502  0.00000000000E+00  0.00000000000E+00  0.50993393743E+03  0.50993393743E+03  0.00000000000E+00 0.  1.
         21   -1    0    0  501  503 -0.00000000000E+00 -0.00000000000E+00 -0.13798543662E+03  0.13798543662E+03  0.00000000000E+00 0.  1.
          6    2    1    2  501    0  0.21928069585E+02  0.18352472408E+03  0.85389133821E+02  0.26597201564E+03  0.17113633263E+03 0.  0.
         24    2    3    3    0    0  0.66884968471E+02  0.13398012223E+03  0.23968128344E+02  0.17503016475E+03  0.87388873639E+02 0.  0.
         -6    2    1    2    0  502 -0.21928069585E+02 -0.18352472408E+03  0.28655936699E+03  0.38194735841E+03  0.17206205044E+03 0.  0.
        -24    2    5    5    0    0 -0.16581954414E+02 -0.20836046537E+03  0.23070522716E+03  0.32040737198E+03  0.75808557836E+02 0.  0.
          5    1    3    3  501    0 -0.44956898886E+02  0.49544601845E+02  0.61421005477E+02  0.90941850889E+02  0.47000000000E+01 0. -1.
        -13    1    4    4    0    0 -0.81221936196E+00  0.30247787018E+02 -0.27506399119E+02  0.40892423654E+02  0.00000000000E+00 0.  1.
         14    1    4    4    0    0  0.67697187833E+02  0.10373233522E+03  0.51474527462E+02  0.13413774110E+03  0.00000000000E+00 0. -1.
         -5    1    5    5    0  502 -0.53461151712E+01  0.24835741291E+02  0.55854139833E+02  0.61539986427E+02  0.47000000000E+01 0.  1.
         11    1    6    6    0    0 -0.21231833206E+02 -0.82169734124E+02  0.45631151093E+02  0.96357967482E+02  0.00000000000E+00 0. -1.
        -12    1    6    6    0    0  0.46498787928E+01 -0.12619073125E+03  0.18507407607E+03  0.22404940450E+03  0.00000000000E+00 0.  1.
</event>
<event>
12    1  0.9873238E-001  0.2514195E+03  0.7818608E-02  0.1112502E+00
         21   -1    0    0  503  502  0.00000000000E+00  0.00000000000E+00  0.56904594847E+02  0.56904594847E+02  0.00000000000E+00 0.  1.
         21   -1    0    0  501  503 -0.00000000000E+00 -0.00000000000E+00 -0.11086462775E+04  0.11086462775E+04  0.00000000000E+00 0.  1.
          6    2    1    2  501    0  0.69536855565E+02  0.16866123490E+03 -0.51598097877E+03  0.57397571607E+03  0.17300221314E+03 0.  0.
         24    2    3    3    0    0 -0.28312076917E+02  0.71236904384E+02 -0.17963932019E+03  0.21036367686E+03  0.78142951943E+02 0.  0.
         -6    2    1    2    0  502 -0.69536855565E+02 -0.16866123490E+03 -0.53576070388E+03  0.59157515627E+03  0.17216168928E+03 0.  0.
        -24    2    5    5    0    0 -0.13033212025E+02 -0.16795931091E+03 -0.34207967872E+03  0.38976439358E+03  0.80731537669E+02 0.  0.
          5    1    3    3  501    0  0.97848932482E+02  0.97424330514E+02 -0.33634165858E+03  0.36361203921E+03  0.47000000000E+01 0. -1.
        -11    1    4    4    0    0 -0.38127859769E+01  0.10939480480E+02  0.64231387453E+01  0.13246368612E+02  0.00000000000E+00 0.  1.
         12    1    4    4    0    0 -0.24499290940E+02  0.60297423904E+02 -0.18606245893E+03  0.19711730824E+03  0.00000000000E+00 0. -1.
         -5    1    5    5    0  502 -0.56503643540E+02 -0.70192399122E+00 -0.19368102516E+03  0.20181076269E+03  0.47000000000E+01 0.  1.
         13    1    6    6    0    0  0.76591480864E+01 -0.91187463831E+02 -0.25934777165E+03  0.27501833170E+03  0.00000000000E+00 0. -1.
        -14    1    6    6    0    0 -0.20692360111E+02 -0.76771847075E+02 -0.82731907066E+02  0.11474606188E+03  0.00000000000E+00 0.  1.
</event>
<event>
12    1  0.9873238E-001  0.1871190E+03  0.7818608E-02  0.1161877E+00
         21   -1    0    0  501  502  0.00000000000E+00  0.00000000000E+00  0.48393001893E+02  0.48393001893E+02  0.00000000000E+00 0.  1.
         21   -1    0    0  502  503 -0.00000000000E+00 -0.00000000000E+00 -0.71059971876E+03  0.71059971876E+03  0.00000000000E+00 0.  1.
         -6    2    1    2    0  503  0.31469925102E+02  0.61939793797E+02 -0.32797080433E+03  0.37759549263E+03  0.17374295186E+03 0.  0.
        -24    2    3    3    0    0 -0.10189892077E+02 -0.88140665091E+01 -0.25467824486E+03  0.26743407293E+03  0.80488839565E+02 0.  0.
          6    2    1    2  501    0 -0.31469925102E+02 -0.61939793797E+02 -0.33423591253E+03  0.38139722802E+03  0.17006853345E+03 0.  0.
         24    2    5    5    0    0 -0.28395431664E+02 -0.10682037846E+03 -0.22492568714E+03  0.26309872944E+03  0.80077980138E+02 0.  0.
          5    1    5    5  501    0 -0.30744934380E+01  0.44880584666E+02 -0.10931022539E+03  0.11829849858E+03  0.47000000000E+01 0. -1.
        -13    1    6    6    0    0 -0.27122894153E+02 -0.79291604355E+01 -0.99141872753E+02  0.10309041617E+03  0.00000000000E+00 0.  1.
         14    1    6    6    0    0 -0.12725375109E+01 -0.98891218028E+02 -0.12578381439E+03  0.16000831327E+03  0.00000000000E+00 0. -1.
         -5    1    3    3    0  503  0.41659817179E+02  0.70753860307E+02 -0.73292559471E+02  0.11016141970E+03  0.47000000000E+01 0.  1.
         11    1    4    4    0    0  0.33963506002E+02 -0.59589845600E+00 -0.14481111230E+03  0.14874183366E+03  0.00000000000E+00 0. -1.
        -12    1    4    4    0    0 -0.44153398079E+02 -0.82181680531E+01 -0.10986713256E+03  0.11869223928E+03  0.00000000000E+00 0.  1.
</event>
<event>
12    1  0.9873238E-001  0.2329376E+03  0.7818608E-02  0.1124715E+00
         21   -1    0    0  503  502  0.00000000000E+00  0.00000000000E+00  0.38198600609E+02  0.38198600609E+02  0.00000000000E+00 0.  1.
         21   -1    0    0  501  503 -0.00000000000E+00 -0.00000000000E+00 -0.18479660851E+04  0.18479660851E+04  0.00000000000E+00 0.  1.
          6    2    1    2  501    0 -0.59445485422E+02  0.14695360667E+03 -0.44785747836E+03  0.50447774181E+03  0.16968306578E+03 0.  0.
         24    2    3    3    0    0 -0.25526392452E+02  0.10168572806E+03 -0.42330585641E+03  0.44263473216E+03  0.75802863030E+02 0.  0.
         -6    2    1    2    0  502  0.59445485422E+02 -0.14695360667E+03 -0.13619100062E+04  0.13816869439E+04  0.17067752599E+03 0.  0.
        -24    2    5    5    0    0  0.74791981484E+02 -0.29049497021E+02 -0.70672599499E+03  0.71578524509E+03  0.80306732748E+02 0.  0.
          5    1    3    3  501    0 -0.33919092970E+02  0.45267878618E+02 -0.24551621948E+02  0.61843009652E+02  0.47000000000E+01 0. -1.
        -13    1    4    4    0    0 -0.22383171385E+02 -0.46794804522E+01 -0.68589561803E+02  0.72300981230E+02  0.00000000000E+00 0.  1.
         14    1    4    4    0    0 -0.31432210672E+01  0.10636520851E+03 -0.35471629460E+03  0.37033375093E+03  0.00000000000E+00 0. -1.
         -5    1    5    5    0  502 -0.15346496062E+02 -0.11790410965E+03 -0.65518401118E+03  0.66590169884E+03  0.47000000000E+01 0.  1.
         13    1    6    6    0    0  0.23367095172E+02  0.33617984844E+01 -0.49348928991E+03  0.49405364292E+03  0.00000000000E+00 0. -1.
        -14    1    6    6    0    0  0.51424886312E+02 -0.32411295506E+02 -0.21323670508E+03  0.22173160217E+03  0.00000000000E+00 0.  1.
</event>
<event>
12    1  0.9873238E-001  0.3195629E+03  0.7818608E-02  0.1075937E+00
         21   -1    0    0  501  502  0.00000000000E+00  0.00000000000E+00  0.25200181569E+03  0.25200181569E+03  0.00000000000E+00 0.  1.
         21   -1    0    0  502  503 -0.00000000000E+00 -0.00000000000E+00 -0.40492572613E+03  0.40492572613E+03  0.00000000000E+00 0.  1.
         -6    2    1    2    0  503 -0.24756073420E+03  0.10421981682E+03 -0.63290074339E+02  0.32503197188E+03  0.17173253011E+03 0.  0.
        -24    2    3    3    0    0 -0.22738007931E+03  0.43236377922E+02 -0.82770306730E+02  0.25774298239E+03  0.77520555038E+02 0.  0.
          6    2    1    2  501    0  0.24756073420E+03 -0.10421981682E+03 -0.89633836102E+02  0.33189556993E+03  0.17312526514E+03 0.  0.
         24    2    5    5    0    0  0.56925855613E+02 -0.23452679675E+02  0.12339456387E+02  0.10105876663E+03  0.79183526749E+02 0.  0.
          5    1    5    5  501    0  0.19063487859E+03 -0.80767137149E+02 -0.10197329249E+03  0.23083680330E+03  0.47000000000E+01 0. -1.
        -13    1    6    6    0    0 -0.10997984838E+02 -0.29911454196E+02  0.94233027237E+00  0.31883204810E+02  0.00000000000E+00 0.  1.
         14    1    6    6    0    0  0.67923840451E+02  0.64587745206E+01  0.11397126114E+02  0.69175561823E+02  0.00000000000E+00 0. -1.
         -5    1    3    3    0  503 -0.20180654890E+02  0.60983438903E+02  0.19480232391E+02  0.67288989487E+02  0.47000000000E+01 0.  1.
         11    1    4    4    0    0 -0.57243083774E+02  0.46462675408E+02 -0.29807673524E+02  0.79523884758E+02  0.00000000000E+00 0. -1.
        -12    1    4    4    0    0 -0.17013699553E+03 -0.32262974865E+01 -0.52962633205E+02  0.17821909763E+03  0.00000000000E+00 0.  1.
</event>
<event>
12    1  0.9873238E-001  0.1811689E+03  0.7818608E-02  0.1167055E+00
         21   -1    0    0  501  502  0.00000000000E+00  0.00000000000E+00  0.12867819777E+03  0.12867819777E+03  0.00000000000E+00 0. -1.
         21   -1    0    0  502  503 -0.00000000000E+00 -0.00000000000E+00 -0.26899781561E+03  0.26899781561E+03  0.00000000000E+00 0. -1.
         -6    2    1    2    0  503 -0.55266994629E+02  0.10525306180E+02 -0.21176814145E+02  0.18084158374E+03  0.17055790274E+03 0.  0.
        -24    2    3    3    0    0 -0.95731695332E+02  0.13516109032E+02  0.13529405423E+02  0.12724169026E+03  0.81609804773E+02 0.  0.
          6    2    1    2  501    0  0.55266994629E+02 -0.10525306180E+02 -0.11914280370E+03  0.21683442964E+03  0.17221190272E+03 0.  0.
         24    2    5    5    0    0  0.97272235967E+02  0.16033726609E+02 -0.58492498066E+02  0.13828271358E+03  0.77341892048E+02 0.  0.
          5    1    5    5  501    0 -0.42005241338E+02 -0.26559032790E+02 -0.60650305629E+02  0.78551716057E+02  0.47000000000E+01 0. -1.
        -11    1    6    6    0    0  0.86474231416E+02 -0.19077484063E+02 -0.40370135761E+02  0.97321585265E+02  0.00000000000E+00 0.  1.
         12    1    6    6    0    0  0.10798004552E+02  0.35111210673E+02 -0.18122362305E+02  0.40961128314E+02  0.00000000000E+00 0. -1.
         -5    1    3    3    0  503  0.40464700703E+02 -0.29908028519E+01 -0.34706219568E+02  0.53599893483E+02  0.47000000000E+01 0.  1.
         13    1    4    4    0    0  0.33007245585E+01  0.25925996013E+02  0.77827065769E+01  0.27269443954E+02  0.00000000000E+00 0. -1.
        -14    1    4    4    0    0 -0.99032419891E+02 -0.12409886981E+02  0.57466988460E+01  0.99972246308E+02  0.00000000000E+00 0.  1.
</event>
<event>
12    1  0.9873238E-001  0.1785642E+03  0.7818608E-02  0.1169369E+00
         21   -1    0    0  503  502  0.00000000000E+00  0.00000000000E+00  0.27106055228E+02  0.27106055228E+02  0.00000000000E+00 0. -1.
         21   -1    0    0  501  503 -0.00000000000E+00 -0.00000000000E+00 -0.12437956337E+04  0.12437956337E+04  0.00000000000E+00 0. -1.
          6    2    1    2  501    0  0.77480141335E+00  0.48690021064E+02 -0.45430976359E+03  0.48788945357E+03  0.17107728995E+03 0.  0.
         24    2    3    3    0    0  0.47245928146E+02  0.43061642342E+02 -0.41176049842E+03  0.42445622699E+03  0.80807783076E+02 0.  0.
         -6    2    1    2    0  502 -0.77480141335E+00 -0.48690021064E+02 -0.76237981487E+03  0.78301223535E+03  0.17179598400E+03 0.  0.
        -24    2    5    5    0    0 -0.22825591970E+02  0.27890200259E+02 -0.53216393015E+03  0.53934809922E+03  0.79994078861E+02 0.  0.
          5    1    3    3  501    0 -0.46471126733E+02  0.56283787224E+01 -0.42549265169E+02  0.63433226572E+02  0.47000000000E+01 0. -1.
        -13    1    4    4    0    0  0.39399217897E+02  0.48841989110E+02 -0.40972166567E+03  0.41449931435E+03  0.00000000000E+00 0.  1.
         14    1    4    4    0    0  0.78467102497E+01 -0.57803467685E+01 -0.20388327488E+01  0.99569126482E+01  0.00000000000E+00 0. -1.
         -5    1    5    5    0  502  0.22050790557E+02 -0.76580221323E+02 -0.23021588471E+03  0.24366413613E+03  0.47000000000E+01 0.  1.
         11    1    6    6    0    0 -0.36027935554E+02  0.50213965145E+02 -0.37399357082E+03  0.37906548966E+03  0.00000000000E+00 0. -1.
        -12    1    6    6    0    0  0.13202343584E+02 -0.22323764887E+02 -0.15817035934E+03  0.16028260956E+03  0.00000000000E+00 0.  1.
</event>
<event>
12    1  0.9873238E-001  0.1905806E+03  0.7818608E-02  0.1159004E+00
         21   -1    0    0  503  502  0.00000000000E+00  0.00000000000E+00  0.93028527126E+03  0.93028527126E+03  0.00000000000E+00 0.  1.
         21   -1    0    0  501  503 -0.00000000000E+00 -0.00000000000E+00 -0.39144376746E+02  0.39144376746E+02  0.00000000000E+00 0.  1.
          6    2    1    2  501    0 -0.17359279902E+02 -0.70809216503E+02  0.53050060446E+03  0.56369481793E+03  0.17608426019E+03 0.  0.
         24    2    3    3    0    0  0.47893735261E+02 -0.81669530667E+02  0.31889841214E+03  0.34194387609E+03  0.79156143250E+02 0.  0.
         -6    2    1    2    0  502  0.17359279902E+02  0.70809216503E+02  0.36064029005E+03  0.40573483008E+03  0.17100889973E+03 0.  0.
        -24    2    5    5    0    0  0.27650100505E+02  0.97278573536E+02  0.17125047081E+03  0.21416990249E+03  0.79463038266E+02 0.  0.
          5    1    3    3  501    0 -0.65253015162E+02  0.10860314164E+02  0.21160219232E+03  0.22175094184E+03  0.47000000000E+01 0. -1.
        -11    1    4    4    0    0  0.26122068895E+02  0.88368390734E+01  0.46306396277E+02  0.53895589285E+02  0.00000000000E+00 0.  1.
         12    1    4    4    0    0  0.21771666365E+02 -0.90506369740E+02  0.27259201586E+03  0.28804828681E+03  0.00000000000E+00 0. -1.
         -5    1    5    5    0  502 -0.10290820603E+02 -0.26469357033E+02  0.18938981924E+03  0.19156492759E+03  0.47000000000E+01 0.  1.
         13    1    6    6    0    0  0.24172446568E+01  0.86093267540E+02  0.16461166403E+03  0.18578184443E+03  0.00000000000E+00 0. -1.
        -14    1    6    6    0    0  0.25232855848E+02  0.11185305996E+02  0.66388067855E+01  0.28388058053E+02  0.00000000000E+00 0.  1.
</event>
<event>
12    1  0.9873238E-001  0.1865180E+03  0.7818608E-02  0.1162315E+00
         21   -1    0    0  503  502  0.00000000000E+00  0.00000000000E+00  0.16211773855E+03  0.16211773855E+03  0.00000000000E+00 0. -1.
         21   -1    0    0  501  503 -0.00000000000E+00 -0.00000000000E+00 -0.30660392960E+03  0.30660392960E+03  0.00000000000E+00 0. -1.
          6    2    1    2  501    0  0.55983901797E+02 -0.42569567514E+02  0.58047506690E+02  0.19534194812E+03  0.17275010369E+03 0.  0.
         24    2    3    3    0    0  0.69344957869E+01 -0.92142441321E+01 -0.32083589842E+02  0.87341362986E+02  0.80412483013E+02 0.  0.
         -6    2    1    2    0  502 -0.55983901797E+02  0.42569567514E+02 -0.20253369773E+03  0.27337972003E+03  0.16961782709E+03 0.  0.
        -24    2    5    5    0    0 -0.22676505045E+02  0.35016232691E+01 -0.20449580065E+03  0.22178876352E+03  0.82735952842E+02 0.  0.
          5    1    3    3  501    0  0.49049406010E+02 -0.33355323382E+02  0.90131096532E+02  0.10800058514E+03  0.47000000000E+01 0. -1.
        -13    1    4    4    0    0  0.36484832688E+02 -0.16732659580E+02 -0.39119081546E+02  0.56048438461E+02  0.00000000000E+00 0.  1.
         14    1    4    4    0    0 -0.29550336901E+02  0.75184154475E+01  0.70354917045E+01  0.31292924525E+02  0.00000000000E+00 0. -1.
         -5    1    5    5    0  502 -0.33307396752E+02  0.39067944245E+02  0.19621029174E+01  0.51590956511E+02  0.47000000000E+01 0.  1.
         11    1    6    6    0    0 -0.35968351732E+02 -0.31424745717E+02 -0.10023091159E+03  0.11102915206E+03  0.00000000000E+00 0. -1.
        -12    1    6    6    0    0  0.13291846687E+02  0.34926368986E+02 -0.10426488906E+03  0.11075961146E+03  0.00000000000E+00 0.  1.
</event>
<event>
12    1  0.9873238E-001  0.1760278E+03  0.7818608E-02  0.1172034E+00
         21   -1    0    0  503  502  0.00000000000E+00  0.00000000000E+00  0.50259810066E+03  0.50259810066E+03  0.00000000000E+00 0.  1.
         21   -1    0    0  501  503 -0.00000000000E+00 -0.00000000000E+00 -0.12864613472E+03  0.12864613472E+03  0.00000000000E+00 0.  1.
          6    2    1    2  501    0  0.15201404476E+02 -0.27873941722E+02 -0.41237755943E+02  0.18079359515E+03  0.17314078725E+03 0.  0.
         24    2    3    3    0    0 -0.98707610081E+01 -0.17510566060E+02  0.42242726302E+02  0.92889704721E+02  0.80249594834E+02 0.  0.
         -6    2    1    2    0  502 -0.15201404476E+02  0.27873941722E+02  0.41518972188E+03  0.45045064023E+03  0.17179998488E+03 0.  0.
        -24    2    5    5    0    0 -0.64052493993E+02  0.25892491205E+02  0.36719783136E+03  0.38177992851E+03  0.78412520469E+02 0.  0.
          5    1    3    3  501    0  0.25072165484E+02 -0.10363375661E+02 -0.83480482245E+02  0.87903890432E+02  0.47000000000E+01 0. -1.
        -13    1    4    4    0    0 -0.43244190045E+02 -0.10367535715E+02  0.92520062430E+01  0.45421860255E+02  0.00000000000E+00 0.  1.
         14    1    4    4    0    0  0.33373429037E+02 -0.71430303457E+01  0.32990720059E+02  0.47467844466E+02  0.00000000000E+00 0. -1.
         -5    1    5    5    0  502  0.48851089517E+02  0.19814505166E+01  0.47991890516E+02  0.68670711722E+02  0.47000000000E+01 0.  1.
         13    1    6    6    0    0 -0.67704965416E+02 -0.67902247376E+01  0.19662984460E+03  0.20807057764E+03  0.00000000000E+00 0. -1.
        -14    1    6    6    0    0  0.36524714229E+01  0.32682715943E+02  0.17056798677E+03  0.17370935087E+03  0.00000000000E+00 0.  1.
</event>
<event>
12    1  0.9873238E-001  0.2054160E+03  0.7818608E-02  0.1145391E+00
         21   -1    0    0  503  502  0.00000000000E+00  0.00000000000E+00  0.47940249179E+03  0.47940249179E+03  0.00000000000E+00 0. -1.
         21   -1    0    0  501  503 -0.00000000000E+00 -0.00000000000E+00 -0.87859917114E+02  0.87859917114E+02  0.00000000000E+00 0. -1.
          6    2    1    2  501    0 -0.10475650741E+03  0.37242199487E+02  0.20752827827E+03  0.29199954888E+03  0.17272765555E+03 0.  0.
         24    2    3    3    0    0 -0.13098104257E+03  0.51302304464E+02  0.14566288062E+03  0.22318944625E+03  0.93850381837E+02 0.  0.
         -6    2    1    2    0  502  0.10475650741E+03 -0.37242199487E+02  0.18401429641E+03  0.27526286003E+03  0.17189378571E+03 0.  0.
        -24    2    5    5    0    0  0.66314464408E+02 -0.52679351345E+02  0.33758297730E+02  0.11933001723E+03  0.76989012838E+02 0.  0.
          5    1    3    3  501    0  0.26224535161E+02 -0.14060104977E+02  0.61865397657E+02  0.68810102627E+02  0.47000000000E+01 0. -1.
        -13    1    4    4    0    0 -0.52414934404E+01  0.47755371689E+01  0.67756065193E+02  0.68126084425E+02  0.00000000000E+00 0.  1.
         14    1    4    4    0    0 -0.12573954913E+03  0.46526767296E+02  0.77906815424E+02  0.15506336182E+03  0.00000000000E+00 0. -1.
         -5    1    5    5    0  502  0.38442043001E+02  0.15437151858E+02  0.15025599868E+03  0.15593284281E+03  0.47000000000E+01 0.  1.
         13    1    6    6    0    0 -0.39605303781E+01 -0.27394248149E+00  0.31384205526E+02  0.31634304195E+02  0.00000000000E+00 0. -1.
        -14    1    6    6    0    0  0.70274994786E+02 -0.52405408864E+02  0.23740922039E+01  0.87695713032E+02  0.00000000000E+00 0.  1.
</event>
<event>
12    1  0.9873238E-001  0.2655895E+03  0.7818608E-02  0.1103927E+00
         21   -1    0    0  501  502  0.00000000000E+00  0.00000000000E+00  0.66301408517E+03  0.66301408517E+03  0.00000000000E+00 0. -1.
         21   -1    0    0  502  503 -0.00000000000E+00 -0.00000000000E+00 -0.11247192086E+03  0.11247192086E+03  0.00000000000E+00 0. -1.
         -6    2    1    2    0  503 -0.16685718380E+02 -0.20102048894E+03  0.36705161347E+03  0.45267562850E+03  0.17175764178E+03 0.  0.
        -24    2    3    3    0    0  0.25411249816E+02 -0.16607812334E+03  0.34478635112E+03  0.39342231169E+03  0.87611715782E+02 0.  0.
          6    2    1    2  501    0  0.16685718380E+02  0.20102048894E+03  0.18349055085E+03  0.32281037753E+03  0.17277183631E+03 0.  0.
         24    2    5    5    0    0  0.23320888787E+02  0.20008296870E+03  0.20581329720E+03  0.29903435105E+03  0.80531804834E+02 0.  0.
          5    1    5    5  501    0 -0.66351704074E+01  0.93752024596E+00 -0.22322746351E+02  0.23776026480E+02  0.47000000000E+01 0. -1.
        -13    1    6    6    0    0  0.49583850322E+02  0.11606519189E+03  0.14393985683E+03  0.19143763832E+03  0.00000000000E+00 0.  1.
         14    1    6    6    0    0 -0.26262961535E+02  0.84017776808E+02  0.61873440373E+02  0.10759671274E+03  0.00000000000E+00 0. -1.
         -5    1    3    3    0  503 -0.42096968196E+02 -0.34942365607E+02  0.22265262347E+02  0.59253316809E+02  0.47000000000E+01 0.  1.
         13    1    4    4    0    0 -0.31119806644E+02 -0.78466522006E+02  0.13641352342E+03  0.16041847404E+03  0.00000000000E+00 0. -1.
        -14    1    4    4    0    0  0.56531056460E+02 -0.87611601331E+02  0.20837282771E+03  0.23300383765E+03  0.00000000000E+00 0.  1.
</event>
<event>
12    1  0.9873238E-001  0.2054785E+03  0.7818608E-02  0.1145229E+00
         21   -1    0    0  501  502  0.00000000000E+00  0.00000000000E+00  0.49832844175E+03  0.49832844175E+03  0.00000000000E+00 0. -1.
         21   -1    0    0  502  503 -0.00000000000E+00 -0.00000000000E+00 -0.85074866038E+02  0.85074866038E+02  0.00000000000E+00 0. -1.
         -6    2    1    2    0  503 -0.91685369947E+02 -0.65412702893E+02  0.22684735038E+03  0.30597100308E+03  0.17167849483E+03 0.  0.
        -24    2    3    3    0    0 -0.97920239208E+02 -0.67747965486E+02  0.24613786084E+03  0.28502963637E+03  0.80497745313E+02 0.  0.
          6    2    1    2  501    0  0.91685369947E+02  0.65412702893E+02  0.18640622533E+03  0.27743230471E+03  0.17186149683E+03 0.  0.
         24    2    5    5    0    0  0.12928806763E+03  0.69411444827E+02  0.14522731483E+03  0.22132753236E+03  0.79759328622E+02 0.  0.
          5    1    5    5  501    0 -0.37602697688E+02 -0.39987419336E+01  0.41178910496E+02  0.56104772347E+02  0.47000000000E+01 0. -1.
        -13    1    6    6    0    0  0.58285901916E+02  0.47439193142E+02  0.12230526513E+03  0.14354895084E+03  0.00000000000E+00 0.  1.
         14    1    6    6    0    0  0.71002165719E+02  0.21972251685E+02  0.22922049697E+02  0.77778581520E+02  0.00000000000E+00 0. -1.
         -5    1    3    3    0  503  0.62348692606E+01  0.23352625927E+01 -0.19290510451E+02  0.20941366707E+02  0.47000000000E+01 0.  1.
         11    1    4    4    0    0 -0.10004489311E+03 -0.28866599003E+02  0.19081837037E+03  0.21737964865E+03  0.00000000000E+00 0. -1.
        -12    1    4    4    0    0  0.21246539056E+01 -0.38881366483E+02  0.55319490468E+02  0.67649987727E+02  0.00000000000E+00 0.  1.
</event>
<event>
12    1  0.9873238E-001  0.3585940E+03  0.7818608E-02  0.1059181E+00
         21   -1    0    0  503  502  0.00000000000E+00  0.00000000000E+00  0.31546186269E+03  0.31546186269E+03  0.00000000000E+00 0. -1.
         21   -1    0    0  501  503 -0.00000000000E+00 -0.00000000000E+00 -0.53245901965E+03  0.53245901965E+03  0.00000000000E+00 0. -1.
          6    2    1    2  501    0 -0.25383783976E+03 -0.18712727398E+03 -0.31410463386E+03  0.47641105127E+03  0.16986907664E+03 0.  0.
         24    2    3    3    0    0 -0.18144136294E+03 -0.56883610612E+02 -0.14912462335E+03  0.25404838450E+03  0.78394611016E+02 0.  0.
         -6    2    1    2    0  502  0.25383783976E+03  0.18712727398E+03  0.97107476908E+02  0.37150983106E+03  0.17070274439E+03 0.  0.
        -24    2    5    5    0    0  0.11266193138E+03  0.16580446675E+03  0.54843761025E+02  0.22253462878E+03  0.79561239979E+02 0.  0.
          5    1    3    3  501    0 -0.72396476818E+02 -0.13024366337E+03 -0.16498001051E+03  0.22236266677E+03  0.47000000000E+01 0. -1.
        -13    1    4    4    0    0 -0.11365383592E+03 -0.30632769580E+02 -0.13654028205E+03  0.18027426221E+03  0.00000000000E+00 0.  1.
         14    1    4    4    0    0 -0.67787527017E+02 -0.26250841032E+02 -0.12584341298E+02  0.73774122292E+02  0.00000000000E+00 0. -1.
         -5    1    5    5    0  502  0.14117590837E+03  0.21322807235E+02  0.42263715884E+02  0.14897520228E+03  0.47000000000E+01 0.  1.
         11    1    6    6    0    0  0.94122945537E+02  0.79024645834E+02  0.52833959795E+02  0.13377387949E+03  0.00000000000E+00 0. -1.
        -12    1    6    6    0    0  0.18538985847E+02  0.86779820916E+02  0.20098012299E+01  0.88760749295E+02  0.00000000000E+00 0.  1.
</event>
<event>
12    1  0.9873238E-001  0.2126039E+03  0.7818608E-02  0.1139551E+00
         21   -1    0    0  501  502  0.00000000000E+00  0.00000000000E+00  0.74388329060E+02  0.74388329060E+02  0.00000000000E+00 0. -1.
         21   -1    0    0  502  503 -0.00000000000E+00 -0.00000000000E+00 -0.64361203480E+03  0.64361203480E+03  0.00000000000E+00 0. -1.
         -6    2    1    2    0  503  0.11213597837E+03  0.53069181199E+02 -0.36993118021E+03  0.42659355567E+03  0.17245917781E+03 0.  0.
        -24    2    3    3    0    0  0.13342116908E+03  0.68644365624E+02 -0.35974917280E+03  0.39793332209E+03  0.80113695541E+02 0.  0.
          6    2    1    2  501    0 -0.11213597837E+03 -0.53069181199E+02 -0.19929252553E+03  0.29140680819E+03  0.17265457275E+03 0.  0.
         24    2    5    5    0    0 -0.10782886105E+03 -0.37398750715E+02 -0.63590540588E+02  0.15465435897E+03  0.82755568177E+02 0.  0.
          5    1    5    5  501    0 -0.43071173108E+01 -0.15670430485E+02 -0.13570198494E+03  0.13675244922E+03  0.47000000000E+01 0. -1.
        -13    1    6    6    0    0 -0.62799203395E+02 -0.54818689572E+02 -0.65982679314E+02  0.10631341704E+03  0.00000000000E+00 0.  1.
         14    1    6    6    0    0 -0.45029657660E+02  0.17419938858E+02  0.23921387262E+01  0.48340941928E+02  0.00000000000E+00 0. -1.
         -5    1    3    3    0  503 -0.21285190717E+02 -0.15575184424E+02 -0.10182007416E+02  0.28660233578E+02  0.47000000000E+01 0.  1.
         11    1    4    4    0    0  0.67839025578E+02  0.18992514923E+02 -0.25608528722E+03  0.26559842496E+03  0.00000000000E+00 0. -1.
        -12    1    4    4    0    0  0.65582143505E+02  0.49651850701E+02 -0.10366388558E+03  0.13233489713E+03  0.00000000000E+00 0.  1.
</event>
<event>
12    1  0.9873238E-001  0.1871043E+03  0.7818608E-02  0.1161188E+00
         21   -1    0    0  501  502  0.00000000000E+00  0.00000000000E+00  0.14307161110E+03  0.14307161110E+03  0.00000000000E+00 0.  1.
         21   -1    0    0  502  503 -0.00000000000E+00 -0.00000000000E+00 -0.27930967607E+03  0.27930967607E+03  0.00000000000E+00 0.  1.
         -6    2    1    2    0  503  0.71512754437E+02 -0.12056462131E+02 -0.14295155627E+03  0.23515654223E+03  0.17205818663E+03 0.  0.
        -24    2    3    3    0    0  0.21520836153E+02 -0.49123056465E+02 -0.19706704148E+02  0.97009852496E+02  0.78398572868E+02 0.  0.
          6    2    1    2  501    0 -0.71512754437E+02  0.12056462131E+02  0.67134913022E+01  0.18722474494E+03  0.17247782996E+03 0.  0.
         24    2    5    5    0    0 -0.98587301144E+01 -0.13323893545E+02 -0.53394250968E+02  0.97333633870E+02  0.79675401143E+02 0.  0.
          5    1    5    5  501    0 -0.61654024322E+02  0.25380355676E+02  0.60107742270E+02  0.89891111074E+02  0.47000000000E+01 0. -1.
        -13    1    6    6    0    0  0.20434996256E+02 -0.15434083070E+02  0.96423990105E+01  0.27363768944E+02  0.00000000000E+00 0.  1.
         14    1    6    6    0    0 -0.30293726370E+02  0.21101895251E+01 -0.63036649978E+02  0.69969864926E+02  0.00000000000E+00 0. -1.
         -5    1    3    3    0  503  0.49991918283E+02  0.37066594334E+02 -0.12324485213E+03  0.13814668973E+03  0.47000000000E+01 0.  1.
         13    1    4    4    0    0  0.40465457235E+02 -0.60458978459E+02 -0.17471979541E+02  0.74819859494E+02  0.00000000000E+00 0. -1.
        -14    1    4    4    0    0 -0.18944621082E+02  0.11335921994E+02 -0.22347246064E+01  0.22189993003E+02  0.00000000000E+00 0.  1.
</event>
<event>
12    1  0.9873238E-001  0.1935826E+03  0.7818608E-02  0.1156235E+00
         21   -1    0    0  501  502  0.00000000000E+00  0.00000000000E+00  0.20016761252E+03  0.20016761252E+03  0.00000000000E+00 0. -1.
         21   -1    0    0  502  503 -0.00000000000E+00 -0.00000000000E+00 -0.28214219277E+03  0.28214219277E+03  0.00000000000E+00 0. -1.
         -6    2    1    2    0  503  0.70509150575E+02  0.41331654654E+02  0.10162601943E+03  0.21863684359E+03  0.17548326291E+03 0.  0.
        -24    2    3    3    0    0  0.17950682470E+02 -0.24174198501E+01  0.12316047172E+03  0.14678841477E+03  0.77783455796E+02 0.  0.
          6    2    1    2  501    0 -0.70509150575E+02 -0.41331654654E+02 -0.18360059968E+03  0.26367296169E+03  0.17068803278E+03 0.  0.
         24    2    5    5    0    0 -0.11192914099E+03 -0.48714232133E+02 -0.15766589603E+03  0.21402603923E+03  0.77765041535E+02 0.  0.
          5    1    5    5  501    0  0.41419990414E+02  0.73825774788E+01 -0.25934703656E+02  0.49646922461E+02  0.47000000000E+01 0. -1.
        -13    1    6    6    0    0 -0.93569784043E+02 -0.79203625546E+01 -0.13339080636E+03  0.16312922439E+03  0.00000000000E+00 0.  1.
         14    1    6    6    0    0 -0.18359356945E+02 -0.40793869578E+02 -0.24275089663E+02  0.50896814839E+02  0.00000000000E+00 0. -1.
         -5    1    3    3    0  503  0.52558468105E+02  0.43749074504E+02 -0.21534452288E+02  0.71848428827E+02  0.47000000000E+01 0.  1.
         13    1    4    4    0    0  0.26920578697E+02  0.25923598613E+02  0.10615431180E+03  0.11254105222E+03  0.00000000000E+00 0. -1.
        -14    1    4    4    0    0 -0.89698962273E+01 -0.28341018463E+02  0.17006159924E+02  0.34247362544E+02  0.00000000000E+00 0.  1.
</event>
<event>
12    1  0.9873238E-001  0.1908788E+03  0.7818608E-02  0.1158160E+00
         21   -1    0    0  501  502  0.00000000000E+00  0.00000000000E+00  0.11590331190E+04  0.11590331190E+04  0.00000000000E+00 0.  1.
         21   -1    0    0  502  503 -0.00000000000E+00 -0.00000000000E+00 -0.98828454040E+02  0.98828454040E+02  0.00000000000E+00 0.  1.
         -6    2    1    2    0  503 -0.81464833388E+02 -0.14652131822E+02  0.84206095627E+01  0.18889740288E+03  0.16958808362E+03 0.  0.
        -24    2    3    3    0    0 -0.47322374253E+02 -0.59124553896E+02  0.48695676487E+02  0.11970437681E+03  0.78884402398E+02 0.  0.
          6    2    1    2  501    0  0.81464833388E+02  0.14652131822E+02  0.10517840554E+04  0.10689641702E+04  0.17199852861E+03 0.  0.
         24    2    5    5    0    0  0.39679656985E+02 -0.52155513116E+02  0.42042561161E+03  0.43268998638E+03  0.78538249886E+02 0.  0.
          5    1    5    5  501    0  0.41785176403E+02  0.66807644938E+02  0.63135844384E+03  0.63627418382E+03  0.47000000000E+01 0. -1.
        -11    1    6    6    0    0  0.45314462409E+02  0.13172782835E+01  0.24681006122E+03  0.25093892094E+03  0.00000000000E+00 0.  1.
         12    1    6    6    0    0 -0.56348054238E+01 -0.53472791399E+02  0.17361555039E+03  0.18175106544E+03  0.00000000000E+00 0. -1.
         -5    1    3    3    0  503 -0.34142459136E+02  0.44472422074E+02 -0.40275066924E+02  0.69193026070E+02  0.47000000000E+01 0.  1.
         13    1    4    4    0    0 -0.48139075983E+01 -0.48348024057E+02 -0.67053757042E+01  0.49047601367E+02  0.00000000000E+00 0. -1.
        -14    1    4    4    0    0 -0.42508466654E+02 -0.10776529839E+02  0.55401052191E+02  0.70656775447E+02  0.00000000000E+00 0.  1.
</event>
<event>
12    1  0.9873238E-001  0.1902796E+03  0.7818608E-02  0.1158313E+00
         21   -1    0    0  501  502  0.00000000000E+00  0.00000000000E+00  0.11749184925E+03  0.11749184925E+03  0.00000000000E+00 0.  1.
         21   -1    0    0  502  503 -0.00000000000E+00 -0.00000000000E+00 -0.57765435241E+03  0.57765435241E+03  0.00000000000E+00 0.  1.
         -6    2    1    2    0  503 -0.32849226267E+02 -0.72263355935E+02  0.77971417991E+01  0.18998034585E+03  0.17242584526E+03 0.  0.
        -24    2    3    3    0    0  0.29891495280E+01 -0.92934412178E+02  0.48355332505E+02  0.13185342800E+03  0.80008426503E+02 0.  0.
          6    2    1    2  501    0  0.32849226267E+02  0.72263355935E+02 -0.46795964495E+03  0.50516585581E+03  0.17293133983E+03 0.  0.
         24    2    5    5    0    0  0.85444489675E+02  0.27522914216E+02 -0.27105263627E+03  0.29644971142E+03  0.79715921578E+02 0.  0.
          5    1    5    5  501    0 -0.52595263408E+02  0.44740441719E+02 -0.19690700869E+03  0.20871614439E+03  0.47000000000E+01 0. -1.
        -13    1    6    6    0    0  0.63441702674E+01 -0.24071796080E+02 -0.44274077653E+02  0.50792655128E+02  0.00000000000E+00 0.  1.
         14    1    6    6    0    0  0.79100319408E+02  0.51594710296E+02 -0.22677855861E+03  0.24565705630E+03  0.00000000000E+00 0. -1.
         -5    1    3    3    0  503 -0.35838375795E+02  0.20671056243E+02 -0.40558190706E+02  0.58126917854E+02  0.47000000000E+01 0.  1.
         11    1    4    4    0    0 -0.17779795493E+02 -0.88850529909E+02  0.59033628001E+02  0.10814576750E+03  0.00000000000E+00 0. -1.
        -12    1    4    4    0    0  0.20768945021E+02 -0.40838822690E+01 -0.10678295496E+02  0.23707660500E+02  0.00000000000E+00 0.  1.
</event>
<event>
12    1  0.9873238E-001  0.1944522E+03  0.7818608E-02  0.1154868E+00
         21   -1    0    0  503  502  0.00000000000E+00  0.00000000000E+00  0.14739145742E+02  0.14739145742E+02  0.00000000000E+00 0. -1.
         21   -1    0    0  501  503 -0.00000000000E+00 -0.00000000000E+00 -0.27081149303E+04  0.27081149303E+04  0.00000000000E+00 0. -1.
          6    2    1    2  501    0 -0.37006854113E+01 -0.85544655724E+02 -0.10166351841E+04  0.10350646075E+04  0.17458539704E+03 0.  0.
         24    2    3    3    0    0  0.16188105519E+02 -0.57141264506E+02 -0.97793712675E+03  0.98289233245E+03  0.78671052132E+02 0.  0.
         -6    2    1    2    0  502  0.37006854113E+01  0.85544655724E+02 -0.16767406004E+04  0.16877894686E+04  0.17275029914E+03 0.  0.
        -24    2    5    5    0    0  0.19367493990E+02 -0.15713590233E+02 -0.54189629379E+03  0.54831925325E+03  0.79877365499E+02 0.  0.
          5    1    3    3  501    0 -0.19888790930E+02 -0.28403391217E+02 -0.38698057383E+02  0.52172275037E+02  0.47000000000E+01 0. -1.
        -13    1    4    4    0    0  0.46751387016E+02 -0.30739598032E+02 -0.66710867429E+03  0.66945096787E+03  0.00000000000E+00 0.  1.
         14    1    4    4    0    0 -0.30563281496E+02 -0.26401666474E+02 -0.31082845246E+03  0.31344136458E+03  0.00000000000E+00 0. -1.
         -5    1    5    5    0  502 -0.15666808579E+02  0.10125824596E+03 -0.11348443066E+04  0.11394702153E+04  0.47000000000E+01 0.  1.
         11    1    6    6    0    0 -0.25790459072E+02 -0.94404100477E+01 -0.35022868911E+03  0.35130386248E+03  0.00000000000E+00 0. -1.
        -12    1    6    6    0    0  0.45157953062E+02 -0.62731801850E+01 -0.19166760468E+03  0.19701539076E+03  0.00000000000E+00 0.  1.
</event>
<event>
12    1  0.9873238E-001  0.1837758E+03  0.7818608E-02  0.1164597E+00
         21   -1    0    0  503  502  0.00000000000E+00  0.00000000000E+00  0.21894125599E+02  0.21894125599E+02  0.00000000000E+00 0.  1.
         21   -1    0    0  501  503 -0.00000000000E+00 -0.00000000000E+00 -0.17208684888E+04  0.17208684888E+04  0.00000000000E+00 0.  1.
          6    2    1    2  501    0  0.31310773605E+02 -0.58136901567E+02 -0.56160685377E+03  0.59091098271E+03  0.17150296622E+03 0.  0.
         24    2    3    3    0    0  0.30291132978E+02 -0.10392918104E+03 -0.39228336738E+03  0.41543874682E+03  0.83572032567E+02 0.  0.
         -6    2    1    2    0  502 -0.31310773605E+02  0.58136901567E+02 -0.11373675094E+04  0.11518516317E+04  0.16969698301E+03 0.  0.
        -24    2    5    5    0    0  0.29181616698E+01 -0.93839851245E+01 -0.87954334781E+03  0.88310253222E+03  0.78593936715E+02 0.  0.
          5    1    3    3  501    0  0.10196406278E+01  0.45792279471E+02 -0.16932348638E+03  0.17547223589E+03  0.47000000000E+01 0. -1.
        -13    1    4    4    0    0  0.47031715020E+02 -0.29559003683E+02 -0.22245975888E+03  0.22929034266E+03  0.00000000000E+00 0.  1.
         14    1    4    4    0    0 -0.16740582042E+02 -0.74370177355E+02 -0.16982360851E+03  0.18614840416E+03  0.00000000000E+00 0. -1.
         -5    1    5    5    0  502 -0.34228935275E+02  0.67520886692E+02 -0.25782416163E+03  0.26874909947E+03  0.47000000000E+01 0.  1.
         13    1    6    6    0    0  0.27598489585E+02 -0.24593079578E+02 -0.23340658006E+03  0.23631573753E+03  0.00000000000E+00 0. -1.
        -14    1    6    6    0    0 -0.24680327916E+02  0.15209094453E+02 -0.64613676775E+03  0.64678679469E+03  0.00000000000E+00 0.  1.
</event>
<event>
12    1  0.9873238E-001  0.2758017E+03  0.7818608E-02  0.1099259E+00
         21   -1    0    0  503  502  0.00000000000E+00  0.00000000000E+00  0.40557573445E+03  0.40557573445E+03  0.00000000000E+00 0. -1.
         21   -1    0    0  501  503 -0.00000000000E+00 -0.00000000000E+00 -0.18664584647E+03  0.18664584647E+03  0.00000000000E+00 0. -1.
          6    2    1    2  501    0 -0.81910396109E+02  0.19692313975E+03  0.58935207761E+02  0.27337229749E+03  0.16053354280E+03 0.  0.
         24    2    3    3    0    0 -0.25363198273E+02  0.16975554231E+03  0.24656860518E+01  0.18883496364E+03  0.78691345846E+02 0.  0.
         -6    2    1    2    0  502  0.81910396109E+02 -0.19692313975E+03  0.15999468021E+03  0.31884928342E+03  0.17486718355E+03 0.  0.
        -24    2    5    5    0    0  0.11501736724E+03 -0.10190478150E+03  0.82116424203E+02  0.19152421637E+03  0.79528856849E+02 0.  0.
          5    1    3    3  501    0 -0.56547197836E+02  0.27167597438E+02  0.56469521709E+02  0.84537333857E+02  0.47000000000E+01 0. -1.
        -13    1    4    4    0    0 -0.21161638415E+02  0.15929926786E+03  0.25956114291E+02  0.16278142262E+03  0.00000000000E+00 0.  1.
         14    1    4    4    0    0 -0.42015598582E+01  0.10456274455E+02 -0.23490428239E+02  0.26053541018E+02  0.00000000000E+00 0. -1.
         -5    1    5    5    0  502 -0.33106971130E+02 -0.95018358253E+02  0.77878256009E+02  0.12732506706E+03  0.47000000000E+01 0.  1.
         11    1    6    6    0    0  0.56587365130E+01  0.96419262926E+01 -0.54566462528E+01  0.12440379009E+02  0.00000000000E+00 0. -1.
        -12    1    6    6    0    0  0.10935863073E+03 -0.11154670779E+03  0.87573070455E+02  0.17908383736E+03  0.00000000000E+00 0.  1.
</event>
<event>
12    1  0.9873238E-001  0.5422181E+03  0.7818608E-02  0.1003398E+00
         21   -1    0    0  503  502  0.00000000000E+00  0.00000000000E+00  0.22417101968E+04  0.22417101968E+04  0.00000000000E+00 0.  1.
         21   -1    0    0  501  503 -0.00000000000E+00 -0.00000000000E+00 -0.13161788297E+03  0.13161788297E+03  0.00000000000E+00 0.  1.
          6    2    1    2  501    0  0.51274664242E+03 -0.35850268273E+02  0.96260566586E+03  0.11048122700E+04  0.17264449841E+03 0.  0.
         24    2    3    3    0    0  0.47632561279E+03  0.82938694763E+01  0.83080529315E+03  0.96104640285E+03  0.80111644742E+02 0.  0.
         -6    2    1    2    0  502 -0.51274664242E+03  0.35850268273E+02  0.11474866480E+04  0.12685158099E+04  0.16796544730E+03 0.  0.
        -24    2    5    5    0    0 -0.44626970236E+03 -0.20473371492E+02  0.94219420367E+03  0.10454494214E+04  0.75224790614E+02 0.  0.
          5    1    3    3  501    0  0.36421029627E+02 -0.44144137750E+02  0.13180037271E+03  0.14376586710E+03  0.47000000000E+01 0. -1.
        -11    1    4    4    0    0  0.70512950029E+02 -0.19567110948E+01  0.73946260136E+02  0.10219566639E+03  0.00000000000E+00 0.  1.
         12    1    4    4    0    0  0.40581266276E+03  0.10250580571E+02  0.75685903302E+03  0.85885073646E+03  0.00000000000E+00 0. -1.
         -5    1    5    5    0  502 -0.66476940059E+02  0.56323639765E+02  0.20529244433E+03  0.22306638845E+03  0.47000000000E+01 0.  1.
         11    1    6    6    0    0 -0.32304650970E+03  0.37287676355E+01  0.60919814285E+03  0.68956169295E+03  0.00000000000E+00 0. -1.
        -12    1    6    6    0    0 -0.12322319266E+03 -0.24202139127E+02  0.33299606082E+03  0.35588772846E+03  0.00000000000E+00 0.  1.
</event>
<event>
12    1  0.9873238E-001  0.1820689E+03  0.7818608E-02  0.1166061E+00
         21   -1    0    0  501  502  0.00000000000E+00  0.00000000000E+00  0.16254179046E+04  0.16254179046E+04  0.00000000000E+00 0.  1.
         21   -1    0    0  502  503 -0.00000000000E+00 -0.00000000000E+00 -0.21036873475E+02  0.21036873475E+02  0.00000000000E+00 0.  1.
         -6    2    1    2    0  503 -0.49837988690E+02 -0.76137824235E+01  0.95622308157E+03  0.97321052382E+03  0.17388026665E+03 0.  0.
        -24    2    3    3    0    0 -0.87417094398E+02 -0.37143500691E+02  0.67239077774E+03  0.68534413094E+03  0.92551778963E+02 0.  0.
          6    2    1    2  501    0  0.49837988690E+02  0.76137824235E+01  0.64815794959E+03  0.67324425430E+03  0.17494943135E+03 0.  0.
         24    2    5    5    0    0  0.16526135332E+02  0.16804203640E+02  0.62684721450E+03  0.63237396134E+03  0.80024385324E+02 0.  0.
          5    1    5    5  501    0  0.33311853358E+02 -0.91904212166E+01  0.21310735089E+02  0.40870292956E+02  0.47000000000E+01 0. -1.
        -11    1    6    6    0    0  0.33879545213E+02  0.39596345197E+02  0.47483816496E+03  0.47768920549E+03  0.00000000000E+00 0.  1.
         12    1    6    6    0    0 -0.17353409881E+02 -0.22792141557E+02  0.15200904954E+03  0.15468475585E+03  0.00000000000E+00 0. -1.
         -5    1    3    3    0  503  0.37579105708E+02  0.29529718268E+02  0.28383230383E+03  0.28786639287E+03  0.47000000000E+01 0.  1.
         11    1    4    4    0    0 -0.85745792850E+02 -0.63003941581E+02  0.55804115608E+03  0.56809485962E+03  0.00000000000E+00 0. -1.
        -12    1    4    4    0    0 -0.16713015485E+01  0.25860440890E+02  0.11434962166E+03  0.11724927132E+03  0.00000000000E+00 0.  1.
</event>
<event>
12    1  0.9873238E-001  0.1896395E+03  0.7818608E-02  0.1159300E+00
         21   -1    0    0  501  502  0.00000000000E+00  0.00000000000E+00  0.30764890035E+03  0.30764890035E+03  0.00000000000E+00 0.  1.
         21   -1    0    0  502  503 -0.00000000000E+00 -0.00000000000E+00 -0.17207940443E+03  0.17207940443E+03  0.00000000000E+00 0.  1.
         -6    2    1    2    0  503  0.78060073170E+02 -0.82253250751E+01  0.20558314564E+03  0.27969191480E+03  0.17263286604E+03 0.  0.
        -24    2    3    3    0    0  0.10935992125E+03  0.24863651110E+02  0.12356735241E+03  0.18575980542E+03  0.81608952971E+02 0.  0.
          6    2    1    2  501    0 -0.78060073170E+02  0.82253250751E+01 -0.70013649726E+02  0.20003638998E+03  0.17015174161E+03 0.  0.
         24    2    5    5    0    0  0.12546572302E+02 -0.26626097287E+02 -0.10925284062E+02  0.86292331669E+02  0.80378101120E+02 0.  0.
          5    1    5    5  501    0 -0.90606645472E+02  0.34851422362E+02 -0.59088365664E+02  0.11374405831E+03  0.47000000000E+01 0. -1.
        -11    1    6    6    0    0  0.18819826098E+02  0.14154868204E+02  0.22968624962E+02  0.32895347405E+02  0.00000000000E+00 0.  1.
         12    1    6    6    0    0 -0.62732537960E+01 -0.40780965491E+02 -0.33893909024E+02  0.53396984264E+02  0.00000000000E+00 0. -1.
         -5    1    3    3    0  503 -0.31299848077E+02 -0.33088976185E+02  0.82015793226E+02  0.93932109383E+02  0.47000000000E+01 0.  1.
         11    1    4    4    0    0  0.86676850713E+01  0.25228616090E+02  0.62602805977E+02  0.68049416975E+02  0.00000000000E+00 0. -1.
        -12    1    4    4    0    0  0.10069223618E+03 -0.36496498030E+00  0.60964546437E+02  0.11771038845E+03  0.00000000000E+00 0.  1.
</event>
<event>
12    1  0.9873238E-001  0.1844742E+03  0.7818608E-02  0.1163717E+00
         21   -1    0    0  503  502  0.00000000000E+00  0.00000000000E+00  0.11793283949E+04  0.11793283949E+04  0.00000000000E+00 0.  1.
         21   -1    0    0  501  503 -0.00000000000E+00 -0.00000000000E+00 -0.39227462595E+02  0.39227462595E+02  0.00000000000E+00 0.  1.
          6    2    1    2  501    0 -0.52887685644E+02 -0.41905870395E+02  0.88593521435E+03  0.90493752642E+03  0.17169016700E+03 0.  0.
         24    2    3    3    0    0  0.12677181032E+02  0.18778986267E+02  0.26623037924E+03  0.27880848523E+03  0.79637901543E+02 0.  0.
         -6    2    1    2    0  502  0.52887685644E+02  0.41905870395E+02  0.25416571791E+03  0.31361833102E+03  0.17088895847E+03 0.  0.
        -24    2    5    5    0    0  0.61993740839E+02  0.85088964626E+02  0.22363965546E+03  0.25975154759E+03  0.79829914052E+02 0.  0.
          5    1    3    3  501    0 -0.65564866676E+02 -0.60684856662E+02  0.61970483511E+03  0.62612904120E+03  0.47000000000E+01 0. -1.
        -13    1    4    4    0    0  0.35168668726E+02 -0.15655857585E+02  0.90841431640E+02  0.98661577319E+02  0.00000000000E+00 0.  1.
         14    1    4    4    0    0 -0.22491487694E+02  0.34434843853E+02  0.17538894760E+03  0.18014690791E+03  0.00000000000E+00 0. -1.
         -5    1    5    5    0  502 -0.91060551949E+01 -0.43183094231E+02  0.30526062449E+02  0.53866783431E+02  0.47000000000E+01 0.  1.
         13    1    6    6    0    0  0.21425936266E+02  0.13307752128E+02  0.45089740464E+01  0.25622214162E+02  0.00000000000E+00 0. -1.
        -14    1    6    6    0    0  0.40567804573E+02  0.71781212498E+02  0.21913068141E+03  0.23412933343E+03  0.00000000000E+00 0.  1.
</event>
<event>
12    1  0.9873238E-001  0.1910003E+03  0.7818608E-02  0.1157604E+00
         21   -1    0    0  501  502  0.00000000000E+00  0.00000000000E+00  0.10391653496E+04  0.10391653496E+04  0.00000000000E+00 0. -1.
         21   -1    0    0  502  503 -0.00000000000E+00 -0.00000000000E+00 -0.35386986904E+02  0.35386986904E+02  0.00000000000E+00 0. -1.
         -6    2    1    2    0  503 -0.82049247499E+02 -0.19577653889E+01  0.45094320945E+03  0.48965248538E+03  0.17226104154E+03 0.  0.
        -24    2    3    3    0    0  0.40176402260E+01 -0.43813735332E+02  0.26786516952E+03  0.28301490388E+03  0.80061863219E+02 0.  0.
          6    2    1    2  501    0  0.82049247499E+02  0.19577653889E+01  0.55283515328E+03  0.58489985115E+03  0.17246801825E+03 0.  0.
         24    2    5    5    0    0 -0.13477563596E+02  0.29384845682E+02  0.20834119837E+03  0.22632518482E+03  0.82291679211E+02 0.  0.
          5    1    5    5  501    0  0.95526811095E+02 -0.27427080293E+02  0.34449395490E+03  0.35857466633E+03  0.47000000000E+01 0. -1.
        -13    1    6    6    0    0  0.22298269764E+02  0.43808351638E+02  0.10260186419E+03  0.11376962267E+03  0.00000000000E+00 0.  1.
         14    1    6    6    0    0 -0.35775833360E+02 -0.14423505956E+02  0.10573933418E+03  0.11255556214E+03  0.00000000000E+00 0. -1.
         -5    1    3    3    0  503 -0.86066887725E+02  0.41855969943E+02  0.18307803993E+03  0.20663758150E+03  0.47000000000E+01 0.  1.
         13    1    4    4    0    0  0.34347078891E+02 -0.99742781410E+01  0.56870899984E+02  0.67182641491E+02  0.00000000000E+00 0. -1.
        -14    1    4    4    0    0 -0.30329438665E+02 -0.33839457191E+02  0.21099426954E+03  0.21583226239E+03  0.00000000000E+00 0.  1.
</event>
<event>
12    1  0.9873238E-001  0.2152644E+03  0.7818608E-02  0.1137783E+00
         21   -1    0    0  501  502  0.00000000000E+00  0.00000000000E+00  0.99566206104E+02  0.99566206104E+02  0.00000000000E+00 0.  1.
         21   -1    0    0  502  503 -0.00000000000E+00 -0.00000000000E+00 -0.69637496816E+03  0.69637496816E+03  0.00000000000E+00 0.  1.
         -6    2    1    2    0  503 -0.58451487348E+02  0.11375784721E+03 -0.68207275400E+02  0.22581183705E+03  0.17315117429E+03 0.  0.
        -24    2    3    3    0    0 -0.81816152449E+02  0.21625294816E+02 -0.16755102134E+02  0.11762805398E+03  0.79963050580E+02 0.  0.
          6    2    1    2  501    0  0.58451487348E+02 -0.11375784721E+03 -0.52860148665E+03  0.57012933721E+03  0.17108625101E+03 0.  0.
         24    2    5    5    0    0  0.96125337651E+01 -0.87438614394E+01 -0.33308212114E+03  0.34283417034E+03  0.80141830583E+02 0.  0.
          5    1    5    5  501    0  0.48838953583E+02 -0.10501398577E+03 -0.19551936551E+03  0.22729516687E+03  0.47000000000E+01 0. -1.
        -13    1    6    6    0    0  0.24394096718E+01 -0.33145549228E+02 -0.29604574842E+03  0.29790546036E+03  0.00000000000E+00 0.  1.
         14    1    6    6    0    0  0.71731240934E+01  0.24401687789E+02 -0.37036372722E+02  0.44928709981E+02  0.00000000000E+00 0. -1.
         -5    1    3    3    0  503  0.23364665101E+02  0.92132552391E+02 -0.51452173265E+02  0.10818378307E+03  0.47000000000E+01 0.  1.
         13    1    4    4    0    0 -0.13614900554E+02  0.22035624002E+02 -0.38182037736E+02  0.46138945024E+02  0.00000000000E+00 0. -1.
        -14    1    4    4    0    0 -0.68201251894E+02 -0.41032918615E+00  0.21426935602E+02  0.71489108956E+02  0.00000000000E+00 0.  1.
</event>
<event>
12    1  0.9873238E-001  0.1952139E+03  0.7818608E-02  0.1155103E+00
         21   -1    0    0  503  502  0.00000000000E+00  0.00000000000E+00  0.98123162967E+02  0.98123162967E+02  0.00000000000E+00 0.  1.
         21   -1    0    0  501  503 -0.00000000000E+00 -0.00000000000E+00 -0.38245499915E+03  0.38245499915E+03  0.00000000000E+00 0.  1.
          6    2    1    2  501    0  0.46819333183E+02  0.65901205545E+02 -0.11167492315E+03  0.21996563698E+03  0.17140179153E+03 0.  0.
         24    2    3    3    0    0  0.71406137905E+02  0.10338932182E+03 -0.84927487381E+02  0.16755013213E+03  0.71219240862E+02 0.  0.
         -6    2    1    2    0  502 -0.46819333183E+02 -0.65901205545E+02 -0.17265691303E+03  0.26061252513E+03  0.17768922248E+03 0.  0.
        -24    2    5    5    0    0 -0.94636903773E+02 -0.70390088870E+02 -0.15138139991E+03  0.20787347329E+03  0.79900841623E+02 0.  0.
          5    1    3    3  501    0 -0.24586804722E+02 -0.37488116273E+02 -0.26747435772E+02  0.52415504849E+02  0.47000000000E+01 0. -1.
        -13    1    4    4    0    0  0.70621425317E+02  0.53130672823E+02 -0.75870950582E+02  0.11647598573E+03  0.00000000000E+00 0.  1.
         14    1    4    4    0    0  0.78471258783E+00  0.50258648995E+02 -0.90565367992E+01  0.51074146410E+02  0.00000000000E+00 0. -1.
         -5    1    5    5    0  502  0.47817570590E+02  0.44888833255E+01 -0.21275513118E+02  0.52739051841E+02  0.47000000000E+01 0.  1.
         13    1    6    6    0    0 -0.54536530176E+01 -0.50496573573E+02 -0.47759521301E+02  0.69718133572E+02  0.00000000000E+00 0. -1.
        -14    1    6    6    0    0 -0.89183250756E+02 -0.19893515297E+02 -0.10362187861E+03  0.13815533972E+03  0.00000000000E+00 0.  1.
</event>
<event>
12    1  0.9873238E-001  0.1748091E+03  0.7818608E-02  0.1172970E+00
         21   -1    0    0  501  502  0.00000000000E+00  0.00000000000E+00  0.77769714547E+03  0.77769714547E+03  0.00000000000E+00 0. -1.
         21   -1    0    0  502  503 -0.00000000000E+00 -0.00000000000E+00 -0.70808534441E+02  0.70808534441E+02  0.00000000000E+00 0. -1.
         -6    2    1    2    0  503  0.30021465148E+02  0.15676861233E+02  0.63656470158E+03  0.66008146504E+03  0.17130635962E+03 0.  0.
        -24    2    3    3    0    0  0.38576126406E+02 -0.36846459884E+02  0.21891129879E+03  0.23902524985E+03  0.79781791111E+02 0.  0.
          6    2    1    2  501    0 -0.30021465148E+02 -0.15676861233E+02  0.70323909451E+02  0.18842421487E+03  0.17149688091E+03 0.  0.
         24    2    5    5    0    0 -0.74597224161E+02  0.59142489477E+01  0.16297345775E+02  0.11497944710E+03  0.85760979374E+02 0.  0.
          5    1    5    5  501    0  0.44575759013E+02 -0.21591110181E+02  0.54026563676E+02  0.73444767772E+02  0.47000000000E+01 0. -1.
        -13    1    6    6    0    0 -0.10517409606E+02 -0.23628293618E+02  0.33527906729E+02  0.42344216768E+02  0.00000000000E+00 0.  1.
         14    1    6    6    0    0 -0.64079814555E+02  0.29542542566E+02 -0.17230560954E+02  0.72635230332E+02  0.00000000000E+00 0. -1.
         -5    1    3    3    0  503 -0.85546612576E+01  0.52523321117E+02  0.41765340279E+03  0.42105621519E+03  0.47000000000E+01 0.  1.
         13    1    4    4    0    0  0.50797773465E+02  0.57181950095E+01  0.13018080758E+03  0.13985762120E+03  0.00000000000E+00 0. -1.
        -14    1    4    4    0    0 -0.12221647060E+02 -0.42564654893E+02  0.88730491203E+02  0.99167628651E+02  0.00000000000E+00 0.  1.
</event>
<event>
12    1  0.9873238E-001  0.2174010E+03  0.7818608E-02  0.1136200E+00
         21   -1    0    0  503  502  0.00000000000E+00  0.00000000000E+00  0.10278294542E+03  0.10278294542E+03  0.00000000000E+00 0.  1.
         21   -1    0    0  501  503 -0.00000000000E+00 -0.00000000000E+00 -0.45810561722E+03  0.45810561722E+03  0.00000000000E+00 0.  1.
          6    2    1    2  501    0 -0.62683940385E+02 -0.11514610197E+03 -0.19681610539E+03  0.29183926227E+03  0.17101366753E+03 0.  0.
         24    2    3    3    0    0 -0.88615254287E+02 -0.26000958215E+02 -0.10804033921E+03  0.16329932157E+03  0.80406718667E+02 0.  0.
         -6    2    1    2    0  502  0.62683940385E+02  0.11514610197E+03 -0.15850656642E+03  0.26904930037E+03  0.17342229745E+03 0.  0.
        -24    2    5    5    0    0 -0.24706744209E+02  0.73306047822E+02 -0.11231474396E+03  0.16160863607E+03  0.86709570883E+02 0.  0.
          5    1    3    3  501    0  0.25931313903E+02 -0.89145143751E+02 -0.88775766178E+02  0.12853994070E+03  0.47000000000E+01 0. -1.
        -13    1    4    4    0    0 -0.42786718912E+01 -0.32997400445E+02 -0.12189473077E+02  0.35436121728E+02  0.00000000000E+00 0.  1.
         14    1    4    4    0    0 -0.84336582396E+02  0.69964422303E+01 -0.95850866135E+02  0.12786319984E+03  0.00000000000E+00 0. -1.
         -5    1    5    5    0  502  0.87390684593E+02  0.41840054143E+02 -0.46191822454E+02  0.10744066430E+03  0.47000000000E+01 0.  1.
         13    1    6    6    0    0  0.12078037774E+01  0.25071520711E+02  0.10448048538E+02  0.27188263258E+02  0.00000000000E+00 0. -1.
        -14    1    6    6    0    0 -0.25914547986E+02  0.48234527110E+02 -0.12276279250E+03  0.13442037281E+03  0.00000000000E+00 0.  1.
</event>
<event>
12    1  0.9873238E-001  0.1895195E+03  0.7818608E-02  0.1159071E+00
         21   -1    0    0  503  502  0.00000000000E+00  0.00000000000E+00  0.50616488439E+02  0.50616488439E+02  0.00000000000E+00 0. -1.
         21   -1    0    0  501  503 -0.00000000000E+00 -0.00000000000E+00 -0.10213024427E+04  0.10213024427E+04  0.00000000000E+00 0. -1.
          6    2    1    2  501    0  0.81539462596E+02 -0.94466298143E+00 -0.78211746594E+03  0.80456947987E+03  0.17021968472E+03 0.  0.
         24    2    3    3    0    0  0.16496374256E+02 -0.16798517601E+02 -0.17446450303E+03  0.19322165631E+03  0.79639343865E+02 0.  0.
         -6    2    1    2    0  502 -0.81539462596E+02  0.94466298143E+00 -0.18856848833E+03  0.26734945127E+03  0.17107915699E+03 0.  0.
        -24    2    5    5    0    0 -0.97231028783E+01  0.35428981838E+02 -0.34008884161E+02  0.93402565672E+02  0.78852289685E+02 0.  0.
          5    1    3    3  501    0  0.65043088340E+02  0.15853854619E+02 -0.60765296290E+03  0.61134782356E+03  0.47000000000E+01 0. -1.
        -13    1    4    4    0    0  0.25205413188E+02 -0.45580934814E+02 -0.96509971565E+02  0.10966817717E+03  0.00000000000E+00 0.  1.
         14    1    4    4    0    0 -0.87090389326E+01  0.28782417213E+02 -0.77954531469E+02  0.83553479139E+02  0.00000000000E+00 0. -1.
         -5    1    5    5    0  502 -0.71816359717E+02 -0.34484318857E+02 -0.15455960417E+03  0.17394688560E+03  0.47000000000E+01 0.  1.
         13    1    6    6    0    0 -0.16043434242E+02  0.56138734650E+02 -0.70280389401E+01  0.58807675024E+02  0.00000000000E+00 0. -1.
        -14    1    6    6    0    0  0.63203313633E+01 -0.20709752812E+02 -0.26980845220E+02  0.34594890647E+02  0.00000000000E+00 0.  1.
</event>
<event>
12    1  0.9873238E-001  0.2339705E+03  0.7818608E-02  0.1124149E+00
         21   -1    0    0  503  502  0.00000000000E+00  0.00000000000E+00  0.32377249218E+03  0.32377249218E+03  0.00000000000E+00 0.  1.
         21   -1    0    0  501  503 -0.00000000000E+00 -0.00000000000E+00 -0.16887666169E+03  0.16887666169E+03  0.00000000000E+00 0.  1.
          6    2    1    2  501    0  0.92790835900E+02  0.12854418102E+03  0.59309031726E+02  0.24137062402E+03  0.17207112248E+03 0.  0.
         24    2    3    3    0    0  0.60857963303E+01  0.16862615116E+01  0.19882345141E+01  0.77302164457E+02  0.77018122272E+02 0.  0.
         -6    2    1    2    0  502 -0.92790835900E+02 -0.12854418102E+03  0.95586798762E+02  0.25127852986E+03  0.16991267689E+03 0.  0.
        -24    2    5    5    0    0 -0.78316592214E+01 -0.88497343649E+02  0.10443410654E+03  0.15682126047E+03  0.76113799064E+02 0.  0.
          5    1    3    3  501    0  0.86705039570E+02  0.12685791951E+03  0.57320797212E+02  0.16406845956E+03  0.47000000000E+01 0. -1.
        -11    1    4    4    0    0  0.41178137577E+02  0.39633993784E+01 -0.42529561086E+01  0.41586478387E+02  0.00000000000E+00 0.  1.
         12    1    4    4    0    0 -0.35092341247E+02 -0.22771378668E+01  0.62411906227E+01  0.35715686070E+02  0.00000000000E+00 0. -1.
         -5    1    5    5    0  502 -0.84959176679E+02 -0.40046837375E+02 -0.88473077738E+01  0.94457269390E+02  0.47000000000E+01 0.  1.
         13    1    6    6    0    0 -0.28512985969E+02 -0.50973874345E+01  0.14336527381E+02  0.32318875984E+02  0.00000000000E+00 0. -1.
        -14    1    6    6    0    0  0.20681326748E+02 -0.83399956215E+02  0.90097579155E+02  0.12450238448E+03  0.00000000000E+00 0.  1.
</event>
<event>
12    1  0.9873238E-001  0.1992367E+03  0.7818608E-02  0.1150634E+00
         21   -1    0    0  503  502  0.00000000000E+00  0.00000000000E+00  0.55348094012E+02  0.55348094012E+02  0.00000000000E+00 0. -1.
         21   -1    0    0  501  503 -0.00000000000E+00 -0.00000000000E+00 -0.80498545764E+03  0.80498545764E+03  0.00000000000E+00 0. -1.
          6    2    1    2  501    0  0.84630142461E+02 -0.52026781385E+02 -0.52122291897E+03  0.55800412087E+03  0.17270269439E+03 0.  0.
         24    2    3    3    0    0 -0.20284181343E+02 -0.41629490814E+02 -0.21466829419E+03  0.23379285184E+03  0.80200738915E+02 0.  0.
         -6    2    1    2    0  502 -0.84630142461E+02  0.52026781385E+02 -0.22841444465E+03  0.30232943078E+03  0.17135016544E+03 0.  0.
        -24    2    5    5    0    0 -0.33532531240E+02  0.72092928763E+02 -0.72872055457E+02  0.13731688283E+03  0.84992757428E+02 0.  0.
          5    1    3    3  501    0  0.10491432380E+03 -0.10397290570E+02 -0.30655462478E+03  0.32421126903E+03  0.47000000000E+01 0. -1.
        -13    1    4    4    0    0  0.46021228239E+01 -0.44122563777E+01  0.59240716217E+01  0.87029974956E+01  0.00000000000E+00 0.  1.
         14    1    4    4    0    0 -0.24886304167E+02 -0.37217234437E+02 -0.22059236581E+03  0.22508985434E+03  0.00000000000E+00 0. -1.
         -5    1    5    5    0  502 -0.51097611221E+02 -0.20066147379E+02 -0.15554238919E+03  0.16501254795E+03  0.47000000000E+01 0.  1.
         11    1    6    6    0    0  0.27041775218E+02  0.31393119482E+02 -0.38848435281E+02  0.56797768279E+02  0.00000000000E+00 0. -1.
        -12    1    6    6    0    0 -0.60574306459E+02  0.40699809282E+02 -0.34023620176E+02  0.80519114553E+02  0.00000000000E+00 0.  1.
</event>
<event>
12    1  0.9873238E-001  0.2678245E+03  0.7818608E-02  0.1102536E+00
         21   -1    0    0  503  502  0.00000000000E+00  0.00000000000E+00  0.14496033449E+03  0.14496033449E+03  0.00000000000E+00 0. -1.
         21   -1    0    0  501  503 -0.00000000000E+00 -0.00000000000E+00 -0.69053533850E+03  0.69053533850E+03  0.00000000000E+00 0. -1.
          6    2    1    2  501    0 -0.18753043985E+03 -0.84116255442E+02 -0.50346366631E+02  0.27248467627E+03  0.17166808634E+03 0.  0.
         24    2    3    3    0    0 -0.91799489655E+02  0.13649373077E+02  0.75064478221E+01  0.12385234101E+03  0.81667643088E+02 0.  0.
         -6    2    1    2    0  502  0.18753043985E+03  0.84116255442E+02 -0.49522863738E+03  0.56301099673E+03  0.17171711871E+03 0.  0.
        -24    2    5    5    0    0  0.14680900107E+03  0.56310630213E+02 -0.20365987866E+03  0.26726478893E+03  0.72314254149E+02 0.  0.
          5    1    3    3  501    0 -0.95730950195E+02 -0.97765628519E+02 -0.57852814453E+02  0.14863233526E+03  0.47000000000E+01 0. -1.
        -11    1    4    4    0    0 -0.79438747349E+02 -0.15342635755E+02  0.28728920353E+02  0.85856053467E+02  0.00000000000E+00 0.  1.
         12    1    4    4    0    0 -0.12360742306E+02  0.28992008832E+02 -0.21222472530E+02  0.37996287539E+02  0.00000000000E+00 0. -1.
         -5    1    5    5    0  502  0.40721438782E+02  0.27805625230E+02 -0.29156875872E+03  0.29574620780E+03  0.47000000000E+01 0.  1.
         13    1    6    6    0    0  0.44844537398E+02  0.44657657164E+02 -0.11666763759E+03  0.13272782880E+03  0.00000000000E+00 0. -1.
        -14    1    6    6    0    0  0.10196446367E+03  0.11652973048E+02 -0.86992241075E+02  0.13453696012E+03  0.00000000000E+00 0.  1.
</event>
<event>
12    1  0.9873238E-001  0.4313174E+03  0.7818608E-02  0.1033569E+00
         21   -1    0    0  503  502  0.00000000000E+00  0.00000000000E+00  0.16761036318E+03  0.16761036318E+03  0.00000000000E+00 0.  1.
         21   -1    0    0  501  503 -0.00000000000E+00 -0.00000000000E+00 -0.13852381029E+04  0.13852381029E+04  0.00000000000E+00 0. -1.
          6    2    1    2  501    0 -0.28061523478E+03  0.27963383989E+03 -0.25922899819E+03  0.50186660230E+03  0.16652452852E+03 0.  0.
         24    2    3    3    0    0 -0.11551192786E+03  0.11464197734E+03 -0.17997331814E+03  0.25532052247E+03  0.79450522353E+02 0.  0.
         -6    2    1    2    0  502  0.28061523478E+03 -0.27963383989E+03 -0.95839874157E+03  0.10509818638E+04  0.17057179091E+03 0.  0.
        -24    2    5    5    0    0  0.20815060872E+03 -0.13121512302E+03 -0.67655191660E+03  0.72427257365E+03  0.79398870645E+02 0.  0.
          5    1    3    3  501    0 -0.16510330691E+03  0.16499186255E+03 -0.79255680052E+02  0.24654607983E+03  0.47000000000E+01 0. -1.
        -11    1    4    4    0    0  0.55332594549E+00  0.45343490836E+02 -0.36654556667E+02  0.58308617333E+02  0.00000000000E+00 0.  1.
         12    1    4    4    0    0 -0.11606525381E+03  0.69298486504E+02 -0.14331876147E+03  0.19701190513E+03  0.00000000000E+00 0. -1.
         -5    1    5    5    0  502  0.72464626060E+02 -0.14841871687E+03 -0.28184682497E+03  0.32670929018E+03  0.47000000000E+01 0.  1.
         11    1    6    6    0    0  0.17473447136E+03 -0.13208986244E+03 -0.52106900097E+03  0.56523691582E+03  0.00000000000E+00 0. -1.
        -12    1    6    6    0    0  0.33416137362E+02  0.87473942028E+00 -0.15548291563E+03  0.15903565782E+03  0.00000000000E+00 0.  1.
</event>
<event>
12    1  0.9873238E-001  0.1977248E+03  0.7818608E-02  0.1151677E+00
         21   -1    0    0  501  502  0.00000000000E+00  0.00000000000E+00  0.71684542709E+03  0.71684542709E+03  0.00000000000E+00 0.  1.
         21   -1    0    0  502  503 -0.00000000000E+00 -0.00000000000E+00 -0.13189140413E+03  0.13189140413E+03  0.00000000000E+00 0.  1.
         -6    2    1    2    0  503 -0.87296948127E+02 -0.42290311304E+02 -0.32522216871E+02  0.20038157279E+03  0.17229582856E+03 0.  0.
        -24    2    3    3    0    0 -0.21410039716E+02 -0.83888805787E+02 -0.91812666251E+01  0.11890513815E+03  0.80984039687E+02 0.  0.
          6    2    1    2  501    0  0.87296948127E+02  0.42290311304E+02  0.61747623983E+03  0.64835525843E+03  0.17227421976E+03 0.  0.
         24    2    5    5    0    0  0.12954393740E+01  0.59900554616E+02  0.42664125624E+03  0.43824466579E+03  0.80286181626E+02 0.  0.
          5    1    5    5  501    0  0.86001508753E+02 -0.17610243313E+02  0.19083498359E+03  0.21011059264E+03  0.47000000000E+01 0. -1.
        -11    1    6    6    0    0  0.36452919515E+02  0.53032923171E+02  0.27244003678E+03  0.27993727855E+03  0.00000000000E+00 0.  1.
         12    1    6    6    0    0 -0.35157480141E+02  0.68676314453E+01  0.15420121946E+03  0.15830738724E+03  0.00000000000E+00 0. -1.
         -5    1    3    3    0  503 -0.65886908412E+02  0.41598494483E+02 -0.23340950246E+02  0.81476434640E+02  0.47000000000E+01 0.  1.
         11    1    4    4    0    0 -0.46809073400E+02 -0.78600386677E+02 -0.29998661406E+00  0.91483332528E+02  0.00000000000E+00 0. -1.
        -12    1    4    4    0    0  0.25399033685E+02 -0.52884191096E+01 -0.88812800111E+01  0.27421805620E+02  0.00000000000E+00 0.  1.
</event>
<event>
12    1  0.9873238E-001  0.1931281E+03  0.7818608E-02  0.1157482E+00
         21   -1    0    0  501  502  0.00000000000E+00  0.00000000000E+00  0.11901265801E+03  0.11901265801E+03  0.00000000000E+00 0.  1.
         21   -1    0    0  502  503 -0.00000000000E+00 -0.00000000000E+00 -0.30052564411E+03  0.30052564411E+03  0.00000000000E+00 0.  1.
         -6    2    1    2    0  503  0.81933714215E+02  0.30168068231E+02 -0.93923066477E+02  0.21475565805E+03  0.17226492499E+03 0.  0.
        -24    2    3    3    0    0  0.95593038208E+02 -0.20847125498E+01 -0.11693712248E+03  0.17258273102E+03  0.83475346367E+02 0.  0.
          6    2    1    2  501    0 -0.81933714215E+02 -0.30168068231E+02 -0.87589919625E+02  0.20478264407E+03  0.16321976421E+03 0.  0.
         24    2    5    5    0    0  0.14499404573E+02 -0.28558454960E+02 -0.22572377284E+02  0.88372558317E+02  0.79210976288E+02 0.  0.
          5    1    5    5  501    0 -0.96433118788E+02 -0.16096132711E+01 -0.65017542341E+02  0.11641008576E+03  0.47000000000E+01 0. -1.
        -13    1    6    6    0    0 -0.16040815870E+02  0.21117399415E+02 -0.12005936156E+02  0.29110046974E+02  0.00000000000E+00 0.  1.
         14    1    6    6    0    0  0.30540220443E+02 -0.49675854375E+02 -0.10566441128E+02  0.59262511343E+02  0.00000000000E+00 0. -1.
         -5    1    3    3    0  503 -0.13659323994E+02  0.32252780781E+02  0.23014056008E+02  0.42172927027E+02  0.47000000000E+01 0.  1.
         11    1    4    4    0    0  0.27398749330E+02  0.23443199044E+02 -0.86400167510E+02  0.93622988587E+02  0.00000000000E+00 0. -1.
        -12    1    4    4    0    0  0.68194288878E+02 -0.25527911594E+02 -0.30536954975E+02  0.78959742433E+02  0.00000000000E+00 0.  1.
</event>
<event>
12    1  0.9873238E-001  0.1955004E+03  0.7818608E-02  0.1153625E+00
         21   -1    0    0  501  502  0.00000000000E+00  0.00000000000E+00  0.39734754449E+02  0.39734754449E+02  0.00000000000E+00 0. -1.
         21   -1    0    0  502  503 -0.00000000000E+00 -0.00000000000E+00 -0.96113916337E+03  0.96113916337E+03  0.00000000000E+00 0. -1.
         -6    2    1    2    0  503  0.44787187076E+02 -0.81696625550E+02 -0.45915180245E+03  0.49903986317E+03  0.17187255915E+03 0.  0.
        -24    2    3    3    0    0  0.75322143451E+02 -0.72060267893E+02 -0.44415891833E+03  0.46337307857E+03  0.81063911240E+02 0.  0.
          6    2    1    2  501    0 -0.44787187076E+02  0.81696625550E+02 -0.46225260647E+03  0.50183405465E+03  0.17169657964E+03 0.  0.
         24    2    5    5    0    0  0.37151649670E+02  0.58011726819E+02 -0.28172178462E+03  0.30211321189E+03  0.84614557515E+02 0.  0.
          5    1    5    5  501    0 -0.81938836746E+02  0.23684898731E+02 -0.18053082185E+03  0.19972084276E+03  0.47000000000E+01 0. -1.
        -11    1    6    6    0    0 -0.11850801989E+02  0.25713543073E+02 -0.22034958430E+02  0.35877112455E+02  0.00000000000E+00 0.  1.
         12    1    6    6    0    0  0.49002451659E+02  0.32298183747E+02 -0.25968682619E+03  0.26623609943E+03  0.00000000000E+00 0. -1.
         -5    1    3    3    0  503 -0.30534956375E+02 -0.96363576571E+01 -0.14992884114E+02  0.35666784601E+02  0.47000000000E+01 0.  1.
         11    1    4    4    0    0 -0.91186822791E+01 -0.26822010446E+02 -0.18339024692E+03  0.18556549592E+03  0.00000000000E+00 0. -1.
        -12    1    4    4    0    0  0.84440825730E+02 -0.45238257447E+02 -0.26076867141E+03  0.27780758265E+03  0.00000000000E+00 0.  1.
</event>
<event>
12    1  0.9873238E-001  0.5676852E+03  0.7818608E-02  0.9974875E-01
         21   -1    0    0  501  502  0.00000000000E+00  0.00000000000E+00  0.45312722558E+03  0.45312722558E+03  0.00000000000E+00 0. -1.
         21   -1    0    0  502  503 -0.00000000000E+00 -0.00000000000E+00 -0.81018498850E+03  0.81018498850E+03  0.00000000000E+00 0.  1.
         -6    2    1    2    0  503  0.49191384968E+03  0.22493732802E+03  0.42419398449E+02  0.56915918181E+03  0.17194979452E+03 0.  0.
        -24    2    3    3    0    0  0.10532710055E+03  0.87079442979E+02  0.10116313645E+02  0.15743149224E+03  0.77496499590E+02 0.  0.
          6    2    1    2  501    0 -0.49191384968E+03 -0.22493732802E+03 -0.39947716137E+03  0.69415303227E+03  0.17230900358E+03 0.  0.
         24    2    5    5    0    0 -0.40767581757E+03 -0.12861599129E+03 -0.34304380300E+03  0.55422212110E+03  0.82106414482E+02 0.  0.
          5    1    5    5  501    0 -0.84238032107E+02 -0.96321336729E+02 -0.56433358372E+02  0.13993091117E+03  0.47000000000E+01 0. -1.
        -13    1    6    6    0    0 -0.38991948758E+03 -0.13097816030E+03 -0.30467608474E+03  0.51187889377E+03  0.00000000000E+00 0.  1.
         14    1    6    6    0    0 -0.17756329990E+02  0.23621690102E+01 -0.38367718257E+02  0.42343227338E+02  0.00000000000E+00 0. -1.
         -5    1    3    3    0  503  0.38658674913E+03  0.13785788504E+03  0.32303084804E+02  0.41172768957E+03  0.47000000000E+01 0.  1.
         11    1    4    4    0    0  0.48314572113E+02  0.17419814681E+01 -0.17054321810E+02  0.51265800201E+02  0.00000000000E+00 0. -1.
        -12    1    4    4    0    0  0.57012528436E+02  0.85337461511E+02  0.27170635454E+02  0.10616569204E+03  0.00000000000E+00 0.  1.
</event>
<event>
12    1  0.9873238E-001  0.2277374E+03  0.7818608E-02  0.1128591E+00
         21   -1    0    0  501  502  0.00000000000E+00  0.00000000000E+00  0.92520678989E+02  0.92520678989E+02  0.00000000000E+00 0.  1.
         21   -1    0    0  502  503 -0.00000000000E+00 -0.00000000000E+00 -0.56633653128E+03  0.56633653128E+03  0.00000000000E+00 0.  1.
         -6    2    1    2    0  503 -0.11034579445E+03 -0.10060301401E+03 -0.19096233854E+03  0.29571753211E+03  0.16936671242E+03 0.  0.
        -24    2    3    3    0    0 -0.12818979894E+02 -0.25415531395E+01 -0.94363906241E+02  0.12695474951E+03  0.83917673260E+02 0.  0.
          6    2    1    2  501    0  0.11034579445E+03  0.10060301401E+03 -0.28285351376E+03  0.36313967817E+03  0.17195102452E+03 0.  0.
         24    2    5    5    0    0  0.23955676117E+02  0.87909875180E+02 -0.23307620793E+03  0.26252040320E+03  0.79312185835E+02 0.  0.
          5    1    5    5  501    0  0.86390118332E+02  0.12693138834E+02 -0.49777305827E+02  0.10061927496E+03  0.47000000000E+01 0. -1.
        -11    1    6    6    0    0 -0.28273492948E+02  0.44925890281E+02 -0.10707325762E+03  0.11950903111E+03  0.00000000000E+00 0.  1.
         12    1    6    6    0    0  0.52229169065E+02  0.42983984898E+02 -0.12600295031E+03  0.14301137209E+03  0.00000000000E+00 0. -1.
         -5    1    3    3    0  503 -0.97526814555E+02 -0.98061460874E+02 -0.96598432296E+02  0.16876278259E+03  0.47000000000E+01 0.  1.
         13    1    4    4    0    0 -0.24915680164E+02  0.30400258678E+02 -0.18655360272E+02  0.43508497017E+02  0.00000000000E+00 0. -1.
        -14    1    4    4    0    0  0.12096700270E+02 -0.32941811818E+02 -0.75708545968E+02  0.83446252498E+02  0.00000000000E+00 0.  1.
</event>
<event>
12    1  0.9873238E-001  0.2062808E+03  0.7818608E-02  0.1144546E+00
         21   -1    0    0  503  502  0.00000000000E+00  0.00000000000E+00  0.42137304624E+03  0.42137304624E+03  0.00000000000E+00 0.  1.
         21   -1    0    0  501  503 -0.00000000000E+00 -0.00000000000E+00 -0.10289980441E+03  0.10289980441E+03  0.00000000000E+00 0.  1.
          6    2    1    2  501    0 -0.63405238551E+02  0.95079922173E+02  0.19501142991E+03  0.28386776542E+03  0.17172953902E+03 0.  0.
         24    2    3    3    0    0  0.27732800615E+02  0.71670046930E+02  0.91607717864E+02  0.14398001718E+03  0.80203288698E+02 0.  0.
         -6    2    1    2    0  502  0.63405238551E+02 -0.95079922173E+02  0.12346181192E+03  0.24040508523E+03  0.17173051600E+03 0.  0.
        -24    2    5    5    0    0  0.96390235299E+02 -0.95606045353E+02  0.55203302672E+02  0.16444719624E+03  0.74591436207E+02 0.  0.
          5    1    3    3  501    0 -0.91138039166E+02  0.23409875243E+02  0.10340371204E+03  0.13988774824E+03  0.47000000000E+01 0. -1.
        -11    1    4    4    0    0 -0.82236334138E+01  0.13911747211E+02 -0.11931470322E+02  0.20087927744E+02  0.00000000000E+00 0.  1.
         12    1    4    4    0    0  0.35956434029E+02  0.57758299719E+02  0.10353918819E+03  0.12389208944E+03  0.00000000000E+00 0. -1.
         -5    1    5    5    0  502 -0.32984996748E+02  0.52612318014E+00  0.68258509244E+02  0.75957888993E+02  0.47000000000E+01 0.  1.
         11    1    6    6    0    0 -0.76199502511E+01 -0.18443060415E+01 -0.76508125113E+01  0.10954452916E+02  0.00000000000E+00 0. -1.
        -12    1    6    6    0    0  0.10401018555E+03 -0.93761739312E+02  0.62854115184E+02  0.15349274332E+03  0.00000000000E+00 0.  1.
</event>
<event>
12    1  0.9873238E-001  0.2779618E+03  0.7818608E-02  0.1096880E+00
         21   -1    0    0  503  502  0.00000000000E+00  0.00000000000E+00  0.33236582336E+03  0.33236582336E+03  0.00000000000E+00 0.  1.
         21   -1    0    0  501  503 -0.00000000000E+00 -0.00000000000E+00 -0.28340954797E+03  0.28340954797E+03  0.00000000000E+00 0.  1.
          6    2    1    2  501    0  0.18450078652E+03 -0.11446238283E+03  0.15555881469E+03  0.31807275790E+03  0.17271235388E+03 0.  0.
         24    2    3    3    0    0  0.18215843093E+03 -0.41211035106E+02  0.12507365876E+03  0.23855746815E+03  0.79913716716E+02 0.  0.
         -6    2    1    2    0  502 -0.18450078652E+03  0.11446238283E+03 -0.10660253930E+03  0.29770261343E+03  0.17355277972E+03 0.  0.
        -24    2    5    5    0    0 -0.11176463432E+03  0.12753558751E+03 -0.12001933049E+03  0.22244600705E+03  0.79504256454E+02 0.  0.
          5    1    3    3  501    0  0.23423555903E+01 -0.73251347719E+02  0.30485155935E+02  0.79515289755E+02  0.47000000000E+01 0. -1.
        -13    1    4    4    0    0  0.25192424756E+02  0.21970419947E+02  0.27121455681E+02  0.43045684755E+02  0.00000000000E+00 0.  1.
         14    1    4    4    0    0  0.15696600618E+03 -0.63181455054E+02  0.97952203075E+02  0.19551178339E+03  0.00000000000E+00 0. -1.
         -5    1    5    5    0  502 -0.72736152200E+02 -0.13073204681E+02  0.13416791195E+02  0.75256606378E+02  0.47000000000E+01 0.  1.
         11    1    6    6    0    0 -0.12166167365E+03  0.10563178135E+03 -0.92024113084E+02  0.18554803544E+03  0.00000000000E+00 0. -1.
        -12    1    6    6    0    0  0.98970393206E+01  0.21903806153E+02 -0.27995217411E+02  0.36897971613E+02  0.00000000000E+00 0.  1.
</event>
<event>
12    1  0.9873238E-001  0.2439380E+03  0.7818608E-02  0.1117460E+00
         21   -1    0    0  503  502  0.00000000000E+00  0.00000000000E+00  0.97330773354E+03  0.97330773354E+03  0.00000000000E+00 0.  1.
         21   -1    0    0  501  503 -0.00000000000E+00 -0.00000000000E+00 -0.70204246198E+02  0.70204246198E+02  0.00000000000E+00 0.  1.
          6    2    1    2  501    0 -0.16392387866E+03  0.53930936113E+02  0.26123180968E+03  0.35741827526E+03  0.17241282213E+03 0.  0.
         24    2    3    3    0    0 -0.16030084903E+02  0.53366933553E+02  0.12118499637E+03  0.15368292670E+03  0.76339016216E+02 0.  0.
         -6    2    1    2    0  502  0.16392387866E+03 -0.53930936113E+02  0.64187167766E+03  0.68609370448E+03  0.17013446705E+03 0.  0.
        -24    2    5    5    0    0  0.74851871791E+02 -0.46204989617E+02  0.18263218184E+03  0.21820855065E+03  0.80763568240E+02 0.  0.
          5    1    3    3  501    0 -0.14789379376E+03  0.56400256063E+00  0.14004681332E+03  0.20373534856E+03  0.47000000000E+01 0. -1.
        -13    1    4    4    0    0 -0.39561936264E+02  0.25866878886E+02  0.10267004644E+03  0.11302822949E+03  0.00000000000E+00 0.  1.
         14    1    4    4    0    0  0.23531851361E+02  0.27500054666E+02  0.18514949925E+02  0.40654697218E+02  0.00000000000E+00 0. -1.
         -5    1    5    5    0  502  0.89072006872E+02 -0.77259464961E+01  0.45923949581E+03  0.46788515383E+03  0.47000000000E+01 0.  1.
         11    1    6    6    0    0  0.70380019809E+02  0.54584467462E+00  0.12875028128E+03  0.14673200082E+03  0.00000000000E+00 0. -1.
        -12    1    6    6    0    0  0.44718519822E+01 -0.46750834292E+02  0.53881900565E+02  0.71476549831E+02  0.00000000000E+00 0.  1.
</event>
<event>
12    1  0.9873238E-001  0.2003777E+03  0.7818608E-02  0.1149545E+00
         21   -1    0    0  503  502  0.00000000000E+00  0.00000000000E+00  0.26684932036E+02  0.26684932036E+02  0.00000000000E+00 0.  1.
         21   -1    0    0  501  503 -0.00000000000E+00 -0.00000000000E+00 -0.15230114103E+04  0.15230114103E+04  0.00000000000E+00 0.  1.
          6    2    1    2  501    0 -0.60044969550E+02 -0.82526783321E+02 -0.65443866605E+03  0.68442764954E+03  0.17243889208E+03 0.  0.
         24    2    3    3    0    0  0.12771883331E+02 -0.68970730910E+02 -0.22228967174E+03  0.24595199012E+03  0.78483122744E+02 0.  0.
         -6    2    1    2    0  502  0.60044969550E+02  0.82526783321E+02 -0.84188781224E+03  0.86526869282E+03  0.17175201322E+03 0.  0.
        -24    2    5    5    0    0 -0.18272545158E+02  0.80131343907E+02 -0.38064370803E+03  0.39739308445E+03  0.79225708731E+02 0.  0.
          5    1    3    3  501    0 -0.72816852882E+02 -0.13556052411E+02 -0.43214899431E+03  0.43847565942E+03  0.47000000000E+01 0. -1.
        -11    1    4    4    0    0 -0.17543361068E+02  0.22057542544E+01 -0.97773543304E+02  0.99359451687E+02  0.00000000000E+00 0.  1.
         12    1    4    4    0    0  0.30315244400E+02 -0.71176485164E+02 -0.12451612843E+03  0.14659253843E+03  0.00000000000E+00 0. -1.
         -5    1    5    5    0  502  0.78317514708E+02  0.23954394139E+01 -0.46124410421E+03  0.46787560837E+03  0.47000000000E+01 0.  1.
         11    1    6    6    0    0  0.18520814203E+02  0.21642019364E+01 -0.23543453578E+02  0.30033290448E+02  0.00000000000E+00 0. -1.
        -12    1    6    6    0    0 -0.36793359361E+02  0.77967141970E+02 -0.35710025445E+03  0.36735979401E+03  0.00000000000E+00 0.  1.
</event>
<event>
12    1  0.9873238E-001  0.1780038E+03  0.7818608E-02  0.1169939E+00
         21   -1    0    0  503  502  0.00000000000E+00  0.00000000000E+00  0.41744859833E+02  0.41744859833E+02  0.00000000000E+00 0. -1.
         21   -1    0    0  501  503 -0.00000000000E+00 -0.00000000000E+00 -0.81864293396E+03  0.81864293396E+03  0.00000000000E+00 0. -1.
          6    2    1    2  501    0 -0.10366870284E+01  0.45614382465E+02 -0.26997114857E+03  0.32337248132E+03  0.17205694989E+03 0.  0.
         24    2    3    3    0    0  0.34057876101E+02 -0.30891861302E+02 -0.16588206947E+03  0.18942674573E+03  0.79065700554E+02 0.  0.
         -6    2    1    2    0  502  0.10366870284E+01 -0.45614382465E+02 -0.50692692556E+03  0.53701531248E+03  0.17125650752E+03 0.  0.
        -24    2    5    5    0    0  0.55634826326E+00 -0.78511326079E+02 -0.48291383336E+03  0.49601338299E+03  0.81603724233E+02 0.  0.
          5    1    3    3  501    0 -0.35094563130E+02  0.76506243767E+02 -0.10408907909E+03  0.13394573559E+03  0.47000000000E+01 0. -1.
        -11    1    4    4    0    0 -0.18518646354E+02 -0.25563888735E+02 -0.10059895397E+03  0.10543529869E+03  0.00000000000E+00 0.  1.
         12    1    4    4    0    0  0.52576522455E+02 -0.53279725666E+01 -0.65283115500E+02  0.83991447032E+02  0.00000000000E+00 0. -1.
         -5    1    5    5    0  502  0.48033876519E+00  0.32896943614E+02 -0.24013092196E+02  0.41001929483E+02  0.47000000000E+01 0.  1.
         13    1    6    6    0    0 -0.12691701665E+02 -0.53162044022E+02 -0.11870805419E+03  0.13068620564E+03  0.00000000000E+00 0. -1.
        -14    1    6    6    0    0  0.13248049928E+02 -0.25349282057E+02 -0.36420577917E+03  0.36532717735E+03  0.00000000000E+00 0.  1.
</event>
<event>
12    1  0.9873238E-001  0.2307764E+03  0.7818608E-02  0.1126120E+00
         21   -1    0    0  503  502  0.00000000000E+00  0.00000000000E+00  0.18401954729E+03  0.18401954729E+03  0.00000000000E+00 0. -1.
         21   -1    0    0  501  503 -0.00000000000E+00 -0.00000000000E+00 -0.45977464941E+03  0.45977464941E+03  0.00000000000E+00 0.  1.
          6    2    1    2  501    0 -0.60149367085E+02 -0.14115162211E+03  0.58198349433E+02  0.23785988531E+03  0.17218754421E+03 0.  0.
         24    2    3    3    0    0 -0.10528237936E+03 -0.87034786768E+02  0.13918734530E+02  0.15450285226E+03  0.70837607755E+02 0.  0.
         -6    2    1    2    0  502  0.60149367085E+02  0.14115162211E+03 -0.33395345156E+03  0.40593431139E+03  0.17238338252E+03 0.  0.
        -24    2    5    5    0    0  0.45862965870E+02  0.81041603686E+02 -0.78247040574E+02  0.14282753802E+03  0.74872912936E+02 0.  0.
          5    1    3    3  501    0  0.45133012276E+02 -0.54116835341E+02  0.44279614902E+02  0.83357033059E+02  0.47000000000E+01 0. -1.
        -13    1    4    4    0    0  0.74512749257E+01 -0.13434018180E+02 -0.91903596372E+01  0.17901314274E+02  0.00000000000E+00 0.  1.
         14    1    4    4    0    0 -0.11273365429E+03 -0.73600768588E+02  0.23109094168E+02  0.13660153798E+03  0.00000000000E+00 0. -1.
         -5    1    5    5    0  502  0.14286401214E+02  0.60110018424E+02 -0.25570641098E+03  0.26310677337E+03  0.47000000000E+01 0.  1.
         11    1    6    6    0    0  0.26405913426E+02  0.36884543041E+02 -0.82746117361E+02  0.94364515140E+02  0.00000000000E+00 0. -1.
        -12    1    6    6    0    0  0.19457052445E+02  0.44157060645E+02  0.44990767874E+01  0.48463022879E+02  0.00000000000E+00 0.  1.
</event>
<event>
12    1  0.9873238E-001  0.2086216E+03  0.7818608E-02  0.1142843E+00
         21   -1    0    0  503  502  0.00000000000E+00  0.00000000000E+00  0.53983867019E+02  0.53983867019E+02  0.00000000000E+00 0.  1.
         21   -1    0    0  501  503 -0.00000000000E+00 -0.00000000000E+00 -0.81595727575E+03  0.81595727575E+03  0.00000000000E+00 0.  1.
          6    2    1    2  501    0  0.97368315748E+02 -0.66396022392E+02 -0.32643023937E+03  0.38740119718E+03  0.17214518785E+03 0.  0.
         24    2    3    3    0    0  0.13044400553E+03 -0.36756400922E+02 -0.28907909967E+03  0.32918001502E+03  0.80162864425E+02 0.  0.
         -6    2    1    2    0  502 -0.97368315748E+02  0.66396022392E+02 -0.43554316937E+03  0.48253994559E+03  0.17104948410E+03 0.  0.
        -24    2    5    5    0    0 -0.20769997140E+02 -0.25730835906E+02 -0.20354479463E+03  0.22138865550E+03  0.80554234332E+02 0.  0.
          5    1    3    3  501    0 -0.33075689784E+02 -0.29639621470E+02 -0.37351139700E+02  0.58221182163E+02  0.47000000000E+01 0. -1.
        -11    1    4    4    0    0  0.33729120480E+02  0.24530318704E+02 -0.59875606116E+02  0.72969022961E+02  0.00000000000E+00 0.  1.
         12    1    4    4    0    0  0.96714885052E+02 -0.61286719626E+02 -0.22920349355E+03  0.25621099206E+03  0.00000000000E+00 0. -1.
         -5    1    5    5    0  502 -0.76598318608E+02  0.92126858297E+02 -0.23199837474E+03  0.26115129009E+03  0.47000000000E+01 0.  1.
         11    1    6    6    0    0 -0.30835509463E+02  0.17337991890E+02 -0.13694330005E+03  0.14143868649E+03  0.00000000000E+00 0. -1.
        -12    1    6    6    0    0  0.10065512322E+02 -0.43068827796E+02 -0.66601494578E+02  0.79949969018E+02  0.00000000000E+00 0.  1.
</event>
<event>
12    1  0.1215700E+000  0.2932894E+03  0.7818608E-02  0.1088737E+00
         21   -1    0    0  503  502  0.00000000000E+00  0.00000000000E+00  0.12574179451E+04  0.12574179451E+04  0.00000000000E+00 0. -1.
         21   -1    0    0  501  503 -0.00000000000E+00 -0.00000000000E+00 -0.14580332704E+03  0.14580332704E+03  0.00000000000E+00 0. -1.
          6    2    1    2  501    0  0.23729483634E+03  0.11816210855E+02  0.10672144770E+04  0.11065901038E+04  0.17072333072E+03 0.  0.
         24    2    3    3    0    0  0.25114993179E+03 -0.15475614871E+02  0.94232785450E+03  0.97792166980E+03  0.70945218330E+02 0.  0.
         -6    2    1    2    0  502 -0.23729483634E+03 -0.11816210855E+02  0.44400140965E+02  0.29663116828E+03  0.17195992348E+03 0.  0.
        -24    2    5    5    0    0 -0.10367808464E+03 -0.55134758607E+01 -0.41061737385E+02  0.13782630861E+03  0.80811394104E+02 0.  0.
          5    1    3    3  501    0 -0.13855095444E+02  0.27291825726E+02  0.12488662254E+03  0.12866843401E+03  0.47000000000E+01 0. -1.
        -11    1    4    4    0    0  0.19551097976E+03  0.60358142424E+01  0.62011566776E+03  0.65023412373E+03  0.00000000000E+00 0.  1.
         12    1    4    4    0    0  0.55638952021E+02 -0.21511429113E+02  0.32221218674E+03  0.32768754607E+03  0.00000000000E+00 0. -1.
         -5    1    5    5    0  502 -0.13361675170E+03 -0.63027349944E+01  0.85461878350E+02  0.15880485967E+03  0.47000000000E+01 0.  1.
         11    1    6    6    0    0 -0.17106561772E+02  0.32565177067E+02 -0.80574426820E+01  0.37656972736E+02  0.00000000000E+00 0. -1.
        -12    1    6    6    0    0 -0.86571522868E+02 -0.38078652927E+02 -0.33004294703E+02  0.10016933587E+03  0.00000000000E+00 0.  1.
</event>
<event>
12    1  0.9873238E-001  0.1810401E+03  0.7818608E-02  0.1168506E+00
         21   -1    0    0  503  502  0.00000000000E+00  0.00000000000E+00  0.13707739293E+03  0.13707739293E+03  0.00000000000E+00 0. -1.
         21   -1    0    0  501  503 -0.00000000000E+00 -0.00000000000E+00 -0.28048282124E+03  0.28048282124E+03  0.00000000000E+00 0. -1.
          6    2    1    2  501    0 -0.16727018120E+02 -0.29679330491E+02  0.15701616461E+02  0.18171975995E+03  0.17780572151E+03 0.  0.
         24    2    3    3    0    0  0.24261084042E+02 -0.42105378125E+02 -0.51815008247E+02  0.10162596624E+03  0.72674471915E+02 0.  0.
         -6    2    1    2    0  502  0.16727018120E+02  0.29679330491E+02 -0.15910704477E+03  0.23584045422E+03  0.17071910366E+03 0.  0.
        -24    2    5    5    0    0  0.68118074825E+02 -0.32153237066E+01 -0.13047119914E+03  0.16827418572E+03  0.81504952916E+02 0.  0.
          5    1    3    3  501    0 -0.40988102163E+02  0.12426047634E+02  0.67516624707E+02  0.80093793708E+02  0.47000000000E+01 0. -1.
        -11    1    4    4    0    0  0.28398533157E+02 -0.61295819461E+02 -0.36934931153E+02  0.76992488648E+02  0.00000000000E+00 0.  1.
         12    1    4    4    0    0 -0.41374491143E+01  0.19190441336E+02 -0.14880077094E+02  0.24633477590E+02  0.00000000000E+00 0. -1.
         -5    1    5    5    0  502 -0.51391056705E+02  0.32894654198E+02 -0.28635845635E+02  0.67566268502E+02  0.47000000000E+01 0.  1.
         13    1    6    6    0    0  0.46619714533E+01  0.20509747962E+02 -0.82817151462E+02  0.85446265662E+02  0.00000000000E+00 0. -1.
        -14    1    6    6    0    0  0.63456103372E+02 -0.23725071669E+02 -0.47654047678E+02  0.82827920057E+02  0.00000000000E+00 0.  1.
</event>
<event>
12    1  0.9873238E-001  0.1843796E+03  0.7818608E-02  0.1163649E+00
         21   -1    0    0  501  502  0.00000000000E+00  0.00000000000E+00  0.29435664636E+03  0.29435664636E+03  0.00000000000E+00 0.  1.
         21   -1    0    0  502  503 -0.00000000000E+00 -0.00000000000E+00 -0.19105518529E+03  0.19105518529E+03  0.00000000000E+00 0.  1.
         -6    2    1    2    0  503  0.47292987137E+02 -0.44135211832E+02  0.20434357537E+03  0.27523104923E+03  0.17265946285E+03 0.  0.
        -24    2    3    3    0    0  0.32186971978E+02  0.18793170784E+02  0.18889542183E+03  0.20853091070E+03  0.80090423250E+02 0.  0.
          6    2    1    2  501    0 -0.47292987137E+02  0.44135211832E+02 -0.10104211430E+03  0.21018078241E+03  0.17257435753E+03 0.  0.
         24    2    5    5    0    0 -0.18423974542E+02  0.97378104472E+02 -0.63464313525E+02  0.13874965043E+03  0.73496995421E+02 0.  0.
          5    1    5    5  501    0 -0.28869012595E+02 -0.53242892640E+02 -0.37577800770E+02  0.71431131978E+02  0.47000000000E+01 0. -1.
        -13    1    6    6    0    0  0.13332072501E+02  0.49450156230E+02 -0.63081273017E+02  0.81254594416E+02  0.00000000000E+00 0.  1.
         14    1    6    6    0    0 -0.31756047043E+02  0.47927948243E+02 -0.38304050875E+00  0.57495056018E+02  0.00000000000E+00 0. -1.
         -5    1    3    3    0  503  0.15106015159E+02 -0.62928382616E+02  0.15448153542E+02  0.66700138534E+02  0.47000000000E+01 0.  1.
         11    1    4    4    0    0 -0.79902290968E+01  0.30693083544E+01 -0.49868282818E+01  0.99062036677E+01  0.00000000000E+00 0. -1.
        -12    1    4    4    0    0  0.40177201074E+02  0.15723862429E+02  0.19388225011E+03  0.19862470703E+03  0.00000000000E+00 0.  1.
</event>
<event>
12    1  0.9873238E-001  0.3000153E+03  0.7818608E-02  0.1085376E+00
         21   -1    0    0  503  502  0.00000000000E+00  0.00000000000E+00  0.77638656080E+03  0.77638656080E+03  0.00000000000E+00 0. -1.
         21   -1    0    0  501  503 -0.00000000000E+00 -0.00000000000E+00 -0.18464802744E+03  0.18464802744E+03  0.00000000000E+00 0. -1.
          6    2    1    2  501    0  0.18698347454E+03 -0.15708642629E+03  0.59028916529E+03  0.66215592184E+03  0.17427048257E+03 0.  0.
         24    2    3    3    0    0  0.16128429824E+03 -0.17558022324E+03  0.57342219261E+03  0.62597508499E+03  0.78681359883E+02 0.  0.
         -6    2    1    2    0  502 -0.18698347454E+03  0.15708642629E+03  0.14493680673E+01  0.29887866639E+03  0.17230029449E+03 0.  0.
        -24    2    5    5    0    0 -0.15124511948E+03  0.73731868733E+02 -0.50898655524E+02  0.19405682772E+03  0.82194310133E+02 0.  0.
          5    1    3    3  501    0  0.25699176304E+02  0.18493796949E+02  0.16866972680E+02  0.36180836857E+02  0.47000000000E+01 0. -1.
        -11    1    4    4    0    0  0.47192419671E+02 -0.80093792034E+01  0.12526829471E+03  0.13410227548E+03  0.00000000000E+00 0.  1.
         12    1    4    4    0    0  0.11409187856E+03 -0.16757084404E+03  0.44815389790E+03  0.49187280950E+03  0.00000000000E+00 0. -1.
         -5    1    5    5    0  502 -0.35738355058E+02  0.83354557559E+02  0.52348023591E+02  0.10482183867E+03  0.47000000000E+01 0.  1.
         13    1    6    6    0    0 -0.37840908570E+01  0.29997727746E+02  0.45125349296E+01  0.30570344862E+02  0.00000000000E+00 0. -1.
        -14    1    6    6    0    0 -0.14746102862E+03  0.43734140988E+02 -0.55411190454E+02  0.16348648286E+03  0.00000000000E+00 0.  1.
</event>
<event>
12    1  0.9873238E-001  0.1911509E+03  0.7818608E-02  0.1157611E+00
         21   -1    0    0  501  502  0.00000000000E+00  0.00000000000E+00  0.27148441305E+03  0.27148441305E+03  0.00000000000E+00 0.  1.
         21   -1    0    0  502  503 -0.00000000000E+00 -0.00000000000E+00 -0.13402531395E+03  0.13402531395E+03  0.00000000000E+00 0.  1.
         -6    2    1    2    0  503  0.83933064484E+02 -0.11660838311E+02  0.70969861160E+02  0.20390042993E+03  0.17134155850E+03 0.  0.
        -24    2    3    3    0    0  0.10717500768E+03  0.28972200842E+02  0.28746992794E+02  0.14068577651E+03  0.81487590609E+02 0.  0.
          6    2    1    2  501    0 -0.83933064484E+02  0.11660838311E+02  0.66489237943E+02  0.20160929707E+03  0.17042521950E+03 0.  0.
         24    2    5    5    0    0 -0.51026214195E+02 -0.99394403149E+01  0.10787829756E+03  0.14429806703E+03  0.80509242050E+02 0.  0.
          5    1    5    5  501    0 -0.32906850289E+02  0.21600278625E+02 -0.41389059619E+02  0.57311230040E+02  0.47000000000E+01 0. -1.
        -13    1    6    6    0    0  0.85976611331E+01  0.24707561898E+02  0.22164574851E+02  0.34287778730E+02  0.00000000000E+00 0.  1.
         14    1    6    6    0    0 -0.59623875328E+02 -0.34647002213E+02  0.85713722711E+02  0.11001028830E+03  0.00000000000E+00 0. -1.
         -5    1    3    3    0  503 -0.23241943197E+02 -0.40633039153E+02  0.42222868366E+02  0.63214653423E+02  0.47000000000E+01 0.  1.
         11    1    4    4    0    0  0.77877757016E+02 -0.12049497464E+02  0.40966304064E+02  0.88816515894E+02  0.00000000000E+00 0. -1.
        -12    1    4    4    0    0  0.29297250665E+02  0.41021698306E+02 -0.12219311271E+02  0.51869260611E+02  0.00000000000E+00 0.  1.
</event>
<event>
12    1  0.9873238E-001  0.1827633E+03  0.7818608E-02  0.1165524E+00
         21   -1    0    0  501  502  0.00000000000E+00  0.00000000000E+00  0.83796732849E+03  0.83796732849E+03  0.00000000000E+00 0.  1.
         21   -1    0    0  502  503 -0.00000000000E+00 -0.00000000000E+00 -0.45807604504E+02  0.45807604504E+02  0.00000000000E+00 0.  1.
         -6    2    1    2    0  503 -0.85067868019E+01 -0.61740286527E+02  0.23096890025E+03  0.29357365332E+03  0.17016059660E+03 0.  0.
        -24    2    3    3    0    0 -0.51803105224E+02 -0.84519316255E+02  0.13382159939E+03  0.18470151065E+03  0.79870839741E+02 0.  0.
          6    2    1    2  501    0  0.85067868019E+01  0.61740286527E+02  0.56119082373E+03  0.59020127968E+03  0.17180856058E+03 0.  0.
         24    2    5    5    0    0 -0.31390480770E+02  0.95032523507E+02  0.44637958101E+03  0.46409070732E+03  0.78159525833E+02 0.  0.
          5    1    5    5  501    0  0.39897267572E+02 -0.33292236979E+02  0.11481124272E+03  0.12611057235E+03  0.47000000000E+01 0. -1.
        -13    1    6    6    0    0 -0.21706390178E+02  0.21551329261E+02  0.28344716109E+03  0.28509282751E+03  0.00000000000E+00 0.  1.
         14    1    6    6    0    0 -0.96840905928E+01  0.73481194246E+02  0.16293241992E+03  0.17899787982E+03  0.00000000000E+00 0. -1.
         -5    1    3    3    0  503  0.43296318423E+02  0.22779029728E+02  0.97147300864E+02  0.10887214267E+03  0.47000000000E+01 0.  1.
         11    1    4    4    0    0  0.63206465506E+01 -0.29737408690E+02  0.86906779886E+02  0.92070909839E+02  0.00000000000E+00 0. -1.
        -12    1    4    4    0    0 -0.58123751775E+02 -0.54781907565E+02  0.46914819502E+02  0.92630600807E+02  0.00000000000E+00 0.  1.
</event>
<event>
12    1  0.9873238E-001  0.1911306E+03  0.7818608E-02  0.1160658E+00
         21   -1    0    0  503  502  0.00000000000E+00  0.00000000000E+00  0.66992292690E+03  0.66992292690E+03  0.00000000000E+00 0.  1.
         21   -1    0    0  501  503 -0.00000000000E+00 -0.00000000000E+00 -0.78499651412E+02  0.78499651412E+02  0.00000000000E+00 0.  1.
          6    2    1    2  501    0 -0.46608464902E+02  0.73297511847E+01  0.52558241770E+03  0.55925646374E+03  0.18521565860E+03 0.  0.
         24    2    3    3    0    0  0.45607925813E+02  0.22297769250E+02  0.24365299712E+03  0.26221405520E+03  0.82535776075E+02 0.  0.
         -6    2    1    2    0  502  0.46608464902E+02 -0.73297511847E+01  0.65840857792E+02  0.18916611457E+03  0.17094655918E+03 0.  0.
        -24    2    5    5    0    0  0.75559757688E+02 -0.13806321125E+02  0.95660244625E+02  0.14684107301E+03  0.80694032216E+02 0.  0.
          5    1    3    3  501    0 -0.92216390715E+02 -0.14968018065E+02  0.28192942058E+03  0.29704240854E+03  0.47000000000E+01 0. -1.
        -11    1    4    4    0    0 -0.52719856410E+01  0.38327389350E+02  0.63773466549E+02  0.74591136488E+02  0.00000000000E+00 0.  1.
         12    1    4    4    0    0  0.50879911454E+02 -0.16029620100E+02  0.17987953057E+03  0.18762291871E+03  0.00000000000E+00 0. -1.
         -5    1    5    5    0  502 -0.28951292786E+02  0.64765699399E+01 -0.29819386834E+02  0.42325041563E+02  0.47000000000E+01 0.  1.
         13    1    6    6    0    0  0.51861258059E+02  0.56881287403E+01  0.65337233272E+01  0.52579791142E+02  0.00000000000E+00 0. -1.
        -14    1    6    6    0    0  0.23698499629E+02 -0.19494449865E+02  0.89126521298E+02  0.94261281866E+02  0.00000000000E+00 0.  1.
</event>
<event>
12    1  0.9873238E-001  0.1984937E+03  0.7818608E-02  0.1151711E+00
         21   -1    0    0  503  502  0.00000000000E+00  0.00000000000E+00  0.32946755400E+03  0.32946755400E+03  0.00000000000E+00 0.  1.
         21   -1    0    0  501  503 -0.00000000000E+00 -0.00000000000E+00 -0.22024049742E+03  0.22024049742E+03  0.00000000000E+00 0.  1.
          6    2    1    2  501    0 -0.84639084724E+02  0.43781454881E+02  0.24244107703E+03  0.31333278308E+03  0.17412399798E+03 0.  0.
         24    2    3    3    0    0 -0.12266213714E+03  0.58134760710E+02  0.20392746639E+03  0.25714418898E+03  0.78173346407E+02 0.  0.
         -6    2    1    2    0  502  0.84639084724E+02 -0.43781454881E+02 -0.13321402044E+03  0.23637526833E+03  0.17043092966E+03 0.  0.
        -24    2    5    5    0    0 -0.45939774982E+01 -0.13823752371E+02 -0.88066883300E+01  0.80300678423E+02  0.78475731516E+02 0.  0.
          5    1    3    3  501    0  0.38023052415E+02 -0.14353305829E+02  0.38513610636E+02  0.56188594104E+02  0.47000000000E+01 0. -1.
        -11    1    4    4    0    0 -0.55812133693E+02  0.67555216283E+02  0.13255623812E+03  0.15890203831E+03  0.00000000000E+00 0.  1.
         12    1    4    4    0    0 -0.66850003445E+02 -0.94204555734E+01  0.71371228272E+02  0.98242150673E+02  0.00000000000E+00 0. -1.
         -5    1    5    5    0  502  0.89233062222E+02 -0.29957702510E+02 -0.12440733211E+03  0.15607458991E+03  0.47000000000E+01 0.  1.
         11    1    6    6    0    0  0.36519373181E+02 -0.12714401882E+02 -0.34012490459E+01  0.38818669836E+02  0.00000000000E+00 0. -1.
        -12    1    6    6    0    0 -0.41113350679E+02 -0.11093504888E+01 -0.54054392841E+01  0.41482008587E+02  0.00000000000E+00 0.  1.
</event>
<event>
12    1  0.9873238E-001  0.2491428E+03  0.7818608E-02  0.1114319E+00
         21   -1    0    0  503  502  0.00000000000E+00  0.00000000000E+00  0.84898688660E+02  0.84898688660E+02  0.00000000000E+00 0.  1.
         21   -1    0    0  501  503 -0.00000000000E+00 -0.00000000000E+00 -0.10168312430E+04  0.10168312430E+04  0.00000000000E+00 0.  1.
          6    2    1    2  501    0 -0.17080578509E+03  0.48894613969E+02 -0.17156750770E+03  0.30250218055E+03  0.17466213110E+03 0.  0.
         24    2    3    3    0    0 -0.32270012731E+02  0.52432146466E+02 -0.32026146461E+02  0.10578269535E+03  0.79836212792E+02 0.  0.
         -6    2    1    2    0  502  0.17080578509E+03 -0.48894613969E+02 -0.76036504660E+03  0.79922775108E+03  0.17042504071E+03 0.  0.
        -24    2    5    5    0    0  0.65934708881E+02  0.26830526985E+02 -0.46001303100E+03  0.47217169644E+03  0.79163496733E+02 0.  0.
          5    1    3    3  501    0 -0.13853577236E+03 -0.35375324963E+01 -0.13954136124E+03  0.19671948520E+03  0.47000000000E+01 0. -1.
        -11    1    4    4    0    0 -0.39985710182E+02  0.54280674633E+01  0.10751798026E+02  0.41760293294E+02  0.00000000000E+00 0.  1.
         12    1    4    4    0    0  0.77156974513E+01  0.47004079002E+02 -0.42777944488E+02  0.64022402053E+02  0.00000000000E+00 0. -1.
         -5    1    5    5    0  502  0.10487107621E+03 -0.75725140955E+02 -0.30035201561E+03  0.32705605464E+03  0.47000000000E+01 0.  1.
         11    1    6    6    0    0  0.78392094737E+02  0.21808817323E+01 -0.32090552370E+03  0.33034895475E+03  0.00000000000E+00 0. -1.
        -12    1    6    6    0    0 -0.12457385855E+02  0.24649645253E+02 -0.13910750729E+03  0.14182274169E+03  0.00000000000E+00 0.  1.
</event>
<event>
12    1  0.9873238E-001  0.2541394E+03  0.7818608E-02  0.1110765E+00
         21   -1    0    0  501  502  0.00000000000E+00  0.00000000000E+00  0.14101560305E+04  0.14101560305E+04  0.00000000000E+00 0. -1.
         21   -1    0    0  502  503 -0.00000000000E+00 -0.00000000000E+00 -0.77614137678E+02  0.77614137678E+02  0.00000000000E+00 0.  1.
         -6    2    1    2    0  503 -0.14660833739E+03  0.11595338212E+03  0.18983770618E+03  0.31721475275E+03  0.17218493910E+03 0.  0.
        -24    2    3    3    0    0 -0.13719476016E+03  0.14926975182E+03  0.17556474243E+03  0.27947348329E+03  0.78603995129E+02 0.  0.
          6    2    1    2  501    0  0.14660833739E+03 -0.11595338212E+03  0.11427041866E+04  0.11705554154E+04  0.17172050257E+03 0.  0.
         24    2    5    5    0    0  0.32580986695E+02 -0.41412392842E+02  0.25060610566E+03  0.26810338242E+03  0.79369367495E+02 0.  0.
          5    1    5    5  501    0  0.11402735070E+03 -0.74540989281E+02  0.89209808098E+03  0.90245203301E+03  0.47000000000E+01 0. -1.
        -11    1    6    6    0    0 -0.15656774938E+02  0.12569838513E+02  0.31572951107E+02  0.37416395915E+02  0.00000000000E+00 0.  1.
         12    1    6    6    0    0  0.48237761633E+02 -0.53982231355E+02  0.21903315455E+03  0.23068698650E+03  0.00000000000E+00 0. -1.
         -5    1    3    3    0  503 -0.94135772366E+01 -0.33316369701E+02  0.14272963745E+02  0.37741269461E+02  0.47000000000E+01 0.  1.
         13    1    4    4    0    0 -0.14561073555E+03  0.14986264836E+03  0.16993186717E+03  0.26932905369E+03  0.00000000000E+00 0. -1.
        -14    1    4    4    0    0  0.84159753923E+01 -0.59289653869E+00  0.56328752665E+01  0.10144429598E+02  0.00000000000E+00 0.  1.
</event>
<event>
12    1  0.9873238E-001  0.1900313E+03  0.7818608E-02  0.1158636E+00
         21   -1    0    0  501  502  0.00000000000E+00  0.00000000000E+00  0.46355973924E+03  0.46355973924E+03  0.00000000000E+00 0.  1.
         21   -1    0    0  502  503 -0.00000000000E+00 -0.00000000000E+00 -0.82970039143E+02  0.82970039143E+02  0.00000000000E+00 0.  1.
         -6    2    1    2    0  503 -0.74024404694E+02  0.32095148639E+02  0.11992040399E+03  0.22394586973E+03  0.17105887355E+03 0.  0.
        -24    2    3    3    0    0 -0.72292683607E+02 -0.11162541594E+02  0.14275688643E+02  0.10967810304E+03  0.80465250657E+02 0.  0.
          6    2    1    2  501    0  0.74024404694E+02 -0.32095148639E+02  0.26066929610E+03  0.32258390865E+03  0.17205285564E+03 0.  0.
         24    2    5    5    0    0  0.59781973129E+02 -0.24400518635E+02  0.56449373031E+02  0.11766948464E+03  0.80562437148E+02 0.  0.
          5    1    5    5  501    0  0.14242431565E+02 -0.76946300046E+01  0.20421992307E+03  0.20491442401E+03  0.47000000000E+01 0. -1.
        -11    1    6    6    0    0 -0.11814294958E+02  0.67983550795E+01 -0.85248435599E+01  0.16076944823E+02  0.00000000000E+00 0.  1.
         12    1    6    6    0    0  0.71596268087E+02 -0.31198873714E+02  0.64974216591E+02  0.10159253982E+03  0.00000000000E+00 0. -1.
         -5    1    3    3    0  503 -0.17317210867E+01  0.43257690234E+02  0.10564471535E+03  0.11426776668E+03  0.47000000000E+01 0.  1.
         13    1    4    4    0    0 -0.33048036014E+02 -0.40993151217E+02  0.26415731939E+02  0.58910118189E+02  0.00000000000E+00 0. -1.
        -14    1    4    4    0    0 -0.39244647593E+02  0.29830609623E+02 -0.12140043296E+02  0.50767984856E+02  0.00000000000E+00 0.  1.
</event>
<event>
12    1  0.9873238E-001  0.1972307E+03  0.7818608E-02  0.1152305E+00
         21   -1    0    0  503  502  0.00000000000E+00  0.00000000000E+00  0.38446960188E+03  0.38446960188E+03  0.00000000000E+00 0.  1.
         21   -1    0    0  501  503 -0.00000000000E+00 -0.00000000000E+00 -0.11592303910E+03  0.11592303910E+03  0.00000000000E+00 0.  1.
          6    2    1    2  501    0  0.73200078233E+01 -0.94053891088E+02  0.22527625954E+03  0.29941497452E+03  0.17320570693E+03 0.  0.
         24    2    3    3    0    0  0.49482518976E+02 -0.66298596358E+02  0.54668599043E+02  0.12143436448E+03  0.70097258086E+02 0.  0.
         -6    2    1    2    0  502 -0.73200078233E+01  0.94053891088E+02  0.43270303245E+02  0.20097766646E+03  0.17210457963E+03 0.  0.
        -24    2    5    5    0    0 -0.30321175681E+02  0.40878305857E+02  0.86910677953E+02  0.12829156812E+03  0.79466036295E+02 0.  0.
          5    1    3    3  501    0 -0.42162511153E+02 -0.27755294730E+02  0.17060766049E+03  0.17798061004E+03  0.47000000000E+01 0. -1.
        -13    1    4    4    0    0  0.11862067635E+02 -0.50388345250E+02  0.61104418851E+02  0.80083980850E+02  0.00000000000E+00 0.  1.
         14    1    4    4    0    0  0.37620451342E+02 -0.15910251108E+02 -0.64358198082E+01  0.41350383627E+02  0.00000000000E+00 0. -1.
         -5    1    5    5    0  502  0.23001167858E+02  0.53175585231E+02 -0.43640374708E+02  0.72686098341E+02  0.47000000000E+01 0.  1.
         11    1    6    6    0    0  0.10135059778E+02 -0.16357802325E+02  0.38760787081E+01  0.19629598054E+02  0.00000000000E+00 0. -1.
        -12    1    6    6    0    0 -0.40456235459E+02  0.57236108181E+02  0.83034599244E+02  0.10866197007E+03  0.00000000000E+00 0.  1.
</event>
<event>
12    1  0.9873238E-001  0.1927649E+03  0.7818608E-02  0.1156164E+00
         21   -1    0    0  503  502  0.00000000000E+00  0.00000000000E+00  0.11091192898E+03  0.11091192898E+03  0.00000000000E+00 0. -1.
         21   -1    0    0  501  503 -0.00000000000E+00 -0.00000000000E+00 -0.36768169181E+03  0.36768169181E+03  0.00000000000E+00 0. -1.
          6    2    1    2  501    0  0.31785269905E+02 -0.79866259887E+02 -0.20092749806E+03  0.27790315925E+03  0.17166648944E+03 0.  0.
         24    2    3    3    0    0  0.50616506472E+02 -0.82456774968E+02 -0.66096856703E+02  0.14165809297E+03  0.79605718210E+02 0.  0.
         -6    2    1    2    0  502 -0.31785269905E+02  0.79866259887E+02 -0.55842264770E+02  0.20069046153E+03  0.17253805367E+03 0.  0.
        -24    2    5    5    0    0  0.37908354566E+02  0.79155375131E+02 -0.21471090144E+02  0.12283691765E+03  0.83218290472E+02 0.  0.
          5    1    3    3  501    0 -0.18831236567E+02  0.25905150809E+01 -0.13483064136E+03  0.13624506629E+03  0.47000000000E+01 0. -1.
        -11    1    4    4    0    0 -0.10470379908E+02 -0.42789607986E+02 -0.50787352444E+02  0.67230458687E+02  0.00000000000E+00 0.  1.
         12    1    4    4    0    0  0.61086886380E+02 -0.39667166982E+02 -0.15309504259E+02  0.74427634281E+02  0.00000000000E+00 0. -1.
         -5    1    5    5    0  502 -0.69693624472E+02  0.71088475627E+00 -0.34371174626E+02  0.77853543878E+02  0.47000000000E+01 0.  1.
         13    1    6    6    0    0  0.84148658837E+01 -0.44475939165E+01 -0.32162927481E+02  0.33541689934E+02  0.00000000000E+00 0. -1.
        -14    1    6    6    0    0  0.29493488683E+02  0.83602969047E+02  0.10691837337E+02  0.89295227721E+02  0.00000000000E+00 0.  1.
</event>
<event>
12    1  0.9873238E-001  0.2791161E+03  0.7818608E-02  0.1096194E+00
         21   -1    0    0  501  502  0.00000000000E+00  0.00000000000E+00  0.10871741085E+03  0.10871741085E+03  0.00000000000E+00 0. -1.
         21   -1    0    0  502  503 -0.00000000000E+00 -0.00000000000E+00 -0.74753084783E+03  0.74753084783E+03  0.00000000000E+00 0.  1.
         -6    2    1    2    0  503 -0.14789035845E+03 -0.16344593209E+03 -0.40714329265E+03  0.49363089047E+03  0.17122985849E+03 0.  0.
        -24    2    3    3    0    0 -0.14329724211E+03 -0.87346161395E+02 -0.35514719162E+03  0.40122982803E+03  0.81807063760E+02 0.  0.
          6    2    1    2  501    0  0.14789035845E+03  0.16344593209E+03 -0.23167014433E+03  0.36261736821E+03  0.17098002547E+03 0.  0.
         24    2    5    5    0    0  0.15563988584E+03  0.11198538964E+03 -0.23174163878E+03  0.31036473464E+03  0.76534827391E+02 0.  0.
          5    1    5    5  501    0 -0.77495273823E+01  0.51460542449E+02  0.71494447716E-01  0.52252633573E+02  0.47000000000E+01 0. -1.
        -13    1    6    6    0    0  0.43424609113E+01 -0.75409139733E+01 -0.30266441044E+02  0.31492535684E+02  0.00000000000E+00 0.  1.
         14    1    6    6    0    0  0.15129742492E+03  0.11952630361E+03 -0.20147519774E+03  0.27887219895E+03  0.00000000000E+00 0. -1.
         -5    1    3    3    0  503 -0.45931163411E+01 -0.76099770695E+02 -0.51996101036E+02  0.92401062443E+02  0.47000000000E+01 0.  1.
         11    1    4    4    0    0 -0.51824278225E+02 -0.23805247088E+02 -0.21379614493E+03  0.22127186263E+03  0.00000000000E+00 0. -1.
        -12    1    4    4    0    0 -0.91472963888E+02 -0.63540914307E+02 -0.14135104668E+03  0.17995796540E+03  0.00000000000E+00 0.  1.
</event>
<event>
12    1  0.9873238E-001  0.2157028E+03  0.7818608E-02  0.1137300E+00
         21   -1    0    0  501  502  0.00000000000E+00  0.00000000000E+00  0.41196721027E+03  0.41196721027E+03  0.00000000000E+00 0.  1.
         21   -1    0    0  502  503 -0.00000000000E+00 -0.00000000000E+00 -0.13094042681E+03  0.13094042681E+03  0.00000000000E+00 0. -1.
         -6    2    1    2    0  503 -0.29288242214E+02 -0.12662846544E+03  0.24271851520E+03  0.32471521236E+03  0.17214854668E+03 0.  0.
        -24    2    3    3    0    0  0.17343892115E+02 -0.13297553451E+03  0.23210564085E+03  0.27624290748E+03  0.66736886721E+02 0.  0.
          6    2    1    2  501    0  0.29288242214E+02  0.12662846544E+03  0.38308268265E+02  0.21819242472E+03  0.17102000290E+03 0.  0.
         24    2    5    5    0    0 -0.34355324192E+02  0.17188561398E+02  0.89348228475E+01  0.88144412666E+02  0.78828113523E+02 0.  0.
          5    1    5    5  501    0  0.63643566407E+02  0.10943990405E+03  0.29373445417E+02  0.13004801205E+03  0.47000000000E+01 0. -1.
        -11    1    6    6    0    0 -0.15873446542E+02  0.23933124577E+02 -0.31835753388E+02  0.42875120419E+02  0.00000000000E+00 0.  1.
         12    1    6    6    0    0 -0.18481877651E+02 -0.67445631795E+01  0.40770576236E+02  0.45269292247E+02  0.00000000000E+00 0. -1.
         -5    1    3    3    0  503 -0.46632134329E+02  0.63470690645E+01  0.10612874348E+02  0.48472304874E+02  0.47000000000E+01 0.  1.
         13    1    4    4    0    0 -0.12163504483E+02 -0.93446609104E+02  0.11179942869E+03  0.14621672904E+03  0.00000000000E+00 0. -1.
        -14    1    4    4    0    0  0.29507396599E+02 -0.39528925404E+02  0.12030621216E+03  0.13002617845E+03  0.00000000000E+00 0.  1.
</event>
<event>
12    1  0.9873238E-001  0.2497467E+03  0.7818608E-02  0.1113813E+00
         21   -1    0    0  503  502  0.00000000000E+00  0.00000000000E+00  0.20425874211E+03  0.20425874211E+03  0.00000000000E+00 0. -1.
         21   -1    0    0  501  503 -0.00000000000E+00 -0.00000000000E+00 -0.34275458734E+03  0.34275458734E+03  0.00000000000E+00 0. -1.
          6    2    1    2  501    0 -0.15379882313E+03 -0.97457951440E+02 -0.16248081183E+03  0.29611757491E+03  0.16773035999E+03 0.  0.
         24    2    3    3    0    0 -0.15926175303E+03 -0.11293863449E+03 -0.10467665525E+03  0.23584398476E+03  0.80905759116E+02 0.  0.
         -6    2    1    2    0  502  0.15379882313E+03  0.97457951440E+02  0.23984966601E+02  0.25089575454E+03  0.17094230234E+03 0.  0.
        -24    2    5    5    0    0  0.98141664044E+02  0.13060435188E+03  0.36221620115E+02  0.18480317623E+03  0.78427834531E+02 0.  0.
          5    1    3    3  501    0  0.54629298971E+01  0.15480683046E+02 -0.57804156583E+02  0.60273590145E+02  0.47000000000E+01 0. -1.
        -11    1    4    4    0    0 -0.30424985633E+02 -0.45615822064E+02  0.30439243514E+01  0.54915830585E+02  0.00000000000E+00 0.  1.
         12    1    4    4    0    0 -0.12883676740E+03 -0.67322812422E+02 -0.10772057960E+03  0.18092815418E+03  0.00000000000E+00 0. -1.
         -5    1    5    5    0  502  0.55657159086E+02 -0.33146400435E+02 -0.12236653514E+02  0.66092578317E+02  0.47000000000E+01 0.  1.
         13    1    6    6    0    0 -0.66155211141E+01 -0.40682657072E+00  0.14134619698E+02  0.15611473393E+02  0.00000000000E+00 0. -1.
        -14    1    6    6    0    0  0.10475718516E+03  0.13101117845E+03  0.22087000416E+02  0.16919170283E+03  0.00000000000E+00 0.  1.
</event>
<event>
12    1  0.9873238E-001  0.1920656E+03  0.7818608E-02  0.1156959E+00
         21   -1    0    0  501  502  0.00000000000E+00  0.00000000000E+00  0.31277292985E+03  0.31277292985E+03  0.00000000000E+00 0. -1.
         21   -1    0    0  502  503 -0.00000000000E+00 -0.00000000000E+00 -0.11703168127E+03  0.11703168127E+03  0.00000000000E+00 0. -1.
         -6    2    1    2    0  503 -0.64869634765E+02 -0.52095090475E+02  0.10238691954E+03  0.21765172338E+03  0.17311043710E+03 0.  0.
        -24    2    3    3    0    0  0.27789841276E+02 -0.54068091290E+02  0.50554100806E+02  0.11135778033E+03  0.78416862714E+02 0.  0.
          6    2    1    2  501    0  0.64869634765E+02  0.52095090475E+02  0.93354329051E+02  0.21215288774E+03  0.17138217252E+03 0.  0.
         24    2    5    5    0    0 -0.26104390705E+02 -0.42630655384E+00  0.33645664031E+02  0.91231487091E+02  0.80681674360E+02 0.  0.
          5    1    5    5  501    0  0.90974025470E+02  0.52521397029E+02  0.59708665020E+02  0.12092140065E+03  0.47000000000E+01 0. -1.
        -13    1    6    6    0    0  0.19399846634E+02 -0.11272239186E+02 -0.12363745061E+02  0.25617954985E+02  0.00000000000E+00 0.  1.
         14    1    6    6    0    0 -0.45504237339E+02  0.10845932632E+02  0.46009409091E+02  0.65613532106E+02  0.00000000000E+00 0. -1.
         -5    1    3    3    0  503 -0.92659476041E+02  0.19730008144E+01  0.51832818730E+02  0.10629394305E+03  0.47000000000E+01 0.  1.
         11    1    4    4    0    0  0.69816983313E+01 -0.56489720476E+02  0.30881202328E+00  0.56920365388E+02  0.00000000000E+00 0. -1.
        -12    1    4    4    0    0  0.20808142945E+02  0.24216291865E+01  0.50245288782E+02  0.54437414942E+02  0.00000000000E+00 0.  1.
</event>
<event>
12    1  0.9873238E-001  0.3879398E+03  0.7818608E-02  0.1048049E+00
         21   -1    0    0  501  502  0.00000000000E+00  0.00000000000E+00  0.10706040924E+04  0.10706040924E+04  0.00000000000E+00 0. -1.
         21   -1    0    0  502  503 -0.00000000000E+00 -0.00000000000E+00 -0.18343574006E+03  0.18343574006E+03  0.00000000000E+00 0. -1.
         -6    2    1    2    0  503 -0.29952342962E+03 -0.17663127466E+03  0.14037757222E+03  0.41255679989E+03  0.17200104149E+03 0.  0.
        -24    2    3    3    0    0 -0.12942756666E+03 -0.92011310842E+02  0.21847526850E+01  0.17758342641E+03  0.79457685955E+02 0.  0.
          6    2    1    2  501    0  0.29952342962E+03  0.17663127466E+03  0.74679078012E+03  0.84148303256E+03  0.17171002516E+03 0.  0.
         24    2    5    5    0    0  0.24260057036E+03  0.94749814668E+02  0.64079192821E+03  0.69587179672E+03  0.76096636534E+02 0.  0.
          5    1    5    5  501    0  0.56922859260E+02  0.81881459997E+02  0.10599885190E+03  0.14561123584E+03  0.47000000000E+01 0. -1.
        -13    1    6    6    0    0  0.10769547813E+03  0.79707491670E+02  0.28047118049E+03  0.31083063446E+03  0.00000000000E+00 0.  1.
         14    1    6    6    0    0  0.13490509223E+03  0.15042322998E+02  0.36032074773E+03  0.38504116226E+03  0.00000000000E+00 0. -1.
         -5    1    3    3    0  503 -0.17009586296E+03 -0.84619963822E+02  0.13819281953E+03  0.23497337348E+03  0.47000000000E+01 0.  1.
         11    1    4    4    0    0 -0.11718005745E+03 -0.56417657830E+02 -0.23301327177E+02  0.13212520511E+03  0.00000000000E+00 0. -1.
        -12    1    4    4    0    0 -0.12247509211E+02 -0.35593653013E+02  0.25486079862E+02  0.45458221296E+02  0.00000000000E+00 0.  1.
</event>
<event>
12    1  0.9873238E-001  0.2134982E+03  0.7818608E-02  0.1139784E+00
         21   -1    0    0  501  502  0.00000000000E+00  0.00000000000E+00  0.11670806136E+04  0.11670806136E+04  0.00000000000E+00 0.  1.
         21   -1    0    0  502  503 -0.00000000000E+00 -0.00000000000E+00 -0.45784880473E+02  0.45784880473E+02  0.00000000000E+00 0.  1.
         -6    2    1    2    0  503  0.82722267635E+02  0.87776367259E+02  0.80258957600E+03  0.82925750933E+03  0.17020671274E+03 0.  0.
        -24    2    3    3    0    0  0.79811978689E+02  0.47351513332E+01  0.30707876210E+03  0.32680614848E+03  0.78182600061E+02 0.  0.
          6    2    1    2  501    0 -0.82722267635E+02 -0.87776367259E+02  0.31870615716E+03  0.38360798478E+03  0.17616414834E+03 0.  0.
         24    2    5    5    0    0 -0.52121579401E+02 -0.12996914035E+03  0.23169858233E+03  0.28207454053E+03  0.79203389334E+02 0.  0.
          5    1    5    5  501    0 -0.30600688233E+02  0.42192773093E+02  0.87007574834E+02  0.10153344424E+03  0.47000000000E+01 0. -1.
        -11    1    6    6    0    0 -0.55231320131E+02 -0.37232241933E+02  0.78335604599E+02  0.10282609353E+03  0.00000000000E+00 0.  1.
         12    1    6    6    0    0  0.31097407295E+01 -0.92736898418E+02  0.15336297773E+03  0.17924844700E+03  0.00000000000E+00 0. -1.
         -5    1    3    3    0  503  0.29102889451E+01  0.83041215926E+02  0.49551081390E+03  0.50245136085E+03  0.47000000000E+01 0.  1.
         11    1    4    4    0    0  0.15666493039E+02  0.23745536190E+02  0.28357049276E+02  0.40167296856E+02  0.00000000000E+00 0. -1.
        -12    1    4    4    0    0  0.64145485651E+02 -0.19010384857E+02  0.27872171283E+03  0.28663885163E+03  0.00000000000E+00 0.  1.
</event>
<event>
12    1  0.9873238E-001  0.2120531E+03  0.7818608E-02  0.1140855E+00
         21   -1    0    0  501  502  0.00000000000E+00  0.00000000000E+00  0.16023556589E+03  0.16023556589E+03  0.00000000000E+00 0.  1.
         21   -1    0    0  502  503 -0.00000000000E+00 -0.00000000000E+00 -0.27462774276E+03  0.27462774276E+03  0.00000000000E+00 0.  1.
         -6    2    1    2    0  503 -0.11363980128E+03  0.12732488864E+02 -0.58426291408E+02  0.21554911918E+03  0.17312328135E+03 0.  0.
        -24    2    3    3    0    0 -0.11538396579E+03 -0.39519412597E+02 -0.90867381179E+01  0.14350895792E+03  0.75080015052E+02 0.  0.
          6    2    1    2  501    0  0.11363980128E+03 -0.12732488864E+02 -0.55965885459E+02  0.21931418947E+03  0.17857886957E+03 0.  0.
         24    2    5    5    0    0 -0.93531898419E+01  0.24504375561E+02 -0.18287752750E+02  0.85315713274E+02  0.79097297356E+02 0.  0.
          5    1    5    5  501    0  0.12299299112E+03 -0.37236864426E+02 -0.37678132709E+02  0.13399847619E+03  0.47000000000E+01 0. -1.
        -11    1    6    6    0    0  0.14550280871E+02  0.34495127282E+02  0.17344354113E+02  0.41260769494E+02  0.00000000000E+00 0.  1.
         12    1    6    6    0    0 -0.23903470713E+02 -0.99907517208E+01 -0.35632106862E+02  0.44054943780E+02  0.00000000000E+00 0. -1.
         -5    1    3    3    0  503  0.17441645062E+01  0.52251901461E+02 -0.49339553291E+02  0.72040161265E+02  0.47000000000E+01 0.  1.
         11    1    4    4    0    0 -0.11377668320E+03 -0.13608228218E+02  0.35355074359E+01  0.11464212719E+03  0.00000000000E+00 0. -1.
        -12    1    4    4    0    0 -0.16072825900E+01 -0.25911184379E+02 -0.12622245554E+02  0.28866830725E+02  0.00000000000E+00 0.  1.
</event>
<event>
12    1  0.9873238E-001  0.1879250E+03  0.7818608E-02  0.1160852E+00
         21   -1    0    0  503  502  0.00000000000E+00  0.00000000000E+00  0.36348603479E+03  0.36348603479E+03  0.00000000000E+00 0.  1.
         21   -1    0    0  501  503 -0.00000000000E+00 -0.00000000000E+00 -0.96034560328E+02  0.96034560328E+02  0.00000000000E+00 0.  1.
          6    2    1    2  501    0 -0.64579692615E+02  0.40313063327E+02  0.13078691245E+03  0.22715665847E+03  0.16940853356E+03 0.  0.
         24    2    3    3    0    0 -0.89983285257E+02 -0.10329420859E+02  0.11762400487E+03  0.16880123147E+03  0.80341525154E+02 0.  0.
         -6    2    1    2    0  502  0.64579692615E+02 -0.40313063327E+02  0.13666456200E+03  0.23236393665E+03  0.17181419258E+03 0.  0.
        -24    2    5    5    0    0  0.88048266075E+02 -0.63894970704E+02  0.54775357110E+02  0.14384946227E+03  0.76532761672E+02 0.  0.
          5    1    3    3  501    0  0.25403592642E+02  0.50642484186E+02  0.13162907587E+02  0.58355426996E+02  0.47000000000E+01 0. -1.
        -11    1    4    4    0    0 -0.49268667027E+02 -0.37748082596E+02  0.31336984268E+02  0.69529316646E+02  0.00000000000E+00 0.  1.
         12    1    4    4    0    0 -0.40714618230E+02  0.27418661736E+02  0.86287020599E+02  0.99271914824E+02  0.00000000000E+00 0. -1.
         -5    1    5    5    0  502 -0.23468573460E+02  0.23581907378E+02  0.81889204894E+02  0.88514474375E+02  0.47000000000E+01 0.  1.
         13    1    6    6    0    0  0.54287532245E+02  0.62517409590E+01  0.28872869278E+02  0.61805040268E+02  0.00000000000E+00 0. -1.
        -14    1    6    6    0    0  0.33760733831E+02 -0.70146711663E+02  0.25902487832E+02  0.82044422003E+02  0.00000000000E+00 0.  1.
</event>
<event>
12    1  0.9873238E-001  0.3183906E+03  0.7818608E-02  0.1076413E+00
         21   -1    0    0  501  502  0.00000000000E+00  0.00000000000E+00  0.10726533094E+03  0.10726533094E+03  0.00000000000E+00 0.  1.
         21   -1    0    0  502  503 -0.00000000000E+00 -0.00000000000E+00 -0.97598856331E+03  0.97598856331E+03  0.00000000000E+00 0.  1.
         -6    2    1    2    0  503  0.28176535634E+02  0.26646319285E+03 -0.33724473729E+03  0.46379582336E+03  0.17197675029E+03 0.  0.
        -24    2    3    3    0    0  0.49031164470E+02  0.25737915511E+03 -0.24180460093E+03  0.36556983437E+03  0.80769760433E+02 0.  0.
          6    2    1    2  501    0 -0.28176535634E+02 -0.26646319285E+03 -0.53147849508E+03  0.61945807089E+03  0.17164603271E+03 0.  0.
         24    2    5    5    0    0  0.33057696542E+02 -0.14901949347E+03 -0.21465742168E+03  0.27603364504E+03  0.82565996495E+02 0.  0.
          5    1    5    5  501    0 -0.61234232176E+02 -0.11744369937E+03 -0.31682107341E+03  0.34342442585E+03  0.47000000000E+01 0. -1.
        -11    1    6    6    0    0  0.12932002246E+02 -0.12969350176E+03 -0.11935044410E+03  0.17672625608E+03  0.00000000000E+00 0.  1.
         12    1    6    6    0    0  0.20125694296E+02 -0.19325991707E+02 -0.95306977579E+02  0.99307388958E+02  0.00000000000E+00 0. -1.
         -5    1    3    3    0  503 -0.20854628836E+02  0.90840377401E+01 -0.95440136361E+02  0.98225988995E+02  0.47000000000E+01 0.  1.
         13    1    4    4    0    0 -0.72047938697E+01  0.66411787819E+02 -0.25247397003E+02  0.71413343791E+02  0.00000000000E+00 0. -1.
        -14    1    4    4    0    0  0.56235958339E+02  0.19096736729E+03 -0.21655720392E+03  0.29415649058E+03  0.00000000000E+00 0.  1.
</event>
<event>
12    1  0.9873238E-001  0.2007331E+03  0.7818608E-02  0.1149410E+00
         21   -1    0    0  501  502  0.00000000000E+00  0.00000000000E+00  0.59623104875E+03  0.59623104875E+03  0.00000000000E+00 0.  1.
         21   -1    0    0  502  503 -0.00000000000E+00 -0.00000000000E+00 -0.80621681369E+02  0.80621681369E+02  0.00000000000E+00 0.  1.
         -6    2    1    2    0  503  0.10199831200E+03 -0.10460353992E+02  0.39701940670E+03  0.44487994662E+03  0.17257080562E+03 0.  0.
        -24    2    3    3    0    0  0.70641386749E+02 -0.53860778460E+02  0.15233773809E+03  0.19436435318E+03  0.81728369374E+02 0.  0.
          6    2    1    2  501    0 -0.10199831200E+03  0.10460353992E+02  0.11858996068E+03  0.23197278350E+03  0.17098163309E+03 0.  0.
         24    2    5    5    0    0 -0.42238071295E+02 -0.52471068582E+02  0.98658864943E+02  0.14280446574E+03  0.78244974902E+02 0.  0.
          5    1    5    5  501    0 -0.59760240701E+02  0.62931422575E+02  0.19931095739E+02  0.89168317767E+02  0.47000000000E+01 0. -1.
        -13    1    6    6    0    0 -0.49091218197E+01  0.18667957556E+02  0.61016339147E+01  0.20244062161E+02  0.00000000000E+00 0.  1.
         14    1    6    6    0    0 -0.37328949475E+02 -0.71139026138E+02  0.92557231029E+02  0.12256040358E+03  0.00000000000E+00 0. -1.
         -5    1    3    3    0  503  0.31356925247E+02  0.43400424468E+02  0.24468166861E+03  0.25051559344E+03  0.47000000000E+01 0.  1.
         13    1    4    4    0    0  0.88887810664E+02 -0.39127315712E+02  0.12628740115E+03  0.15931257769E+03  0.00000000000E+00 0. -1.
        -14    1    4    4    0    0 -0.18246423916E+02 -0.14733462748E+02  0.26050336937E+02  0.35051775487E+02  0.00000000000E+00 0.  1.
</event>
<event>
12    1  0.9873238E-001  0.1939454E+03  0.7818608E-02  0.1159619E+00
         21   -1    0    0  503  502  0.00000000000E+00  0.00000000000E+00  0.16148190339E+03  0.16148190339E+03  0.00000000000E+00 0.  1.
         21   -1    0    0  501  503 -0.00000000000E+00 -0.00000000000E+00 -0.33160140878E+03  0.33160140878E+03  0.00000000000E+00 0.  1.
          6    2    1    2  501    0  0.13433025786E+02 -0.20950458027E+02 -0.23161591054E+03  0.28962173704E+03  0.17209140791E+03 0.  0.
         24    2    3    3    0    0  0.37154832788E+02  0.41848384631E+02 -0.90209926269E+02  0.13301981765E+03  0.80154052895E+02 0.  0.
         -6    2    1    2    0  502 -0.13433025786E+02  0.20950458027E+02  0.61496405147E+02  0.20346157513E+03  0.19234197887E+03 0.  0.
        -24    2    5    5    0    0 -0.57934201410E+01  0.38118937761E+02  0.11527161875E+03  0.14630403959E+03  0.81429164178E+02 0.  0.
          5    1    3    3  501    0 -0.23721807002E+02 -0.62798842658E+02 -0.14140598428E+03  0.15660191939E+03  0.47000000000E+01 0. -1.
        -13    1    4    4    0    0 -0.18772912535E+02  0.35434425027E+02 -0.48650243198E+02  0.63046545387E+02  0.00000000000E+00 0.  1.
         14    1    4    4    0    0  0.55927745324E+02  0.64139596040E+01 -0.41559683072E+02  0.69973272267E+02  0.00000000000E+00 0. -1.
         -5    1    5    5    0  502 -0.76396056447E+01 -0.17168479734E+02 -0.53775213602E+02  0.57157535538E+02  0.47000000000E+01 0.  1.
         13    1    6    6    0    0  0.37364921739E+02  0.20344184668E+02  0.44850437200E+02  0.61818969122E+02  0.00000000000E+00 0. -1.
        -14    1    6    6    0    0 -0.43158341880E+02  0.17774753092E+02  0.70421181549E+02  0.84485070469E+02  0.00000000000E+00 0.  1.
</event>
<event>
12    1  0.9873238E-001  0.1892158E+03  0.7818608E-02  0.1159182E+00
         21   -1    0    0  501  502  0.00000000000E+00  0.00000000000E+00  0.74206893093E+02  0.74206893093E+02  0.00000000000E+00 0. -1.
         21   -1    0    0  502  503 -0.00000000000E+00 -0.00000000000E+00 -0.66095364898E+03  0.66095364898E+03  0.00000000000E+00 0. -1.
         -6    2    1    2    0  503 -0.29569351756E+02 -0.72545111492E+02 -0.10225978835E+03  0.21503530904E+03  0.17218008031E+03 0.  0.
        -24    2    3    3    0    0 -0.17932251046E+02 -0.28019672207E+02 -0.13507168026E+03  0.15831981639E+03  0.75591916207E+02 0.  0.
          6    2    1    2  501    0  0.29569351756E+02  0.72545111492E+02 -0.48448696753E+03  0.52012523303E+03  0.17223674568E+03 0.  0.
         24    2    5    5    0    0  0.21797979973E+02  0.62771282113E+02 -0.49317020152E+03  0.50420636019E+03  0.81190025225E+02 0.  0.
          5    1    5    5  501    0  0.77713717826E+01  0.97738293791E+01  0.86832339886E+01  0.15918872844E+02  0.47000000000E+01 0. -1.
        -13    1    6    6    0    0  0.13922325133E+02  0.45705464763E+02 -0.10254850897E+03  0.11313274211E+03  0.00000000000E+00 0.  1.
         14    1    6    6    0    0  0.78756548403E+01  0.17065817349E+02 -0.39062169255E+03  0.39107361808E+03  0.00000000000E+00 0. -1.
         -5    1    3    3    0  503 -0.11637100709E+02 -0.44525439285E+02  0.32811891904E+02  0.56715492652E+02  0.47000000000E+01 0.  1.
         13    1    4    4    0    0  0.26151553346E+02  0.59798699872E+00 -0.24263372146E+02  0.35678740992E+02  0.00000000000E+00 0. -1.
        -14    1    4    4    0    0 -0.44083804393E+02 -0.28617659206E+02 -0.11080830811E+03  0.12264107540E+03  0.00000000000E+00 0.  1.
</event>
<event>
12    1  0.9873238E-001  0.2127778E+03  0.7818608E-02  0.1139397E+00
         21   -1    0    0  503  502  0.00000000000E+00  0.00000000000E+00  0.37263862062E+02  0.37263862062E+02  0.00000000000E+00 0.  1.
         21   -1    0    0  501  503 -0.00000000000E+00 -0.00000000000E+00 -0.14373833318E+04  0.14373833318E+04  0.00000000000E+00 0.  1.
          6    2    1    2  501    0  0.92269631844E+01  0.12470486324E+03 -0.40988035101E+03  0.46181845611E+03  0.17215674398E+03 0.  0.
         24    2    3    3    0    0 -0.15309676062E+02  0.10485930420E+03 -0.14492959376E+03  0.19495353402E+03  0.75976532035E+02 0.  0.
         -6    2    1    2    0  502 -0.92269631844E+01 -0.12470486324E+03 -0.99023911876E+03  0.10128287378E+04  0.17208166662E+03 0.  0.
        -24    2    5    5    0    0  0.10372703926E+02 -0.10436018724E+03 -0.38320414122E+03  0.40511860395E+03  0.79227695657E+02 0.  0.
          5    1    3    3  501    0  0.24536639247E+02  0.19845559046E+02 -0.26495075724E+03  0.26686492209E+03  0.47000000000E+01 0. -1.
        -11    1    4    4    0    0  0.90269723220E+01 -0.39179450145E+01  0.24764767833E+01  0.10147386841E+02  0.00000000000E+00 0.  1.
         12    1    4    4    0    0 -0.24336648385E+02  0.10877724921E+03 -0.14740607055E+03  0.18480614718E+03  0.00000000000E+00 0. -1.
         -5    1    5    5    0  502 -0.19599667110E+02 -0.20344676006E+02 -0.60703497755E+03  0.60771013383E+03  0.47000000000E+01 0.  1.
         13    1    6    6    0    0  0.34804127142E+02 -0.30860789210E+02 -0.21447788069E+03  0.21946406741E+03  0.00000000000E+00 0. -1.
        -14    1    6    6    0    0 -0.24431423216E+02 -0.73499398026E+02 -0.16872626052E+03  0.18565453655E+03  0.00000000000E+00 0.  1.
</event>
<event>
12    1  0.1172235E+000  0.9095469E+03  0.7818608E-02  0.9414182E-01
         21   -1    0    0  501  502  0.00000000000E+00  0.00000000000E+00  0.64432657812E+03  0.64432657812E+03  0.00000000000E+00 0.  1.
         21   -1    0    0  502  503 -0.00000000000E+00 -0.00000000000E+00 -0.18149863601E+04  0.18149863601E+04  0.00000000000E+00 0. -1.
         -6    2    1    2    0  503  0.80332617252E+03  0.39006632537E+03  0.80780334285E+02  0.91312707670E+03  0.17260045816E+03 0.  0.
        -24    2    3    3    0    0  0.46268914192E+03  0.15976976247E+03  0.11425791482E+02  0.49611120637E+03  0.79925974052E+02 0.  0.
          6    2    1    2  501    0 -0.80332617252E+03 -0.39006632537E+03 -0.12514401163E+04  0.15461858615E+04  0.16463194149E+03 0.  0.
         24    2    5    5    0    0 -0.30362110243E+03 -0.15913356536E+03 -0.57625308892E+03  0.67501727359E+03  0.77919392277E+02 0.  0.
          5    1    5    5  501    0 -0.49970507008E+03 -0.23093276002E+03 -0.67518702736E+03  0.87116858795E+03  0.47000000000E+01 0. -1.
        -13    1    6    6    0    0 -0.22193609916E+03 -0.11516654732E+03 -0.34694887597E+03  0.42765931332E+03  0.00000000000E+00 0.  1.
         14    1    6    6    0    0 -0.81685003279E+02 -0.43967018041E+02 -0.22930421295E+03  0.24735796028E+03  0.00000000000E+00 0. -1.
         -5    1    3    3    0  503  0.34063703060E+03  0.23029656290E+03  0.69354542803E+02  0.41701587033E+03  0.47000000000E+01 0.  1.
         11    1    4    4    0    0  0.87694875434E+02  0.51368949002E+01  0.21203304128E+02  0.90367908975E+02  0.00000000000E+00 0. -1.
        -12    1    4    4    0    0  0.37499426648E+03  0.15463286757E+03 -0.97775126454E+01  0.40574329740E+03  0.00000000000E+00 0.  1.
</event>
<event>
12    1  0.9873238E-001  0.1944389E+03  0.7818608E-02  0.1154795E+00
         21   -1    0    0  501  502  0.00000000000E+00  0.00000000000E+00  0.77029098800E+03  0.77029098800E+03  0.00000000000E+00 0. -1.
         21   -1    0    0  502  503 -0.00000000000E+00 -0.00000000000E+00 -0.65274539142E+02  0.65274539142E+02  0.00000000000E+00 0. -1.
         -6    2    1    2    0  503 -0.79852817082E+02  0.33531177211E+02  0.56177567295E+03  0.59406102460E+03  0.17267247030E+03 0.  0.
        -24    2    3    3    0    0  0.17464221135E+02  0.13498389160E+02  0.34288312559E+03  0.35362817366E+03  0.83647127050E+02 0.  0.
          6    2    1    2  501    0  0.79852817082E+02 -0.33531177211E+02  0.14324077591E+03  0.24150450254E+03  0.17408530271E+03 0.  0.
         24    2    5    5    0    0  0.30437767982E+02  0.41771677468E+02  0.30573680253E+02  0.97184263331E+02  0.76411388921E+02 0.  0.
          5    1    5    5  501    0  0.49415049100E+02 -0.75302854678E+02  0.11266709566E+03  0.14432023920E+03  0.47000000000E+01 0. -1.
        -11    1    6    6    0    0  0.35496261369E+02  0.44258993369E+02  0.50820119920E+02  0.76167759937E+02  0.00000000000E+00 0.  1.
         12    1    6    6    0    0 -0.50584933871E+01 -0.24873159008E+01 -0.20246439667E+02  0.21016503394E+02  0.00000000000E+00 0. -1.
         -5    1    3    3    0  503 -0.97317038217E+02  0.20032788051E+02  0.21889254736E+03  0.24043285094E+03  0.47000000000E+01 0.  1.
         11    1    4    4    0    0 -0.10607777321E+02  0.23061388397E+02  0.29809227983E+02  0.39152811488E+02  0.00000000000E+00 0. -1.
        -12    1    4    4    0    0  0.28071998456E+02 -0.95629992371E+01  0.31307389760E+03  0.31447536217E+03  0.00000000000E+00 0.  1.
</event>
<event>
12    1  0.9873238E-001  0.1789793E+03  0.7818608E-02  0.1169572E+00
         21   -1    0    0  501  502  0.00000000000E+00  0.00000000000E+00  0.48748843150E+02  0.48748843150E+02  0.00000000000E+00 0.  1.
         21   -1    0    0  502  503 -0.00000000000E+00 -0.00000000000E+00 -0.72255699070E+03  0.72255699070E+03  0.00000000000E+00 0.  1.
         -6    2    1    2    0  503  0.31631535016E+02 -0.33947276588E+02 -0.46546838354E+03  0.49869270148E+03  0.17286012507E+03 0.  0.
        -24    2    3    3    0    0  0.29073687095E+01 -0.61395441423E+02 -0.13437092076E+03  0.16518693040E+03  0.73846628964E+02 0.  0.
          6    2    1    2  501    0 -0.31631535016E+02  0.33947276588E+02 -0.20833976401E+03  0.27261313237E+03  0.16958623493E+03 0.  0.
         24    2    5    5    0    0  0.45031768424E+02  0.26902330409E+02 -0.17294274702E+03  0.18774893395E+03  0.50880968006E+02 0.  0.
          5    1    5    5  501    0 -0.76663303440E+02  0.70449461783E+01 -0.35397016989E+02  0.84864198415E+02  0.47000000000E+01 0. -1.
        -13    1    6    6    0    0  0.23107970391E+02 -0.10199839159E+02 -0.98930011199E+02  0.10210368324E+03  0.00000000000E+00 0.  1.
         14    1    6    6    0    0  0.21923798033E+02  0.37102169568E+02 -0.74012735819E+02  0.85645250716E+02  0.00000000000E+00 0. -1.
         -5    1    3    3    0  503  0.28724166306E+02  0.27448164836E+02 -0.33109746278E+03  0.33350577107E+03  0.47000000000E+01 0.  1.
         13    1    4    4    0    0  0.32578656163E+02 -0.56931343388E+02 -0.84288212778E+02  0.10680378978E+03  0.00000000000E+00 0. -1.
        -14    1    4    4    0    0 -0.29671287454E+02 -0.44640980350E+01 -0.50082707984E+02  0.58383140627E+02  0.00000000000E+00 0.  1.
</event>
<event>
12    1  0.9873238E-001  0.1814699E+03  0.7818608E-02  0.1167360E+00
         21   -1    0    0  501  502  0.00000000000E+00  0.00000000000E+00  0.45854673296E+03  0.45854673296E+03  0.00000000000E+00 0. -1.
         21   -1    0    0  502  503 -0.00000000000E+00 -0.00000000000E+00 -0.71006850575E+02  0.71006850575E+02  0.00000000000E+00 0. -1.
         -6    2    1    2    0  503  0.53547765021E+02  0.23235206889E+02  0.21918393091E+03  0.28201561663E+03  0.16758273920E+03 0.  0.
        -24    2    3    3    0    0  0.13695508765E+02  0.75919035826E+02  0.14450787340E+03  0.18220383514E+03  0.79777472401E+02 0.  0.
          6    2    1    2  501    0 -0.53547765021E+02 -0.23235206889E+02  0.16835595148E+03  0.24753796690E+03  0.17182572765E+03 0.  0.
         24    2    5    5    0    0  0.33530728455E+02  0.11131214281E+02  0.10683463737E+03  0.13541893632E+03  0.75342118962E+02 0.  0.
          5    1    5    5  501    0 -0.87078493476E+02 -0.34366421170E+02  0.61521314105E+02  0.11211903058E+03  0.47000000000E+01 0. -1.
        -11    1    6    6    0    0  0.28495412901E+02 -0.19374525414E+02  0.97055253562E+02  0.10299069393E+03  0.00000000000E+00 0.  1.
         12    1    6    6    0    0  0.50353155537E+01  0.30505739694E+02  0.97793838082E+01  0.32428242393E+02  0.00000000000E+00 0. -1.
         -5    1    3    3    0  503  0.39852256256E+02 -0.52683828937E+02  0.74676057509E+02  0.99811781495E+02  0.47000000000E+01 0.  1.
         13    1    4    4    0    0  0.11245203722E+02 -0.10053240240E+02  0.59099304671E+02  0.60993852630E+02  0.00000000000E+00 0. -1.
        -14    1    4    4    0    0  0.24503050431E+01  0.85972276066E+02  0.85408568733E+02  0.12120998251E+03  0.00000000000E+00 0.  1.
</event>
<event>
12    1  0.9873238E-001  0.2213485E+03  0.7818608E-02  0.1133538E+00
         21   -1    0    0  503  502  0.00000000000E+00  0.00000000000E+00  0.39466174874E+03  0.39466174874E+03  0.00000000000E+00 0. -1.
         21   -1    0    0  501  503 -0.00000000000E+00 -0.00000000000E+00 -0.14817464625E+03  0.14817464625E+03  0.00000000000E+00 0. -1.
          6    2    1    2  501    0 -0.58305968541E+02  0.12463505422E+03  0.23773772488E+03  0.32482979308E+03  0.17338306127E+03 0.  0.
         24    2    3    3    0    0 -0.96110201035E+02  0.10346538278E+03  0.22760103052E+03  0.28008431783E+03  0.81870262129E+02 0.  0.
         -6    2    1    2    0  502  0.58305968541E+02 -0.12463505422E+03  0.87493776095E+01  0.21800660190E+03  0.16886931088E+03 0.  0.
        -24    2    5    5    0    0  0.88355074355E+02 -0.46975267067E+02 -0.19907608880E+02  0.12981757665E+03  0.80268271655E+02 0.  0.
          5    1    3    3  501    0  0.37804232494E+02  0.21169671444E+02  0.10136694358E+02  0.44745475258E+02  0.47000000000E+01 0. -1.
        -13    1    4    4    0    0 -0.26371838695E+02  0.86082326747E+02  0.14408349607E+03  0.16989907208E+03  0.00000000000E+00 0.  1.
         14    1    4    4    0    0 -0.69738362340E+02  0.17383056028E+02  0.83517534453E+02  0.11018524574E+03  0.00000000000E+00 0. -1.
         -5    1    5    5    0  502 -0.30049105814E+02 -0.77659787152E+02  0.28656986489E+02  0.88189025255E+02  0.47000000000E+01 0.  1.
         13    1    6    6    0    0  0.96669877121E+02 -0.33833333970E+02  0.26087753485E+01  0.10245274686E+03  0.00000000000E+00 0. -1.
        -14    1    6    6    0    0 -0.83148027655E+01 -0.13141933097E+02 -0.22516384228E+02  0.27364829787E+02  0.00000000000E+00 0.  1.
</event>
<event>
12    1  0.9873238E-001  0.1768647E+03  0.7818608E-02  0.1170996E+00
         21   -1    0    0  503  502  0.00000000000E+00  0.00000000000E+00  0.10206301553E+04  0.10206301553E+04  0.00000000000E+00 0.  1.
         21   -1    0    0  501  503 -0.00000000000E+00 -0.00000000000E+00 -0.31572680891E+02  0.31572680891E+02  0.00000000000E+00 0.  1.
          6    2    1    2  501    0 -0.41302727811E+02 -0.49931694074E+01  0.39974129954E+03  0.43691859858E+03  0.17138817975E+03 0.  0.
         24    2    3    3    0    0 -0.73112283893E+02  0.44724584826E+02  0.27211761195E+03  0.29622887408E+03  0.79736168467E+02 0.  0.
         -6    2    1    2    0  502  0.41302727811E+02  0.49931694074E+01  0.58931617488E+03  0.61528423763E+03  0.17190198379E+03 0.  0.
        -24    2    5    5    0    0  0.73667911379E+02  0.57126614764E+02  0.35946453822E+03  0.37733620526E+03  0.66913722663E+02 0.  0.
          5    1    3    3  501    0  0.31809556082E+02 -0.49717754233E+02  0.12762368759E+03  0.14068972449E+03  0.47000000000E+01 0. -1.
        -13    1    4    4    0    0 -0.51397593010E+01 -0.21291898610E+02  0.61302315683E+02  0.65097895359E+02  0.00000000000E+00 0.  1.
         14    1    4    4    0    0 -0.67972524592E+02  0.66016483436E+02  0.21081529627E+03  0.23113097872E+03  0.00000000000E+00 0. -1.
         -5    1    5    5    0  502 -0.32365183568E+02 -0.52133445356E+02  0.22985163666E+03  0.23794803237E+03  0.47000000000E+01 0.  1.
         11    1    6    6    0    0  0.25727318450E+02 -0.13563577143E+02  0.10263924500E+03  0.10668027068E+03  0.00000000000E+00 0. -1.
        -12    1    6    6    0    0  0.47940592929E+02  0.70690191907E+02  0.25682529323E+03  0.27065593458E+03  0.00000000000E+00 0.  1.
</event>
<event>
12    1  0.9873238E-001  0.2391480E+03  0.7818608E-02  0.1120414E+00
         21   -1    0    0  503  502  0.00000000000E+00  0.00000000000E+00  0.12673394220E+03  0.12673394220E+03  0.00000000000E+00 0. -1.
         21   -1    0    0  501  503 -0.00000000000E+00 -0.00000000000E+00 -0.52587646019E+03  0.52587646019E+03  0.00000000000E+00 0.  1.
          6    2    1    2  501    0 -0.14150279014E+03 -0.88094017031E+02 -0.32284340043E+03  0.40158581993E+03  0.17105471088E+03 0.  0.
         24    2    3    3    0    0 -0.93017508094E+01 -0.69996957785E+02 -0.14094414535E+03  0.17594440672E+03  0.78135046446E+02 0.  0.
         -6    2    1    2    0  502  0.14150279014E+03  0.88094017031E+02 -0.76299117562E+02  0.25102458246E+03  0.17148816346E+03 0.  0.
        -24    2    5    5    0    0  0.94630357471E+01  0.11417010038E+02 -0.51586662222E+02  0.96277512731E+02  0.79926707518E+02 0.  0.
          5    1    3    3  501    0 -0.13220103933E+03 -0.18097059246E+02 -0.18189925509E+03  0.22564141321E+03  0.47000000000E+01 0. -1.
        -13    1    4    4    0    0 -0.39342263749E+02 -0.44485126110E+02 -0.11292318778E+03  0.12758678027E+03  0.00000000000E+00 0.  1.
         14    1    4    4    0    0  0.30040512940E+02 -0.25511831676E+02 -0.28020957565E+02  0.48357626452E+02  0.00000000000E+00 0. -1.
         -5    1    5    5    0  502  0.13203975439E+03  0.76677006994E+02 -0.24712455339E+02  0.15474706973E+03  0.47000000000E+01 0.  1.
         13    1    6    6    0    0  0.29841295859E+02  0.35538026826E+02 -0.16941127344E+02  0.49400972510E+02  0.00000000000E+00 0. -1.
        -14    1    6    6    0    0 -0.20378260112E+02 -0.24121016788E+02 -0.34645534878E+02  0.46876540221E+02  0.00000000000E+00 0.  1.
</event>
<event>
12    1  0.9873238E-001  0.2510532E+03  0.7818608E-02  0.1112764E+00
         21   -1    0    0  501  502  0.00000000000E+00  0.00000000000E+00  0.15652776285E+03  0.15652776285E+03  0.00000000000E+00 0. -1.
         21   -1    0    0  502  503 -0.00000000000E+00 -0.00000000000E+00 -0.43074649416E+03  0.43074649416E+03  0.00000000000E+00 0. -1.
         -6    2    1    2    0  503 -0.64297907285E+01 -0.18263837879E+03 -0.60271985229E+02  0.25742440478E+03  0.17098681925E+03 0.  0.
        -24    2    3    3    0    0  0.45834295692E+02 -0.65655042859E+02 -0.63676854069E+02  0.12916560880E+03  0.78852047774E+02 0.  0.
          6    2    1    2  501    0  0.64297907285E+01  0.18263837879E+03 -0.21394674607E+03  0.32984985222E+03  0.17213249327E+03 0.  0.
         24    2    5    5    0    0 -0.15604660489E+02  0.74336121376E+02 -0.28620987996E+02  0.11401977413E+03  0.80074862279E+02 0.  0.
          5    1    5    5  501    0  0.22034451218E+02  0.10830225742E+03 -0.18532575808E+03  0.21583007809E+03  0.47000000000E+01 0. -1.
        -13    1    6    6    0    0  0.26825365867E+02  0.27226378081E+01 -0.97180175224E+01  0.28660999199E+02  0.00000000000E+00 0.  1.
         14    1    6    6    0    0 -0.42430026356E+02  0.71613483567E+02 -0.18902970474E+02  0.85358774933E+02  0.00000000000E+00 0. -1.
         -5    1    3    3    0  503 -0.52264086420E+02 -0.11698333593E+03  0.34048688397E+01  0.12825879598E+03  0.47000000000E+01 0.  1.
         13    1    4    4    0    0  0.28147230950E+02  0.88111419954E+01 -0.38694883045E+02  0.48653846788E+02  0.00000000000E+00 0. -1.
        -14    1    4    4    0    0  0.17687064742E+02 -0.74466184855E+02 -0.24981971023E+02  0.80511762012E+02  0.00000000000E+00 0.  1.
</event>
<event>
12    1  0.9873238E-001  0.1899119E+03  0.7818608E-02  0.1158637E+00
         21   -1    0    0  501  502  0.00000000000E+00  0.00000000000E+00  0.28314774744E+03  0.28314774744E+03  0.00000000000E+00 0.  1.
         21   -1    0    0  502  503 -0.00000000000E+00 -0.00000000000E+00 -0.13067445896E+03  0.13067445896E+03  0.00000000000E+00 0.  1.
         -6    2    1    2    0  503 -0.75297850055E+02  0.14243919711E+02  0.41894962712E+02  0.19406302179E+03  0.17329920096E+03 0.  0.
        -24    2    3    3    0    0 -0.11652116917E+03 -0.54495315054E+01  0.36018693419E+02  0.14776167623E+03  0.83242335546E+02 0.  0.
          6    2    1    2  501    0  0.75297850055E+02 -0.14243919711E+02  0.11057832577E+03  0.21975918460E+03  0.17376385589E+03 0.  0.
         24    2    5    5    0    0  0.22297999183E+02  0.54805785902E+02  0.36033081373E+02  0.10505988426E+03  0.78983044958E+02 0.  0.
          5    1    5    5  501    0  0.52999850872E+02 -0.69049705614E+02  0.74545244395E+02  0.11469930035E+03  0.47000000000E+01 0. -1.
        -13    1    6    6    0    0  0.85796629188E+00  0.13389701196E+02 -0.24925695209E+02  0.28307428105E+02  0.00000000000E+00 0.  1.
         14    1    6    6    0    0  0.21440032892E+02  0.41416084706E+02  0.60958776583E+02  0.76752456151E+02  0.00000000000E+00 0. -1.
         -5    1    3    3    0  503  0.41223319118E+02  0.19693451217E+02  0.58762692928E+01  0.46301345561E+02  0.47000000000E+01 0.  1.
         13    1    4    4    0    0 -0.10160898589E+03  0.27177343689E+02  0.37997808276E+02  0.11183392803E+03  0.00000000000E+00 0. -1.
        -14    1    4    4    0    0 -0.14912183279E+02 -0.32626875195E+02 -0.19791148572E+01  0.35927748200E+02  0.00000000000E+00 0.  1.
</event>
<event>
12    1  0.9873238E-001  0.4688810E+03  0.7818608E-02  0.1022246E+00
         21   -1    0    0  503  502  0.00000000000E+00  0.00000000000E+00  0.48549806823E+03  0.48549806823E+03  0.00000000000E+00 0.  1.
         21   -1    0    0  501  503 -0.00000000000E+00 -0.00000000000E+00 -0.62257465622E+03  0.62257465622E+03  0.00000000000E+00 0. -1.
          6    2    1    2  501    0 -0.28782748433E+03  0.32792034838E+03 -0.35794773730E+03  0.58989491152E+03  0.17167704674E+03 0.  0.
         24    2    3    3    0    0 -0.12592333860E+03  0.20806555132E+03 -0.13964375893E+03  0.29281438076E+03  0.84213545952E+02 0.  0.
         -6    2    1    2    0  502  0.28782748433E+03 -0.32792034838E+03  0.22087114931E+03  0.51817781293E+03  0.17131189565E+03 0.  0.
        -24    2    5    5    0    0  0.74575206392E+02 -0.90088472765E+02  0.11174391496E+03  0.18058134022E+03  0.80284018167E+02 0.  0.
          5    1    3    3  501    0 -0.16190414573E+03  0.11985479706E+03 -0.21830397837E+03  0.29708053076E+03  0.47000000000E+01 0. -1.
        -11    1    4    4    0    0 -0.81819000828E+02  0.59619926150E+02 -0.41109168768E+02  0.10926503671E+03  0.00000000000E+00 0.  1.
         12    1    4    4    0    0 -0.44104337767E+02  0.14844562517E+03 -0.98534590163E+02  0.18354934405E+03  0.00000000000E+00 0. -1.
         -5    1    5    5    0  502  0.21325227793E+03 -0.23783187562E+03  0.10912723436E+03  0.33759647270E+03  0.47000000000E+01 0.  1.
         11    1    6    6    0    0  0.68097210896E+02 -0.25680984030E+02  0.36806248417E+02  0.81556379242E+02  0.00000000000E+00 0. -1.
        -12    1    6    6    0    0  0.64779954965E+01 -0.64407488734E+02  0.74937666539E+02  0.99024960979E+02  0.00000000000E+00 0.  1.
</event>
<event>
12    1  0.9873238E-001  0.2295047E+03  0.7818608E-02  0.1127099E+00
         21   -1    0    0  501  502  0.00000000000E+00  0.00000000000E+00  0.18418643130E+03  0.18418643130E+03  0.00000000000E+00 0. -1.
         21   -1    0    0  502  503 -0.00000000000E+00 -0.00000000000E+00 -0.29304695931E+03  0.29304695931E+03  0.00000000000E+00 0. -1.
         -6    2    1    2    0  503  0.38409251849E+02  0.14721709168E+03 -0.15449025301E+02  0.23002408984E+03  0.17182626927E+03 0.  0.
        -24    2    3    3    0    0  0.86379440521E+02  0.72574737055E+02  0.19467666814E+02  0.13455741768E+03  0.70698008442E+02 0.  0.
          6    2    1    2  501    0 -0.38409251849E+02 -0.14721709168E+03 -0.93411502710E+02  0.24720930076E+03  0.17099294381E+03 0.  0.
         24    2    5    5    0    0 -0.70639696436E+02 -0.72592254641E+02 -0.90415117395E+01  0.12995720808E+03  0.80916777315E+02 0.  0.
          5    1    5    5  501    0  0.32230444587E+02 -0.74624837042E+02 -0.84369990970E+02  0.11725209268E+03  0.47000000000E+01 0. -1.
        -11    1    6    6    0    0 -0.18388176314E+02 -0.53961794482E+02  0.27737888093E+02  0.63398665031E+02  0.00000000000E+00 0.  1.
         12    1    6    6    0    0 -0.52251520123E+02 -0.18630460159E+02 -0.36779399832E+02  0.66558543050E+02  0.00000000000E+00 0. -1.
         -5    1    3    3    0  503 -0.47970188672E+02  0.74642354628E+02 -0.34916692115E+02  0.95466672162E+02  0.47000000000E+01 0.  1.
         11    1    4    4    0    0  0.22431759546E+02  0.46890243248E+01 -0.22654678291E+02  0.32224295708E+02  0.00000000000E+00 0. -1.
        -12    1    4    4    0    0  0.63947680975E+02  0.67885712731E+02  0.42122345104E+02  0.10233312197E+03  0.00000000000E+00 0.  1.
</event>
<event>
12    1  0.9873238E-001  0.3096104E+03  0.7818608E-02  0.1080578E+00
         21   -1    0    0  503  502  0.00000000000E+00  0.00000000000E+00  0.32305410905E+03  0.32305410905E+03  0.00000000000E+00 0.  1.
         21   -1    0    0  501  503 -0.00000000000E+00 -0.00000000000E+00 -0.29722978275E+03  0.29722978275E+03  0.00000000000E+00 0.  1.
          6    2    1    2  501    0  0.18618773565E+03  0.17822073189E+03  0.29617929944E+02  0.31065024857E+03  0.17087379254E+03 0.  0.
         24    2    3    3    0    0  0.25181051254E+02  0.50514781737E+02 -0.17765260091E+02  0.99701869044E+02  0.80243564904E+02 0.  0.
         -6    2    1    2    0  502 -0.18618773565E+03 -0.17822073189E+03 -0.37936036503E+01  0.30963364324E+03  0.17155203121E+03 0.  0.
        -24    2    5    5    0    0 -0.18595168568E+03 -0.13039782982E+03 -0.46435674526E+02  0.24538785045E+03  0.80481686426E+02 0.  0.
          5    1    3    3  501    0  0.16100668439E+03  0.12770595016E+03  0.47383190035E+02  0.21094837952E+03  0.47000000000E+01 0. -1.
        -13    1    4    4    0    0  0.12495470704E+02  0.60214355413E+02  0.14957921506E+02  0.63290163547E+02  0.00000000000E+00 0.  1.
         14    1    4    4    0    0  0.12685580549E+02 -0.96995736760E+01 -0.32723181597E+02  0.36411705497E+02  0.00000000000E+00 0. -1.
         -5    1    5    5    0  502 -0.23604996634E+00 -0.47822902077E+02  0.42642070876E+02  0.64245792790E+02  0.47000000000E+01 0.  1.
         11    1    6    6    0    0 -0.69360907553E+02 -0.59637566786E+02 -0.58325724334E+02  0.10848716508E+03  0.00000000000E+00 0. -1.
        -12    1    6    6    0    0 -0.11659077813E+03 -0.70760263031E+02  0.11890049808E+02  0.13690068536E+03  0.00000000000E+00 0.  1.
</event>
<event>
12    1  0.9873238E-001  0.2031903E+03  0.7818608E-02  0.1148350E+00
         21   -1    0    0  503  502  0.00000000000E+00  0.00000000000E+00  0.65188283656E+02  0.65188283656E+02  0.00000000000E+00 0. -1.
         21   -1    0    0  501  503 -0.00000000000E+00 -0.00000000000E+00 -0.65623488585E+03  0.65623488585E+03  0.00000000000E+00 0. -1.
          6    2    1    2  501    0 -0.72999519930E+02  0.65513997488E+02 -0.20882336713E+03  0.29136485661E+03  0.17794737209E+03 0.  0.
         24    2    3    3    0    0 -0.57721902444E+02  0.10647902495E+03 -0.10596824708E+03  0.17950420763E+03  0.79516604491E+02 0.  0.
         -6    2    1    2    0  502  0.72999519930E+02 -0.65513997488E+02 -0.38222323507E+03  0.43005831290E+03  0.17098110214E+03 0.  0.
        -24    2    5    5    0    0  0.97940805902E+01 -0.62288826570E+02 -0.33727363809E+03  0.35229016030E+03  0.79868818471E+02 0.  0.
          5    1    3    3  501    0 -0.15277617487E+02 -0.40965027465E+02 -0.10285512005E+03  0.11186064898E+03  0.47000000000E+01 0. -1.
        -11    1    4    4    0    0 -0.35664634322E+02  0.51981676241E+01 -0.50203180730E+02  0.61800861187E+02  0.00000000000E+00 0.  1.
         12    1    4    4    0    0 -0.22057268122E+02  0.10128085733E+03 -0.55765066351E+02  0.11770334644E+03  0.00000000000E+00 0. -1.
         -5    1    5    5    0  502  0.63205439340E+02 -0.32251709181E+01 -0.44949596977E+02  0.77768152595E+02  0.47000000000E+01 0.  1.
         13    1    6    6    0    0  0.16839609506E+02 -0.78085442535E+02 -0.22647573095E+03  0.24015029772E+03  0.00000000000E+00 0. -1.
        -14    1    6    6    0    0 -0.70455289153E+01  0.15796615965E+02 -0.11079790714E+03  0.11213986258E+03  0.00000000000E+00 0.  1.
</event>
<event>
12    1  0.9873238E-001  0.1782446E+03  0.7818608E-02  0.1170171E+00
         21   -1    0    0  503  502  0.00000000000E+00  0.00000000000E+00  0.20731775977E+03  0.20731775977E+03  0.00000000000E+00 0. -1.
         21   -1    0    0  501  503 -0.00000000000E+00 -0.00000000000E+00 -0.94892172197E+03  0.94892172197E+03  0.00000000000E+00 0. -1.
          6    2    1    2  501    0 -0.59121230097E+01 -0.34820531836E+02  0.15978160298E+03  0.23739940286E+03  0.17199096834E+03 0.  0.
         24    2    3    3    0    0  0.59891307909E+02 -0.43635646994E+02  0.95869626631E+02  0.14512465823E+03  0.79869535267E+02 0.  0.
         -6    2    1    2    0  502  0.59121230097E+01  0.34820531836E+02 -0.90138556518E+03  0.91884007888E+03  0.17471041985E+03 0.  0.
        -24    2    5    5    0    0  0.39919167261E+02  0.29037980040E+02 -0.24749819053E+03  0.26402658964E+03  0.77575392499E+02 0.  0.
          5    1    3    3  501    0 -0.65803430919E+02  0.88151151579E+01  0.63911976347E+02  0.92274744630E+02  0.47000000000E+01 0. -1.
        -11    1    4    4    0    0 -0.50754260754E+01 -0.80221215068E+00 -0.11456836290E+02  0.12556376546E+02  0.00000000000E+00 0.  1.
         12    1    4    4    0    0  0.64966733984E+02 -0.42833434843E+02  0.10732646292E+03  0.13256828168E+03  0.00000000000E+00 0. -1.
         -5    1    5    5    0  502 -0.34007044251E+02  0.57825517958E+01 -0.65388737465E+03  0.65481348924E+03  0.47000000000E+01 0.  1.
         11    1    6    6    0    0  0.55902969222E+02  0.42952129317E+02 -0.18155848692E+03  0.19476527297E+03  0.00000000000E+00 0. -1.
        -12    1    6    6    0    0 -0.15983801961E+02 -0.13914149276E+02 -0.65939703605E+02  0.69261316669E+02  0.00000000000E+00 0.  1.
</event>
<event>
12    1  0.9873238E-001  0.2188951E+03  0.7818608E-02  0.1134768E+00
         21   -1    0    0  501  502  0.00000000000E+00  0.00000000000E+00  0.11524333773E+03  0.11524333773E+03  0.00000000000E+00 0.  1.
         21   -1    0    0  502  503 -0.00000000000E+00 -0.00000000000E+00 -0.42559102205E+03  0.42559102205E+03  0.00000000000E+00 0.  1.
         -6    2    1    2    0  503  0.92080314090E+02 -0.10070220277E+03 -0.19757622106E+03  0.29487529122E+03  0.17115886293E+03 0.  0.
        -24    2    3    3    0    0  0.11938808687E+03 -0.85850989422E+02 -0.10681398240E+03  0.19882245702E+03  0.80605427278E+02 0.  0.
          6    2    1    2  501    0 -0.92080314090E+02  0.10070220277E+03 -0.11277146326E+03  0.24595906856E+03  0.17075931189E+03 0.  0.
         24    2    5    5    0    0 -0.11377997820E+03  0.29608782258E+02 -0.89036553266E+02  0.16778883245E+03  0.80018879334E+02 0.  0.
          5    1    5    5  501    0  0.21699664112E+02  0.71093420510E+02 -0.23734909992E+02  0.78170236118E+02  0.47000000000E+01 0. -1.
        -11    1    6    6    0    0 -0.56941976189E+02 -0.21091158656E+02 -0.62482653722E+02  0.87128110515E+02  0.00000000000E+00 0.  1.
         12    1    6    6    0    0 -0.56838002013E+02  0.50699940914E+02 -0.26553899544E+02  0.80660721931E+02  0.00000000000E+00 0. -1.
         -5    1    3    3    0  503 -0.27307772782E+02 -0.14851213347E+02 -0.90762238659E+02  0.96052834203E+02  0.47000000000E+01 0.  1.
         11    1    4    4    0    0  0.26179759834E+01 -0.16271533036E+02 -0.47936287927E+02  0.50690278020E+02  0.00000000000E+00 0. -1.
        -12    1    4    4    0    0  0.11677011089E+03 -0.69579456386E+02 -0.58877694473E+02  0.14813217900E+03  0.00000000000E+00 0.  1.
</event>
<event>
12    1  0.9873238E-001  0.2347321E+03  0.7818608E-02  0.1123374E+00
         21   -1    0    0  501  502  0.00000000000E+00  0.00000000000E+00  0.10528651874E+04  0.10528651874E+04  0.00000000000E+00 0. -1.
         21   -1    0    0  502  503 -0.00000000000E+00 -0.00000000000E+00 -0.52346041618E+02  0.52346041618E+02  0.00000000000E+00 0. -1.
         -6    2    1    2    0  503  0.15248066455E+03 -0.47476489871E+02  0.51594983962E+03  0.56683629372E+03  0.17203132481E+03 0.  0.
        -24    2    3    3    0    0  0.47644044728E+02 -0.51621342232E+02  0.38360617220E+03  0.39788413195E+03  0.78888333366E+02 0.  0.
          6    2    1    2  501    0 -0.15248066455E+03  0.47476489871E+02  0.48456930614E+03  0.53837493528E+03  0.17185979267E+03 0.  0.
         24    2    5    5    0    0 -0.29356963985E+02  0.61793337795E+02  0.16730033876E+03  0.19771952958E+03  0.80145873857E+02 0.  0.
          5    1    5    5  501    0 -0.12312370056E+03 -0.14316847924E+02  0.31726896737E+03  0.34065540570E+03  0.47000000000E+01 0. -1.
        -13    1    6    6    0    0  0.25735925553E+02  0.16017978272E+02  0.28900136275E+02  0.41882351518E+02  0.00000000000E+00 0.  1.
         14    1    6    6    0    0 -0.55092889538E+02  0.45775359523E+02  0.13840020249E+03  0.15583717806E+03  0.00000000000E+00 0. -1.
         -5    1    3    3    0  503  0.10483661982E+03  0.41448523619E+01  0.13234366743E+03  0.16895216176E+03  0.47000000000E+01 0.  1.
         11    1    4    4    0    0 -0.18203958283E+02 -0.28252512539E+02  0.16481310806E+03  0.16820508063E+03  0.00000000000E+00 0. -1.
        -12    1    4    4    0    0  0.65848003012E+02 -0.23368829693E+02  0.21879306414E+03  0.22967905132E+03  0.00000000000E+00 0.  1.
</event>
<event>
12    1  0.9873238E-001  0.2010422E+03  0.7818608E-02  0.1149208E+00
         21   -1    0    0  501  502  0.00000000000E+00  0.00000000000E+00  0.10338401240E+04  0.10338401240E+04  0.00000000000E+00 0.  1.
         21   -1    0    0  502  503 -0.00000000000E+00 -0.00000000000E+00 -0.57620820279E+02  0.57620820279E+02  0.00000000000E+00 0.  1.
         -6    2    1    2    0  503  0.62778301538E+01  0.10085390272E+03  0.80154217657E+03  0.82637028424E+03  0.17380179804E+03 0.  0.
        -24    2    3    3    0    0  0.57886794174E+02  0.64561438934E+02  0.32651358462E+03  0.34714707814E+03  0.79880614545E+02 0.  0.
          6    2    1    2  501    0 -0.62778301538E+01 -0.10085390272E+03  0.17467712710E+03  0.26509065999E+03  0.17190124618E+03 0.  0.
         24    2    5    5    0    0 -0.44446185352E+02 -0.67296300647E+02  0.18185667661E+03  0.21354871662E+03  0.77633421083E+02 0.  0.
          5    1    5    5  501    0  0.38168355199E+02 -0.33557602077E+02 -0.71795495073E+01  0.51541943375E+02  0.47000000000E+01 0. -1.
        -13    1    6    6    0    0  0.21719454222E+02 -0.20436598176E+02  0.36762080566E+02  0.47337509485E+02  0.00000000000E+00 0.  1.
         14    1    6    6    0    0 -0.66165639574E+02 -0.46859702471E+02  0.14509459604E+03  0.16621120713E+03  0.00000000000E+00 0. -1.
         -5    1    3    3    0  503 -0.51608964020E+02  0.36292463790E+02  0.47502859195E+03  0.47922320610E+03  0.47000000000E+01 0.  1.
         11    1    4    4    0    0  0.68210386033E+01  0.65957965233E+02  0.16835772306E+03  0.18094557927E+03  0.00000000000E+00 0. -1.
        -12    1    4    4    0    0  0.51065755571E+02 -0.13965262997E+01  0.15815586156E+03  0.16620149886E+03  0.00000000000E+00 0.  1.
</event>
<event>
12    1  0.9873238E-001  0.2365277E+03  0.7818608E-02  0.1122173E+00
         21   -1    0    0  501  502  0.00000000000E+00  0.00000000000E+00  0.49745493359E+03  0.49745493359E+03  0.00000000000E+00 0. -1.
         21   -1    0    0  502  503 -0.00000000000E+00 -0.00000000000E+00 -0.20053878139E+03  0.20053878139E+03  0.00000000000E+00 0. -1.
         -6    2    1    2    0  503  0.13347364355E+03  0.96146562836E+02 -0.83040796530E+02  0.25043071689E+03  0.16958890000E+03 0.  0.
        -24    2    3    3    0    0  0.48467130376E+02  0.69050963171E+01 -0.85653015538E+02  0.12706516125E+03  0.80077294232E+02 0.  0.
          6    2    1    2  501    0 -0.13347364355E+03 -0.96146562836E+02  0.37995694873E+03  0.44756299809E+03  0.16995875765E+03 0.  0.
         24    2    5    5    0    0 -0.99878703888E+02 -0.12899510769E+03  0.34145924634E+03  0.38663837286E+03  0.79242167801E+02 0.  0.
          5    1    5    5  501    0 -0.33594939665E+02  0.32848544855E+02  0.38497702388E+02  0.60924625229E+02  0.47000000000E+01 0. -1.
        -13    1    6    6    0    0 -0.53580245443E+02 -0.39989970786E+02  0.21534729313E+03  0.22548724381E+03  0.00000000000E+00 0.  1.
         14    1    6    6    0    0 -0.46298458445E+02 -0.89005136904E+02  0.12611195321E+03  0.16115112905E+03  0.00000000000E+00 0. -1.
         -5    1    3    3    0  503  0.85006513178E+02  0.89241466518E+02  0.26122190083E+01  0.12336555563E+03  0.47000000000E+01 0.  1.
         13    1    4    4    0    0  0.61656649593E+02  0.28648795859E+02 -0.56689138574E+02  0.88520926201E+02  0.00000000000E+00 0. -1.
        -14    1    4    4    0    0 -0.13189519217E+02 -0.21743699542E+02 -0.28963876964E+02  0.38544235052E+02  0.00000000000E+00 0.  1.
</event>
<event>
12    1  0.1026305E+000  0.4519782E+03  0.7818608E-02  0.1027254E+00
         21   -1    0    0  503  502  0.00000000000E+00  0.00000000000E+00  0.82218621317E+03  0.82218621317E+03  0.00000000000E+00 0.  1.
         21   -1    0    0  501  503 -0.00000000000E+00 -0.00000000000E+00 -0.40591162662E+03  0.40591162662E+03  0.00000000000E+00 0. -1.
          6    2    1    2  501    0 -0.40757840569E+03 -0.83502019359E+02  0.59141624610E+03  0.74337226693E+03  0.17244247464E+03 0.  0.
         24    2    3    3    0    0 -0.18066506006E+03  0.24338170076E+02  0.26776763221E+03  0.33362882506E+03  0.79852849664E+02 0.  0.
         -6    2    1    2    0  502  0.40757840569E+03  0.83502019359E+02 -0.17514165955E+03  0.48472557286E+03  0.17661125686E+03 0.  0.
        -24    2    5    5    0    0  0.22052812288E+03  0.44119315063E+02 -0.22416358246E+02  0.24000958778E+03  0.80764733422E+02 0.  0.
          5    1    3    3  501    0 -0.22691334564E+03 -0.10784018944E+03  0.32364861389E+03  0.40974344187E+03  0.47000000000E+01 0. -1.
        -11    1    4    4    0    0 -0.15851037997E+03  0.19445759710E+02  0.26677074298E+03  0.31091849002E+03  0.00000000000E+00 0.  1.
         12    1    4    4    0    0 -0.22154680092E+02  0.48924103661E+01  0.99688923085E+00  0.22710335033E+02  0.00000000000E+00 0. -1.
         -5    1    5    5    0  502  0.18705028281E+03  0.39382704297E+02 -0.15272530130E+03  0.24471598508E+03  0.47000000000E+01 0.  1.
         11    1    6    6    0    0  0.61499568284E+01  0.90892733512E+01  0.16015423353E+02  0.19414701754E+02  0.00000000000E+00 0. -1.
        -12    1    6    6    0    0  0.21437816605E+03  0.35030041711E+02 -0.38431781598E+02  0.22059488602E+03  0.00000000000E+00 0.  1.
</event>
<event>
12    1  0.9873238E-001  0.2106005E+03  0.7818608E-02  0.1141210E+00
         21   -1    0    0  501  502  0.00000000000E+00  0.00000000000E+00  0.55337385027E+03  0.55337385027E+03  0.00000000000E+00 0.  1.
         21   -1    0    0  502  503 -0.00000000000E+00 -0.00000000000E+00 -0.80506258213E+02  0.80506258213E+02  0.00000000000E+00 0.  1.
         -6    2    1    2    0  503 -0.10772001098E+03 -0.51497140437E+02  0.26312994587E+03  0.33665553874E+03  0.17275423904E+03 0.  0.
        -24    2    3    3    0    0  0.14423660167E+02 -0.14831372439E+02  0.12139542149E+03  0.14593527147E+03  0.78308642681E+02 0.  0.
          6    2    1    2  501    0  0.10772001098E+03  0.51497140437E+02  0.20973764619E+03  0.29722456975E+03  0.17348489385E+03 0.  0.
         24    2    5    5    0    0  0.38218579096E+02 -0.78435268526E+00  0.23667616781E+02  0.91778836279E+02  0.80012022268E+02 0.  0.
          5    1    5    5  501    0  0.69501431888E+02  0.52281493122E+02  0.18607002941E+03  0.20544573347E+03  0.47000000000E+01 0. -1.
        -11    1    6    6    0    0  0.37839787721E+02  0.35605221929E+02  0.10035372687E+02  0.52917767039E+02  0.00000000000E+00 0.  1.
         12    1    6    6    0    0  0.37879137456E+00 -0.36389574614E+02  0.13632244094E+02  0.38861069241E+02  0.00000000000E+00 0. -1.
         -5    1    3    3    0  503 -0.12214367115E+03 -0.36665767998E+02  0.14173452438E+03  0.19072026727E+03  0.47000000000E+01 0.  1.
         13    1    4    4    0    0  0.36047536200E+02 -0.29457941650E+02  0.43245631652E+02  0.63540379676E+02  0.00000000000E+00 0. -1.
        -14    1    4    4    0    0 -0.21623876034E+02  0.14626569211E+02  0.78149789839E+02  0.82394891792E+02  0.00000000000E+00 0.  1.
</event>
<event>
12    1  0.9873238E-001  0.4640242E+03  0.7818608E-02  0.1023932E+00
         21   -1    0    0  501  502  0.00000000000E+00  0.00000000000E+00  0.88121389645E+03  0.88121389645E+03  0.00000000000E+00 0.  1.
         21   -1    0    0  502  503 -0.00000000000E+00 -0.00000000000E+00 -0.28069978648E+03  0.28069978648E+03  0.00000000000E+00 0.  1.
         -6    2    1    2    0  503 -0.41880677054E+03  0.10098569881E+03  0.51456048390E+03  0.68999585229E+03  0.16038878442E+03 0.  0.
        -24    2    3    3    0    0 -0.13002895832E+03  0.45087852645E+02  0.12753480181E+03  0.20385990151E+03  0.79707523577E+02 0.  0.
          6    2    1    2  501    0  0.41880677054E+03 -0.10098569881E+03  0.85953626069E+02  0.47191783064E+03  0.17239834868E+03 0.  0.
         24    2    5    5    0    0  0.31201979130E+03 -0.13656297726E+03  0.45183427003E+02  0.35211173393E+03  0.77041120021E+02 0.  0.
          5    1    5    5  501    0  0.10678697924E+03  0.35577278449E+02  0.40770199066E+02  0.11980609671E+03  0.47000000000E+01 0. -1.
        -13    1    6    6    0    0  0.55612994808E+02 -0.40429695055E+02 -0.18017093100E+02  0.71077289464E+02  0.00000000000E+00 0.  1.
         14    1    6    6    0    0  0.25640679649E+03 -0.96133282203E+02  0.63200520103E+02  0.28103444446E+03  0.00000000000E+00 0. -1.
         -5    1    3    3    0  503 -0.28877781222E+03  0.55897846164E+02  0.38702568209E+03  0.48613595078E+03  0.47000000000E+01 0.  1.
         11    1    4    4    0    0 -0.11360574799E+03  0.64672960697E+02  0.91029382927E+02  0.15929597100E+03  0.00000000000E+00 0. -1.
        -12    1    4    4    0    0 -0.16423210331E+02 -0.19585108051E+02  0.36505418881E+02  0.44563930511E+02  0.00000000000E+00 0.  1.
</event>
<event>
12    1  0.9873238E-001  0.2899423E+03  0.7818608E-02  0.1090579E+00
         21   -1    0    0  501  502  0.00000000000E+00  0.00000000000E+00  0.42760488944E+03  0.42760488944E+03  0.00000000000E+00 0.  1.
         21   -1    0    0  502  503 -0.00000000000E+00 -0.00000000000E+00 -0.54293602662E+03  0.54293602662E+03  0.00000000000E+00 0.  1.
         -6    2    1    2    0  503 -0.14901664601E+03 -0.18027430497E+03  0.33054565412E+03  0.43868318464E+03  0.16875343317E+03 0.  0.
        -24    2    3    3    0    0 -0.14852239908E+03 -0.17850586270E+03  0.34496977641E+03  0.42340192253E+03  0.79635389890E+02 0.  0.
          6    2    1    2  501    0  0.14901664601E+03  0.18027430497E+03 -0.44587679131E+03  0.53185773142E+03  0.17135269948E+03 0.  0.
         24    2    5    5    0    0  0.98413088906E+02  0.33531292842E+02 -0.16681260136E+03  0.21249407708E+03  0.80732924842E+02 0.  0.
          5    1    5    5  501    0  0.50603557103E+02  0.14674301213E+03 -0.27906418995E+03  0.31936365434E+03  0.47000000000E+01 0. -1.
        -11    1    6    6    0    0  0.27849607981E+02  0.39591131436E+02 -0.26172000190E+02  0.55027556251E+02  0.00000000000E+00 0.  1.
         12    1    6    6    0    0  0.70563480925E+02 -0.60598385943E+01 -0.14064060117E+03  0.15746652083E+03  0.00000000000E+00 0. -1.
         -5    1    3    3    0  503 -0.49424692471E+00 -0.17684422712E+01 -0.14424122281E+02  0.15281262110E+02  0.47000000000E+01 0.  1.
         13    1    4    4    0    0 -0.79154387867E+02 -0.14491162766E+03  0.26578274086E+03  0.31289816601E+03  0.00000000000E+00 0. -1.
        -14    1    4    4    0    0 -0.69368011217E+02 -0.33594235037E+02  0.79187035541E+02  0.11050375652E+03  0.00000000000E+00 0.  1.
</event>
<event>
12    1  0.9873238E-001  0.1801093E+03  0.7818608E-02  0.1168192E+00
         21   -1    0    0  503  502  0.00000000000E+00  0.00000000000E+00  0.10757744657E+04  0.10757744657E+04  0.00000000000E+00 0.  1.
         21   -1    0    0  501  503 -0.00000000000E+00 -0.00000000000E+00 -0.31592240998E+02  0.31592240998E+02  0.00000000000E+00 0.  1.
          6    2    1    2  501    0 -0.52717164246E+02 -0.80811324233E+01  0.65062157912E+03  0.67455112107E+03  0.16990106419E+03 0.  0.
         24    2    3    3    0    0 -0.16662416467E+02 -0.29736750276E+01  0.13932850994E+03  0.16194140252E+03  0.80784313470E+02 0.  0.
         -6    2    1    2    0  502  0.52717164246E+02  0.80811324233E+01  0.39356064562E+03  0.43281558567E+03  0.17203181481E+03 0.  0.
        -24    2    5    5    0    0  0.83542419539E-01  0.15702281520E+02  0.36184008221E+03  0.37071353898E+03  0.79080429078E+02 0.  0.
          5    1    3    3  501    0 -0.36054747780E+02 -0.51074573956E+01  0.51129306918E+03  0.51260971855E+03  0.47000000000E+01 0. -1.
        -13    1    4    4    0    0 -0.30407652754E+01 -0.25219330947E+02  0.13258846417E+03  0.13499985829E+03  0.00000000000E+00 0.  1.
         14    1    4    4    0    0 -0.13621651191E+02  0.22245655919E+02  0.67400457632E+01  0.26941544227E+02  0.00000000000E+00 0. -1.
         -5    1    5    5    0  502  0.52633621827E+02 -0.76211490967E+01  0.31720563414E+02  0.62102046693E+02  0.47000000000E+01 0.  1.
         11    1    6    6    0    0 -0.22630702591E+02  0.40754830973E+02  0.19698245180E+03  0.20242329723E+03  0.00000000000E+00 0. -1.
        -12    1    6    6    0    0  0.22714245010E+02 -0.25052549453E+02  0.16485763041E+03  0.16829024174E+03  0.00000000000E+00 0.  1.
</event>
<event>
12    1  0.9873238E-001  0.3484337E+03  0.7818608E-02  0.1063324E+00
         21   -1    0    0  503  502  0.00000000000E+00  0.00000000000E+00  0.43457499520E+03  0.43457499520E+03  0.00000000000E+00 0.  1.
         21   -1    0    0  501  503 -0.00000000000E+00 -0.00000000000E+00 -0.43306798597E+03  0.43306798597E+03  0.00000000000E+00 0.  1.
          6    2    1    2  501    0 -0.30051352990E+03 -0.32965268655E+02 -0.25810939926E+03  0.43312400844E+03  0.17199085473E+03 0.  0.
         24    2    3    3    0    0 -0.79883750593E+02 -0.53677421919E+02 -0.77328136633E+02  0.14709875129E+03  0.79973262308E+02 0.  0.
         -6    2    1    2    0  502  0.30051352990E+03  0.32965268655E+02  0.25961640849E+03  0.43451897273E+03  0.17323673835E+03 0.  0.
        -24    2    5    5    0    0  0.58194178233E+02  0.11220681757E+02  0.11833729581E+03  0.15314133870E+03  0.77046011973E+02 0.  0.
          5    1    3    3  501    0 -0.22062977930E+03  0.20712153263E+02 -0.18078126263E+03  0.28602525715E+03  0.47000000000E+01 0. -1.
        -13    1    4    4    0    0  0.13374805675E+02 -0.23735007472E+01  0.28014193683E+01  0.13869638897E+02  0.00000000000E+00 0.  1.
         14    1    4    4    0    0 -0.93258556269E+02 -0.51303921171E+02 -0.80129556001E+02  0.13322911240E+03  0.00000000000E+00 0. -1.
         -5    1    5    5    0  502  0.24231935166E+03  0.21744586898E+02  0.14127911268E+03  0.28137763402E+03  0.47000000000E+01 0.  1.
         11    1    6    6    0    0  0.68450597569E+02 -0.31929625184E+01  0.11675711740E+03  0.13538058864E+03  0.00000000000E+00 0. -1.
        -12    1    6    6    0    0 -0.10256419337E+02  0.14413644276E+02  0.15801784085E+01  0.17760750061E+02  0.00000000000E+00 0.  1.
</event>
<event>
12    1  0.9873238E-001  0.3626813E+03  0.7818608E-02  0.1057593E+00
         21   -1    0    0  501  502  0.00000000000E+00  0.00000000000E+00  0.10101379022E+04  0.10101379022E+04  0.00000000000E+00 0.  1.
         21   -1    0    0  502  503 -0.00000000000E+00 -0.00000000000E+00 -0.13164379560E+03  0.13164379560E+03  0.00000000000E+00 0.  1.
         -6    2    1    2    0  503  0.23961815985E+03  0.21068304094E+03  0.37462494742E+03  0.52095818088E+03  0.17102446821E+03 0.  0.
        -24    2    3    3    0    0  0.11908628855E+03  0.50965637975E+02  0.10449577576E+03  0.18475966781E+03  0.80235449293E+02 0.  0.
          6    2    1    2  501    0 -0.23961815985E+03 -0.21068304094E+03  0.50386915921E+03  0.62082351695E+03  0.17243405502E+03 0.  0.
         24    2    5    5    0    0 -0.88008417943E+02 -0.15239325325E+03  0.21276337457E+03  0.28743503329E+03  0.79884038062E+02 0.  0.
          5    1    5    5  501    0 -0.15160974191E+03 -0.58289787683E+02  0.29110578464E+03  0.33338848367E+03  0.47000000000E+01 0. -1.
        -11    1    6    6    0    0  0.57150668940E+01 -0.38054146348E+02  0.79812427212E+02  0.88604760489E+02  0.00000000000E+00 0.  1.
         12    1    6    6    0    0 -0.93723484837E+02 -0.11433910691E+03  0.13295094736E+03  0.19883027280E+03  0.00000000000E+00 0. -1.
         -5    1    3    3    0  503  0.12053187131E+03  0.15971740296E+03  0.27012917166E+03  0.33619851307E+03  0.47000000000E+01 0.  1.
         13    1    4    4    0    0  0.51596500534E+02  0.54284468215E+02  0.87322675975E+02  0.11504021947E+03  0.00000000000E+00 0. -1.
        -14    1    4    4    0    0  0.67489788012E+02 -0.33188302397E+01  0.17173099782E+02  0.69719448335E+02  0.00000000000E+00 0.  1.
</event>
<event>
12    1  0.9873238E-001  0.4255384E+03  0.7818608E-02  0.1035293E+00
         21   -1    0    0  503  502  0.00000000000E+00  0.00000000000E+00  0.79426643501E+03  0.79426643501E+03  0.00000000000E+00 0.  1.
         21   -1    0    0  501  503 -0.00000000000E+00 -0.00000000000E+00 -0.22800242404E+03  0.22800242404E+03  0.00000000000E+00 0.  1.
          6    2    1    2  501    0 -0.26402844055E+03 -0.28520138208E+03  0.27203318858E+03  0.50505936308E+03  0.17329760178E+03 0.  0.
         24    2    3    3    0    0 -0.14838812214E+03 -0.73397216289E+02  0.10013059882E+03  0.20873812142E+03  0.78353559994E+02 0.  0.
         -6    2    1    2    0  502  0.26402844055E+03  0.28520138208E+03  0.29423082239E+03  0.51720949597E+03  0.17286711695E+03 0.  0.
        -24    2    5    5    0    0  0.85562078774E+02  0.14590508070E+03  0.19458197681E+03  0.26981167001E+03  0.79542628057E+02 0.  0.
          5    1    3    3  501    0 -0.11564031841E+03 -0.21180416579E+03  0.17190258976E+03  0.29632124165E+03  0.47000000000E+01 0. -1.
        -13    1    4    4    0    0 -0.68783155725E+02 -0.49237227449E+02  0.85605920903E+01  0.85021825523E+02  0.00000000000E+00 0.  1.
         14    1    4    4    0    0 -0.79604966419E+02 -0.24159988840E+02  0.91570006729E+02  0.12371629590E+03  0.00000000000E+00 0. -1.
         -5    1    5    5    0  502  0.17846636178E+03  0.13929630138E+03  0.99648845572E+02  0.24739782596E+03  0.47000000000E+01 0.  1.
         11    1    6    6    0    0  0.80767599548E+02  0.14829987869E+03  0.15295442761E+03  0.22784054969E+03  0.00000000000E+00 0. -1.
        -12    1    6    6    0    0  0.47944792262E+01 -0.23947979978E+01  0.41627549208E+02  0.41971120328E+02  0.00000000000E+00 0.  1.
</event>
<event>
12    1  0.9873238E-001  0.3348637E+03  0.7818608E-02  0.1069065E+00
         21   -1    0    0  501  502  0.00000000000E+00  0.00000000000E+00  0.81604240600E+03  0.81604240600E+03  0.00000000000E+00 0.  1.
         21   -1    0    0  502  503 -0.00000000000E+00 -0.00000000000E+00 -0.15052572807E+03  0.15052572807E+03  0.00000000000E+00 0.  1.
         -6    2    1    2    0  503 -0.28320108258E+03 -0.47921129238E+02  0.47638403301E+03  0.58198409224E+03  0.17106855034E+03 0.  0.
        -24    2    3    3    0    0 -0.28573593496E+03 -0.56153075180E+02  0.38024275904E+03  0.48534339185E+03  0.78584094047E+02 0.  0.
          6    2    1    2  501    0  0.28320108258E+03  0.47921129238E+02  0.18913264493E+03  0.38458404183E+03  0.17214656560E+03 0.  0.
         24    2    5    5    0    0  0.15857344653E+03  0.90986141053E+02  0.13962256069E+03  0.24365859576E+03  0.80318341755E+02 0.  0.
          5    1    5    5  501    0  0.12462763605E+03 -0.43065011815E+02  0.49510084234E+02  0.14092544607E+03  0.47000000000E+01 0. -1.
        -11    1    6    6    0    0  0.55083522724E+01  0.16760838450E+01  0.39897614748E+02  0.40310927357E+02  0.00000000000E+00 0.  1.
         12    1    6    6    0    0  0.15306509426E+03  0.89310057208E+02  0.99724945945E+02  0.20334766840E+03  0.00000000000E+00 0. -1.
         -5    1    3    3    0  503  0.25348523822E+01  0.82319459419E+01  0.96141273970E+02  0.96640700387E+02  0.47000000000E+01 0.  1.
         11    1    4    4    0    0 -0.15954543681E+03 -0.18800373289E+02  0.26758891203E+03  0.31210899744E+03  0.00000000000E+00 0. -1.
        -12    1    4    4    0    0 -0.12619049815E+03 -0.37352701892E+02  0.11265384701E+03  0.17323439442E+03  0.00000000000E+00 0.  1.
</event>
<event>
12    1  0.9873238E-001  0.2167467E+03  0.7818608E-02  0.1136496E+00
         21   -1    0    0  501  502  0.00000000000E+00  0.00000000000E+00  0.33014771955E+03  0.33014771955E+03  0.00000000000E+00 0.  1.
         21   -1    0    0  502  503 -0.00000000000E+00 -0.00000000000E+00 -0.15049932624E+03  0.15049932624E+03  0.00000000000E+00 0.  1.
         -6    2    1    2    0  503 -0.10262617041E+01  0.13048689494E+03  0.14765432242E+03  0.26155175561E+03  0.17198732211E+03 0.  0.
        -24    2    3    3    0    0 -0.57941523661E+02  0.10233892311E+03  0.13352182661E+03  0.19633310183E+03  0.82994779040E+02 0.  0.
          6    2    1    2  501    0  0.10262617041E+01 -0.13048689494E+03  0.31994070889E+02  0.21909529017E+03  0.17306427314E+03 0.  0.
         24    2    5    5    0    0  0.62665809867E+02 -0.71050226116E+02 -0.90995517912E+01  0.12400098265E+03  0.79487756900E+02 0.  0.
          5    1    5    5  501    0 -0.61639548163E+02 -0.59436668827E+02  0.41093622680E+02  0.95094307526E+02  0.47000000000E+01 0. -1.
        -11    1    6    6    0    0  0.33844608716E+02 -0.56907607097E+02  0.30603758367E+02  0.72941917378E+02  0.00000000000E+00 0.  1.
         12    1    6    6    0    0  0.28821201150E+02 -0.14142619020E+02 -0.39703310159E+02  0.51059065268E+02  0.00000000000E+00 0. -1.
         -5    1    3    3    0  503  0.56915261957E+02  0.28147971837E+02  0.14132495810E+02  0.65218653773E+02  0.47000000000E+01 0.  1.
         11    1    4    4    0    0 -0.33310544016E+02  0.15528530867E+02  0.87782966092E+02  0.95166048303E+02  0.00000000000E+00 0. -1.
        -12    1    4    4    0    0 -0.24630979645E+02  0.86810392238E+02  0.45738860519E+02  0.10116705353E+03  0.00000000000E+00 0.  1.
</event>
<event>
12    1  0.9873238E-001  0.1723268E+03  0.7818608E-02  0.1175487E+00
         21   -1    0    0  501  502  0.00000000000E+00  0.00000000000E+00  0.10067332873E+03  0.10067332873E+03  0.00000000000E+00 0. -1.
         21   -1    0    0  502  503 -0.00000000000E+00 -0.00000000000E+00 -0.50796672547E+03  0.50796672547E+03  0.00000000000E+00 0. -1.
         -6    2    1    2    0  503 -0.10518804383E+02  0.20653872398E-01 -0.40089922674E+03  0.43636764033E+03  0.17200547041E+03 0.  0.
        -24    2    3    3    0    0 -0.20261101880E+02 -0.64241989637E+02 -0.27849287213E+03  0.29769534547E+03  0.80787953354E+02 0.  0.
          6    2    1    2  501    0  0.10518804383E+02 -0.20653872398E-01 -0.63941699968E+01  0.17227241387E+03  0.17183205027E+03 0.  0.
         24    2    5    5    0    0  0.82886526064E+01 -0.52224934368E+02  0.56840828975E+01  0.11843715896E+03  0.10582488503E+03 0.  0.
          5    1    5    5  501    0  0.22301517767E+01  0.52204280496E+02 -0.12078252894E+02  0.53835254917E+02  0.47000000000E+01 0. -1.
        -11    1    6    6    0    0  0.22148817517E+02 -0.57874988415E+02  0.44858481158E+02  0.76500769495E+02  0.00000000000E+00 0.  1.
         12    1    6    6    0    0 -0.13860164911E+02  0.56500540469E+01 -0.39174398261E+02  0.41936389463E+02  0.00000000000E+00 0. -1.
         -5    1    3    3    0  503  0.97422974967E+01  0.64262643509E+02 -0.12240635461E+03  0.13867229486E+03  0.47000000000E+01 0.  1.
         13    1    4    4    0    0 -0.51581289122E+02 -0.36884407340E+02 -0.15937071220E+03  0.17152292208E+03  0.00000000000E+00 0. -1.
        -14    1    4    4    0    0  0.31320187242E+02 -0.27357582297E+02 -0.11912215993E+03  0.12617242339E+03  0.00000000000E+00 0.  1.
</event>
<event>
12    1  0.9873238E-001  0.3042619E+03  0.7818608E-02  0.1084678E+00
         21   -1    0    0  503  502  0.00000000000E+00  0.00000000000E+00  0.57193189002E+03  0.57193189002E+03  0.00000000000E+00 0.  1.
         21   -1    0    0  501  503 -0.00000000000E+00 -0.00000000000E+00 -0.15944245959E+03  0.15944245959E+03  0.00000000000E+00 0.  1.
          6    2    1    2  501    0  0.23278058535E+03 -0.43422406276E+02  0.15193164877E+03  0.34008605776E+03  0.19105756854E+03 0.  0.
         24    2    3    3    0    0  0.59911627300E+02  0.30298460040E+02  0.74034781107E+01  0.10295966761E+03  0.77707669504E+02 0.  0.
         -6    2    1    2    0  502 -0.23278058535E+03  0.43422406276E+02  0.26055778165E+03  0.39128829185E+03  0.17071573881E+03 0.  0.
        -24    2    5    5    0    0 -0.22944199277E+03  0.67503566349E+02  0.26527706793E+03  0.36608094899E+03  0.80268168841E+02 0.  0.
          5    1    3    3  501    0  0.17286895805E+03 -0.73720866316E+02  0.14452817066E+03  0.23712639015E+03  0.47000000000E+01 0. -1.
        -11    1    4    4    0    0  0.11538058869E+01  0.33001273626E+02  0.25164060912E+02  0.41516807326E+02  0.00000000000E+00 0.  1.
         12    1    4    4    0    0  0.58757821413E+02 -0.27028135862E+01 -0.17760582801E+02  0.61442860284E+02  0.00000000000E+00 0. -1.
         -5    1    5    5    0  502 -0.33385925824E+01 -0.24081160073E+02 -0.47192862812E+01  0.25207342856E+02  0.47000000000E+01 0.  1.
         13    1    6    6    0    0 -0.21251044337E+03  0.35519729466E+02  0.21756977758E+03  0.30620082926E+03  0.00000000000E+00 0. -1.
        -14    1    6    6    0    0 -0.16931549403E+02  0.31983836883E+02  0.47707290349E+02  0.59880119735E+02  0.00000000000E+00 0.  1.
</event>
<event>
12    1  0.9873238E-001  0.2532975E+03  0.7818608E-02  0.1111338E+00
         21   -1    0    0  503  502  0.00000000000E+00  0.00000000000E+00  0.97170201649E+03  0.97170201649E+03  0.00000000000E+00 0. -1.
         21   -1    0    0  501  503 -0.00000000000E+00 -0.00000000000E+00 -0.68987648442E+02  0.68987648442E+02  0.00000000000E+00 0.  1.
          6    2    1    2  501    0  0.17850191799E+03  0.48525742766E+02  0.56157590300E+03  0.61579548778E+03  0.17210143958E+03 0.  0.
         24    2    3    3    0    0  0.11306776696E+03 -0.32934606455E+02  0.25191813438E+03  0.28895081476E+03  0.78490882861E+02 0.  0.
         -6    2    1    2    0  502 -0.17850191799E+03 -0.48525742766E+02  0.34113846505E+03  0.42489417715E+03  0.17303735725E+03 0.  0.
        -24    2    5    5    0    0 -0.68230809482E+02  0.21099402411E+02  0.84065029393E+02  0.13659533995E+03  0.80565064291E+02 0.  0.
          5    1    3    3  501    0  0.65434151026E+02  0.81460349221E+02  0.30965776862E+03  0.32684467302E+03  0.47000000000E+01 0. -1.
        -13    1    4    4    0    0  0.82382342976E+02 -0.55633438448E+02  0.20950006430E+03  0.23188834997E+03  0.00000000000E+00 0.  1.
         14    1    4    4    0    0  0.30685423988E+02  0.22698831993E+02  0.42418070082E+02  0.57062464796E+02  0.00000000000E+00 0. -1.
         -5    1    5    5    0  502 -0.11027110851E+03 -0.69625145177E+02  0.25707343565E+03  0.28829883720E+03  0.47000000000E+01 0.  1.
         11    1    6    6    0    0 -0.11846800323E+00  0.91706523992E+01  0.63915855264E+02  0.64570515363E+02  0.00000000000E+00 0. -1.
        -12    1    6    6    0    0 -0.68112341479E+02  0.11928750012E+02  0.20149174129E+02  0.72024824586E+02  0.00000000000E+00 0.  1.
</event>
<event>
12    1  0.9873238E-001  0.4800216E+03  0.7818608E-02  0.1019188E+00
         21   -1    0    0  501  502  0.00000000000E+00  0.00000000000E+00  0.24363885352E+03  0.24363885352E+03  0.00000000000E+00 0. -1.
         21   -1    0    0  502  503 -0.00000000000E+00 -0.00000000000E+00 -0.11130437608E+04  0.11130437608E+04  0.00000000000E+00 0. -1.
         -6    2    1    2    0  503 -0.43172721918E+03 -0.11667382098E+03 -0.69934913669E+03  0.84823933289E+03  0.17441209418E+03 0.  0.
        -24    2    3    3    0    0 -0.12812498882E+03 -0.88254873353E+02 -0.24281654071E+03  0.29921651729E+03  0.79785439427E+02 0.  0.
          6    2    1    2  501    0  0.43172721918E+03  0.11667382098E+03 -0.17005577064E+03  0.50844328147E+03  0.17203032598E+03 0.  0.
         24    2    5    5    0    0  0.36398766314E+03  0.12883591702E+03 -0.18845140344E+03  0.43704963092E+03  0.80079560433E+02 0.  0.
          5    1    5    5  501    0  0.67739556043E+02 -0.12162096033E+02  0.18395632796E+02  0.71393650549E+02  0.47000000000E+01 0. -1.
        -11    1    6    6    0    0  0.11038383232E+03  0.18585398742E+01 -0.44996132835E+02  0.11921701463E+03  0.00000000000E+00 0.  1.
         12    1    6    6    0    0  0.25360383082E+03  0.12697737714E+03 -0.14345527060E+03  0.31783261629E+03  0.00000000000E+00 0. -1.
         -5    1    3    3    0  503 -0.30360223036E+03 -0.28418947629E+02 -0.45653259598E+03  0.54902281560E+03  0.47000000000E+01 0.  1.
         11    1    4    4    0    0 -0.84590740829E+02 -0.57539362712E+02 -0.21722349414E+03  0.24010917955E+03  0.00000000000E+00 0. -1.
        -12    1    4    4    0    0 -0.43534247994E+02 -0.30715510641E+02 -0.25593046568E+02  0.59107337742E+02  0.00000000000E+00 0.  1.
</event>
<event>
12    1  0.9873238E-001  0.1909894E+03  0.7818608E-02  0.1159892E+00
         21   -1    0    0  503  502  0.00000000000E+00  0.00000000000E+00  0.27617123322E+02  0.27617123322E+02  0.00000000000E+00 0.  1.
         21   -1    0    0  501  503 -0.00000000000E+00 -0.00000000000E+00 -0.12528345641E+04  0.12528345641E+04  0.00000000000E+00 0.  1.
          6    2    1    2  501    0 -0.71193372713E+02  0.34942854332E+02 -0.64436423748E+03  0.67207308270E+03  0.17374538428E+03 0.  0.
         24    2    3    3    0    0 -0.29765192267E+01 -0.32944603373E+02 -0.10861109670E+03  0.12772414693E+03  0.58505391424E+02 0.  0.
         -6    2    1    2    0  502  0.71193372713E+02 -0.34942854332E+02 -0.58085320326E+03  0.60837860469E+03  0.16261790650E+03 0.  0.
        -24    2    5    5    0    0 -0.19594739404E+02 -0.49536908954E+01 -0.31472308550E+03  0.32555505403E+03  0.80789725788E+02 0.  0.
          5    1    3    3  501    0 -0.68216853487E+02  0.67887457704E+02 -0.53575314078E+03  0.54434893577E+03  0.47000000000E+01 0. -1.
        -11    1    4    4    0    0 -0.27627321450E+02 -0.31562653923E+02 -0.60082407043E+02  0.73275955464E+02  0.00000000000E+00 0.  1.
         12    1    4    4    0    0  0.24650802223E+02 -0.13819494493E+01 -0.48528689655E+02  0.54448191468E+02  0.00000000000E+00 0. -1.
         -5    1    5    5    0  502  0.90788112117E+02 -0.29989163436E+02 -0.26613011776E+03  0.28282355066E+03  0.47000000000E+01 0.  1.
         11    1    6    6    0    0 -0.15741181703E+02  0.37489471316E+02 -0.15264613505E+03  0.15796862918E+03  0.00000000000E+00 0. -1.
        -12    1    6    6    0    0 -0.38535577001E+01 -0.42443162212E+02 -0.16207695045E+03  0.16758642485E+03  0.00000000000E+00 0.  1.
</event>
<event>
12    1  0.9873238E-001  0.2050072E+03  0.7818608E-02  0.1146380E+00
         21   -1    0    0  503  502  0.00000000000E+00  0.00000000000E+00  0.78125591269E+02  0.78125591269E+02  0.00000000000E+00 0. -1.
         21   -1    0    0  501  503 -0.00000000000E+00 -0.00000000000E+00 -0.72731781093E+03  0.72731781093E+03  0.00000000000E+00 0. -1.
          6    2    1    2  501    0 -0.26717456569E+02 -0.10880791788E+03 -0.53773415534E+03  0.57548759247E+03  0.17168273586E+03 0.  0.
         24    2    3    3    0    0  0.93506078695E+01 -0.13647015971E+03 -0.39465444255E+03  0.42528772860E+03  0.80037395723E+02 0.  0.
         -6    2    1    2    0  502  0.26717456569E+02  0.10880791788E+03 -0.11145806432E+03  0.22995580973E+03  0.16704427211E+03 0.  0.
        -24    2    5    5    0    0 -0.26944950589E+02  0.55127161191E+02 -0.11545701997E+03  0.15380228566E+03  0.80992501822E+02 0.  0.
          5    1    3    3  501    0 -0.36068064439E+02  0.27662241829E+02 -0.14307971279E+03  0.15019986387E+03  0.47000000000E+01 0. -1.
        -11    1    4    4    0    0  0.42010557730E+02 -0.61745323601E+02 -0.22458972031E+03  0.23668103941E+03  0.00000000000E+00 0.  1.
         12    1    4    4    0    0 -0.32659949860E+02 -0.74724836109E+02 -0.17006472224E+03  0.18860668919E+03  0.00000000000E+00 0. -1.
         -5    1    5    5    0  502  0.53662407158E+02  0.53680756689E+02  0.39989556533E+01  0.76153524062E+02  0.47000000000E+01 0.  1.
         13    1    6    6    0    0 -0.43546063036E+02  0.17557523956E+02 -0.22272963364E+02  0.51967404692E+02  0.00000000000E+00 0. -1.
        -14    1    6    6    0    0  0.16601112448E+02  0.37569637235E+02 -0.93184056609E+02  0.10183488097E+03  0.00000000000E+00 0.  1.
</event>
<event>
12    1  0.9873238E-001  0.2123344E+03  0.7818608E-02  0.1140467E+00
         21   -1    0    0  501  502  0.00000000000E+00  0.00000000000E+00  0.15379573364E+03  0.15379573364E+03  0.00000000000E+00 0. -1.
         21   -1    0    0  502  503 -0.00000000000E+00 -0.00000000000E+00 -0.29114640010E+03  0.29114640010E+03  0.00000000000E+00 0. -1.
         -6    2    1    2    0  503 -0.43940526415E+02  0.11461168537E+03 -0.92342626137E+02  0.23154493827E+03  0.17326075595E+03 0.  0.
        -24    2    3    3    0    0 -0.53452927129E+01  0.13969480152E+03 -0.42847333165E+02  0.16379075902E+03  0.73812661894E+02 0.  0.
          6    2    1    2  501    0  0.43940526415E+02 -0.11461168537E+03 -0.45008040319E+02  0.21339719547E+03  0.16865951220E+03 0.  0.
         24    2    5    5    0    0  0.90086950316E+02 -0.74372533017E+02 -0.56547473488E+01  0.14046261184E+03  0.77787125369E+02 0.  0.
          5    1    5    5  501    0 -0.46146423901E+02 -0.40239152355E+02 -0.39353292970E+02  0.72934583627E+02  0.47000000000E+01 0. -1.
        -13    1    6    6    0    0  0.51470951057E+02  0.15888382745E+01  0.13259811188E+02  0.53175236741E+02  0.00000000000E+00 0.  1.
         14    1    6    6    0    0  0.38615999260E+02 -0.75961371291E+02 -0.18914558536E+02  0.87287375100E+02  0.00000000000E+00 0. -1.
         -5    1    3    3    0  503 -0.38595233702E+02 -0.25083116144E+02 -0.49495292972E+02  0.67754179254E+02  0.47000000000E+01 0.  1.
         13    1    4    4    0    0  0.33545861108E+02  0.66315117478E+02 -0.12443632721E+02  0.75351599843E+02  0.00000000000E+00 0. -1.
        -14    1    4    4    0    0 -0.38891153821E+02  0.73379684038E+02 -0.30403700444E+02  0.88439159176E+02  0.00000000000E+00 0.  1.
</event>
<event>
12    1  0.9873238E-001  0.1919250E+03  0.7818608E-02  0.1157300E+00
         21   -1    0    0  501  502  0.00000000000E+00  0.00000000000E+00  0.20211752175E+03  0.20211752175E+03  0.00000000000E+00 0. -1.
         21   -1    0    0  502  503 -0.00000000000E+00 -0.00000000000E+00 -0.27102326555E+03  0.27102326555E+03  0.00000000000E+00 0. -1.
         -6    2    1    2    0  503 -0.39408771109E+02 -0.74531354908E+02 -0.17179987424E+03  0.25758568455E+03  0.17241581711E+03 0.  0.
        -24    2    3    3    0    0 -0.89127763921E+02 -0.42011751133E+02 -0.89153800447E+02  0.15569374969E+03  0.81138141609E+02 0.  0.
          6    2    1    2  501    0  0.39408771109E+02  0.74531354908E+02  0.10289413044E+03  0.21555510275E+03  0.16961375574E+03 0.  0.
         24    2    5    5    0    0  0.10514769662E+02  0.27860958144E+02  0.13047039715E+03  0.15394723199E+03  0.76094890351E+02 0.  0.
          5    1    5    5  501    0  0.28894001446E+02  0.46670396765E+02 -0.27576266702E+02  0.61607870755E+02  0.47000000000E+01 0. -1.
        -11    1    6    6    0    0  0.36425298684E+02  0.28038233671E+02  0.43824955146E+02  0.63510405644E+02  0.00000000000E+00 0.  1.
         12    1    6    6    0    0 -0.25910529021E+02 -0.17727552764E+00  0.86645442001E+02  0.90436826350E+02  0.00000000000E+00 0. -1.
         -5    1    3    3    0  503  0.49718992812E+02 -0.32519603775E+02 -0.82646073790E+02  0.10189193486E+03  0.47000000000E+01 0.  1.
         11    1    4    4    0    0 -0.32397156540E+02 -0.57517046676E+02 -0.30801362117E+02  0.72845798221E+02  0.00000000000E+00 0. -1.
        -12    1    4    4    0    0 -0.56730607381E+02  0.15505295543E+02 -0.58352438330E+02  0.82847951470E+02  0.00000000000E+00 0.  1.
</event>
<event>
12    1  0.9873238E-001  0.1743963E+03  0.7818608E-02  0.1173480E+00
         21   -1    0    0  503  502  0.00000000000E+00  0.00000000000E+00  0.59251012496E+03  0.59251012496E+03  0.00000000000E+00 0.  1.
         21   -1    0    0  501  503 -0.00000000000E+00 -0.00000000000E+00 -0.51433446209E+02  0.51433446209E+02  0.00000000000E+00 0.  1.
          6    2    1    2  501    0  0.25396256933E+02 -0.20560193460E+02  0.24693007407E+03  0.30198409104E+03  0.17074026573E+03 0.  0.
         24    2    3    3    0    0 -0.11296661895E+02 -0.32690983110E+02  0.24823572888E+03  0.26303128519E+03  0.79800782873E+02 0.  0.
         -6    2    1    2    0  502 -0.25396256933E+02  0.20560193460E+02  0.29414660468E+03  0.34195948013E+03  0.17130782114E+03 0.  0.
        -24    2    5    5    0    0 -0.85103665863E+01  0.20343073519E+02  0.30850129723E+03  0.31930274533E+03  0.79340568465E+02 0.  0.
          5    1    3    3  501    0  0.36692918828E+02  0.12130789650E+02 -0.13056548076E+01  0.38952805857E+02  0.47000000000E+01 0. -1.
        -11    1    4    4    0    0  0.31241417828E+02 -0.42927469301E+01  0.13726877136E+03  0.14084448678E+03  0.00000000000E+00 0.  1.
         12    1    4    4    0    0 -0.42538079723E+02 -0.28398236180E+02  0.11096695752E+03  0.12218679841E+03  0.00000000000E+00 0. -1.
         -5    1    5    5    0  502 -0.16885890346E+02  0.21711994094E+00 -0.14354692544E+02  0.22656734802E+02  0.47000000000E+01 0.  1.
         13    1    6    6    0    0 -0.40038947922E+02 -0.49876706694E+01  0.12318810752E+03  0.12962755897E+03  0.00000000000E+00 0. -1.
        -14    1    6    6    0    0  0.31528581335E+02  0.25330744189E+02  0.18531318970E+03  0.18967518636E+03  0.00000000000E+00 0.  1.
</event>
<event>
12    1  0.9873238E-001  0.4388896E+03  0.7818608E-02  0.1031151E+00
         21   -1    0    0  501  502  0.00000000000E+00  0.00000000000E+00  0.10809037791E+04  0.10809037791E+04  0.00000000000E+00 0.  1.
         21   -1    0    0  502  503 -0.00000000000E+00 -0.00000000000E+00 -0.24995326269E+03  0.24995326269E+03  0.00000000000E+00 0.  1.
         -6    2    1    2    0  503  0.39990220824E+03 -0.54160569842E+02  0.57868442463E+02  0.44188010115E+03  0.17045270217E+03 0.  0.
        -24    2    3    3    0    0  0.84221435136E+02 -0.21316559190E+02  0.78224807606E+01  0.12053952197E+03  0.83192183045E+02 0.  0.
          6    2    1    2  501    0 -0.39990220824E+03  0.54160569842E+02  0.77308207396E+03  0.88897694064E+03  0.17253684953E+03 0.  0.
         24    2    5    5    0    0 -0.38767946786E+03  0.35216636114E+02  0.76878226174E+03  0.86554946975E+03  0.81327346898E+02 0.  0.
          5    1    5    5  501    0 -0.12222740381E+02  0.18943933728E+02  0.42998122129E+01  0.23427470896E+02  0.47000000000E+01 0. -1.
        -11    1    6    6    0    0 -0.19862303864E+03  0.56844462216E+02  0.42742848789E+03  0.47473941971E+03  0.00000000000E+00 0.  1.
         12    1    6    6    0    0 -0.18905642921E+03 -0.21627826102E+02  0.34135377386E+03  0.39081005004E+03  0.00000000000E+00 0. -1.
         -5    1    3    3    0  503  0.31568077310E+03 -0.32844010652E+02  0.50045961702E+02  0.32134057917E+03  0.47000000000E+01 0.  1.
         11    1    4    4    0    0  0.10046221084E+03 -0.22791020261E+02  0.14331620719E+01  0.10302495020E+03  0.00000000000E+00 0. -1.
        -12    1    4    4    0    0 -0.16240775703E+02  0.14744610706E+01  0.63893186888E+01  0.17514571767E+02  0.00000000000E+00 0.  1.
</event>
<event>
12    1  0.9873238E-001  0.2666104E+03  0.7818608E-02  0.1103472E+00
         21   -1    0    0  503  502  0.00000000000E+00  0.00000000000E+00  0.39540363431E+03  0.39540363431E+03  0.00000000000E+00 0.  1.
         21   -1    0    0  501  503 -0.00000000000E+00 -0.00000000000E+00 -0.18258607239E+03  0.18258607239E+03  0.00000000000E+00 0.  1.
          6    2    1    2  501    0  0.57776710437E+02 -0.19230549164E+03  0.14836844834E+03  0.30370011200E+03  0.17291908854E+03 0.  0.
         24    2    3    3    0    0  0.26271806841E+02 -0.10258936661E+03  0.64867185371E+01  0.13283742651E+03  0.79930709921E+02 0.  0.
         -6    2    1    2    0  502 -0.57776710437E+02  0.19230549164E+03  0.64449113580E+02  0.27428959470E+03  0.17538968936E+03 0.  0.
        -24    2    5    5    0    0 -0.10376371516E+03  0.17323179721E+03  0.49741182659E+02  0.22216451767E+03  0.78145527798E+02 0.  0.
          5    1    3    3  501    0  0.31504903596E+02 -0.89716125031E+02  0.14188172980E+03  0.17086268549E+03  0.47000000000E+01 0. -1.
        -13    1    4    4    0    0 -0.79252370340E+01 -0.60496332082E+02  0.36254228149E+02  0.70971717156E+02  0.00000000000E+00 0.  1.
         14    1    4    4    0    0  0.34197043875E+02 -0.42093034531E+02 -0.29767509612E+02  0.61865709357E+02  0.00000000000E+00 0. -1.
         -5    1    5    5    0  502  0.45987004721E+02  0.19073694438E+02  0.14707930921E+02  0.52125077023E+02  0.47000000000E+01 0.  1.
         11    1    6    6    0    0 -0.56517841538E+02  0.10447956995E+03  0.67852990167E+02  0.13680012874E+03  0.00000000000E+00 0. -1.
        -12    1    6    6    0    0 -0.47245873620E+02  0.68752227258E+02 -0.18111807508E+02  0.85364388935E+02  0.00000000000E+00 0.  1.
</event>
<event>
12    1  0.9873238E-001  0.4607125E+03  0.7818608E-02  0.1024588E+00
         21   -1    0    0  501  502  0.00000000000E+00  0.00000000000E+00  0.66295652716E+03  0.66295652716E+03  0.00000000000E+00 0.  1.
         21   -1    0    0  502  503 -0.00000000000E+00 -0.00000000000E+00 -0.37749315748E+03  0.37749315748E+03  0.00000000000E+00 0.  1.
         -6    2    1    2    0  503 -0.35483511711E+03 -0.23848403125E+03  0.34565612957E+03  0.57582170176E+03  0.17120128159E+03 0.  0.
        -24    2    3    3    0    0 -0.30270924358E+03 -0.12879607685E+03  0.26094968307E+03  0.42768046473E+03  0.81206694642E+02 0.  0.
          6    2    1    2  501    0  0.35483511711E+03  0.23848403125E+03 -0.60192759879E+02  0.46462798288E+03  0.17167818918E+03 0.  0.
         24    2    5    5    0    0  0.33681301700E+03  0.20024831108E+03 -0.93246654722E+02  0.41076318590E+03  0.80554712873E+02 0.  0.
          5    1    5    5  501    0  0.18022100110E+02  0.38235720166E+02  0.33053894843E+02  0.53864796976E+02  0.47000000000E+01 0. -1.
        -11    1    6    6    0    0  0.29172913337E+03  0.13838235957E+03 -0.84169277390E+02  0.33367653792E+03  0.00000000000E+00 0.  1.
         12    1    6    6    0    0  0.45083883627E+02  0.61865951506E+02 -0.90773773319E+01  0.77086647987E+02  0.00000000000E+00 0. -1.
         -5    1    3    3    0  503 -0.52125873527E+02 -0.10968795440E+03  0.84706446501E+02  0.14814123703E+03  0.47000000000E+01 0.  1.
         11    1    4    4    0    0 -0.26162987627E+02 -0.25357311037E+02  0.61122424506E+02  0.71157894306E+02  0.00000000000E+00 0. -1.
        -12    1    4    4    0    0 -0.27654625596E+03 -0.10343876581E+03  0.19982725856E+03  0.35652257042E+03  0.00000000000E+00 0.  1.
</event>
<event>
12    1  0.9873238E-001  0.2329356E+03  0.7818608E-02  0.1125641E+00
         21   -1    0    0  501  502  0.00000000000E+00  0.00000000000E+00  0.73363269855E+02  0.73363269855E+02  0.00000000000E+00 0. -1.
         21   -1    0    0  502  503 -0.00000000000E+00 -0.00000000000E+00 -0.81829967585E+03  0.81829967585E+03  0.00000000000E+00 0. -1.
         -6    2    1    2    0  503 -0.77657469828E+02  0.13596561785E+03 -0.22278542765E+03  0.32232334355E+03  0.17245770254E+03 0.  0.
        -24    2    3    3    0    0 -0.68349708099E+02  0.68892818840E+02 -0.48914780408E+02  0.13567263563E+03  0.81218872380E+02 0.  0.
          6    2    1    2  501    0  0.77657469828E+02 -0.13596561785E+03 -0.52215097834E+03  0.56933960215E+03  0.16428209441E+03 0.  0.
         24    2    5    5    0    0 -0.58549027968E+01 -0.59617068675E+02 -0.34396484299E+03  0.35820976965E+03  0.80087146881E+02 0.  0.
          5    1    5    5  501    0  0.83512372624E+02 -0.76348549170E+02 -0.17818613535E+03  0.21112983250E+03  0.47000000000E+01 0. -1.
        -11    1    6    6    0    0 -0.32324839395E+01 -0.30033530384E+02 -0.29087900668E+02  0.41935281864E+02  0.00000000000E+00 0.  1.
         12    1    6    6    0    0 -0.26224188573E+01 -0.29583538292E+02 -0.31487694232E+03  0.31627448778E+03  0.00000000000E+00 0. -1.
         -5    1    3    3    0  503 -0.93077617282E+01  0.67072799006E+02 -0.17387064724E+03  0.18665070792E+03  0.47000000000E+01 0.  1.
         13    1    4    4    0    0 -0.43653594622E+02  0.64960040339E+02  0.27076372221E+01  0.78312032687E+02  0.00000000000E+00 0. -1.
        -14    1    4    4    0    0 -0.24696113478E+02  0.39327785005E+01 -0.51622417630E+02  0.57360602940E+02  0.00000000000E+00 0.  1.
</event>
<event>
12    1  0.9873238E-001  0.7019219E+03  0.7818608E-02  0.9714011E-01
         21   -1    0    0  503  502  0.00000000000E+00  0.00000000000E+00  0.12117874186E+04  0.12117874186E+04  0.00000000000E+00 0.  1.
         21   -1    0    0  501  503 -0.00000000000E+00 -0.00000000000E+00 -0.41808507846E+03  0.41808507846E+03  0.00000000000E+00 0.  1.
          6    2    1    2  501    0  0.55867802388E+03  0.38882397537E+03  0.26125304242E+03  0.74896427592E+03  0.17143254135E+03 0.  0.
         24    2    3    3    0    0  0.56457286557E+03  0.38054759444E+03  0.24254364315E+03  0.72716108209E+03  0.79855045518E+02 0.  0.
         -6    2    1    2    0  502 -0.55867802388E+03 -0.38882397537E+03  0.53244929773E+03  0.88090822117E+03  0.17085614205E+03 0.  0.
        -24    2    5    5    0    0 -0.34993995167E+03 -0.31675027008E+03  0.32893572245E+03  0.58056497236E+03  0.77899128685E+02 0.  0.
          5    1    3    3  501    0 -0.58948416930E+01  0.82763809286E+01  0.18709399275E+02  0.21803193828E+02  0.47000000000E+01 0. -1.
        -13    1    4    4    0    0  0.14685807759E+03  0.58538292065E+02  0.55791119193E+02  0.16765045652E+03  0.00000000000E+00 0.  1.
         14    1    4    4    0    0  0.41771478798E+03  0.32200930238E+03  0.18675252396E+03  0.55951062557E+03  0.00000000000E+00 0. -1.
         -5    1    5    5    0  502 -0.20873807221E+03 -0.72073705289E+02  0.20351357528E+03  0.30034324881E+03  0.47000000000E+01 0.  1.
         11    1    6    6    0    0 -0.18763059091E+03 -0.21238482515E+03  0.22164185818E+03  0.35977446532E+03  0.00000000000E+00 0. -1.
        -12    1    6    6    0    0 -0.16230936076E+03 -0.10436544493E+03  0.10729386427E+03  0.22079050704E+03  0.00000000000E+00 0.  1.
</event>
<event>
12    1  0.9873238E-001  0.1774635E+03  0.7818608E-02  0.1170482E+00
         21   -1    0    0  501  502  0.00000000000E+00  0.00000000000E+00  0.65888685292E+03  0.65888685292E+03  0.00000000000E+00 0. -1.
         21   -1    0    0  502  503 -0.00000000000E+00 -0.00000000000E+00 -0.69183264867E+02  0.69183264867E+02  0.00000000000E+00 0. -1.
         -6    2    1    2    0  503 -0.63171173748E+01 -0.41429326324E+02  0.91887625642E+02  0.19984147559E+03  0.17244414913E+03 0.  0.
        -24    2    3    3    0    0  0.53254743415E+02 -0.93244744654E+01  0.76112899602E+02  0.13019623101E+03  0.90746193104E+02 0.  0.
          6    2    1    2  501    0  0.63171173748E+01  0.41429326324E+02  0.49781596241E+03  0.52822864219E+03  0.17160556796E+03 0.  0.
         24    2    5    5    0    0 -0.47065664710E+02  0.68467380699E+02  0.33659780414E+03  0.35619910298E+03  0.81711444715E+02 0.  0.
          5    1    5    5  501    0  0.53382782084E+02 -0.27038054376E+02  0.16121815827E+03  0.17202953921E+03  0.47000000000E+01 0. -1.
        -13    1    6    6    0    0 -0.28458043200E+02  0.85952519946E+02  0.24873613199E+03  0.26470239754E+03  0.00000000000E+00 0.  1.
         14    1    6    6    0    0 -0.18607621510E+02 -0.17485139247E+02  0.87861672151E+02  0.91496705438E+02  0.00000000000E+00 0. -1.
         -5    1    3    3    0  503 -0.59571860790E+02 -0.32104851858E+02  0.15774726040E+02  0.69645244579E+02  0.47000000000E+01 0.  1.
         13    1    4    4    0    0  0.34487661505E+02  0.13250902959E+02 -0.10773285873E+02  0.38484398317E+02  0.00000000000E+00 0. -1.
        -14    1    4    4    0    0  0.18767081911E+02 -0.22575377424E+02  0.86886185475E+02  0.91711832692E+02  0.00000000000E+00 0.  1.
</event>
<event>
12    1  0.9873238E-001  0.3311575E+03  0.7818608E-02  0.1070773E+00
         21   -1    0    0  503  502  0.00000000000E+00  0.00000000000E+00  0.20000863817E+03  0.20000863817E+03  0.00000000000E+00 0.  1.
         21   -1    0    0  501  503 -0.00000000000E+00 -0.00000000000E+00 -0.56327886725E+03  0.56327886725E+03  0.00000000000E+00 0. -1.
          6    2    1    2  501    0  0.18994670573E+03 -0.20824742173E+03 -0.24794372357E+03  0.41262311323E+03  0.17127464448E+03 0.  0.
         24    2    3    3    0    0  0.63693418203E+02 -0.14980611994E+03 -0.18681971929E+03  0.26059182611E+03  0.80670733385E+02 0.  0.
         -6    2    1    2    0  502 -0.18994670573E+03  0.20824742173E+03 -0.11532650552E+03  0.35066439218E+03  0.17383490270E+03 0.  0.
        -24    2    5    5    0    0 -0.10470525273E+03  0.72135290331E+02 -0.12277340549E+03  0.18982234562E+03  0.69228056018E+02 0.  0.
          5    1    3    3  501    0  0.12625328753E+03 -0.58441301788E+02 -0.61124004283E+02  0.15203128713E+03  0.47000000000E+01 0. -1.
        -13    1    4    4    0    0 -0.70557729824E+01  0.56766318135E+01 -0.19384512132E+02  0.21395499333E+02  0.00000000000E+00 0.  1.
         14    1    4    4    0    0  0.70749191186E+02 -0.15548275176E+03 -0.16743520715E+03  0.23919632677E+03  0.00000000000E+00 0. -1.
         -5    1    5    5    0  502 -0.85241452999E+02  0.13611213140E+03  0.74468999740E+01  0.16084204656E+03  0.47000000000E+01 0.  1.
         11    1    6    6    0    0 -0.48462760665E+02  0.57288388175E+02 -0.31047055637E+02  0.81206639228E+02  0.00000000000E+00 0. -1.
        -12    1    6    6    0    0 -0.56242492065E+02  0.14846902157E+02 -0.91726349855E+02  0.10861570639E+03  0.00000000000E+00 0.  1.
</event>
<event>
12    1  0.9873238E-001  0.3059261E+03  0.7818608E-02  0.1082507E+00
         21   -1    0    0  501  502  0.00000000000E+00  0.00000000000E+00  0.93262977969E+02  0.93262977969E+02  0.00000000000E+00 0.  1.
         21   -1    0    0  502  503 -0.00000000000E+00 -0.00000000000E+00 -0.99946821569E+03  0.99946821569E+03  0.00000000000E+00 0.  1.
         -6    2    1    2    0  503 -0.25094106050E+03  0.31388259083E+02 -0.43385925922E+03  0.52996883034E+03  0.16934126983E+03 0.  0.
        -24    2    3    3    0    0 -0.13944532124E+03  0.64627041881E+02 -0.16609635669E+03  0.23798393600E+03  0.73666151849E+02 0.  0.
          6    2    1    2  501    0  0.25094106050E+03 -0.31388259083E+02 -0.47234597850E+03  0.56276236332E+03  0.17214562296E+03 0.  0.
         24    2    5    5    0    0  0.15079489903E+03 -0.53674636567E+02 -0.39561462747E+03  0.43456046587E+03  0.81925556707E+02 0.  0.
          5    1    5    5  501    0  0.10014616147E+03  0.22286377485E+02 -0.76731351034E+02  0.12820189745E+03  0.47000000000E+01 0. -1.
        -11    1    6    6    0    0 -0.10208159823E+02 -0.87788621993E+00 -0.19021696399E+02  0.21605604483E+02  0.00000000000E+00 0.  1.
         12    1    6    6    0    0  0.16100305886E+03 -0.52796750347E+02 -0.37659293107E+03  0.41295486138E+03  0.00000000000E+00 0. -1.
         -5    1    3    3    0  503 -0.11149573926E+03 -0.33238782798E+02 -0.26776290252E+03  0.29198489434E+03  0.47000000000E+01 0.  1.
         13    1    4    4    0    0 -0.68121949680E+02 -0.21525923125E+01 -0.42069825146E+02  0.80094343556E+02  0.00000000000E+00 0. -1.
        -14    1    4    4    0    0 -0.71323371559E+02  0.66779634193E+02 -0.12402653155E+03  0.15788959244E+03  0.00000000000E+00 0.  1.
</event>
<event>
12    1  0.9873238E-001  0.1919081E+03  0.7818608E-02  0.1156909E+00
         21   -1    0    0  503  502  0.00000000000E+00  0.00000000000E+00  0.14330369168E+03  0.14330369168E+03  0.00000000000E+00 0.  1.
         21   -1    0    0  501  503 -0.00000000000E+00 -0.00000000000E+00 -0.33337116226E+03  0.33337116226E+03  0.00000000000E+00 0. -1.
          6    2    1    2  501    0 -0.79308248361E+02  0.18026351697E+02  0.19880450073E+02  0.19223358032E+03  0.17304268114E+03 0.  0.
         24    2    3    3    0    0 -0.36554210637E+02 -0.35215120188E+02  0.61500181834E+02  0.11212831120E+03  0.78830012058E+02 0.  0.
         -6    2    1    2    0  502  0.79308248361E+02 -0.18026351697E+02 -0.20994792065E+03  0.28444127362E+03  0.17382163599E+03 0.  0.
        -24    2    5    5    0    0  0.93760915371E+02  0.85112830242E+01 -0.72907366467E+02  0.14402998799E+03  0.81028403445E+02 0.  0.
          5    1    3    3  501    0 -0.42754037724E+02  0.53241471885E+02 -0.41619731761E+02  0.80105269128E+02  0.47000000000E+01 0. -1.
        -13    1    4    4    0    0  0.12915096099E+02 -0.16952056382E+02 -0.97917162387E+01  0.23453136884E+02  0.00000000000E+00 0.  1.
         14    1    4    4    0    0 -0.49469306736E+02 -0.18263063806E+02  0.71291898073E+02  0.88675174312E+02  0.00000000000E+00 0. -1.
         -5    1    5    5    0  502 -0.14452667011E+02 -0.26537634722E+02 -0.13704055419E+03  0.14041128563E+03  0.47000000000E+01 0.  1.
         11    1    6    6    0    0  0.60870976290E+02 -0.33337712332E+02 -0.52510645032E+02  0.87028998958E+02  0.00000000000E+00 0. -1.
        -12    1    6    6    0    0  0.32889939082E+02  0.41848995356E+02 -0.20396721435E+02  0.57000989030E+02  0.00000000000E+00 0.  1.
</event>
<event>
12    1  0.9873238E-001  0.2619617E+03  0.7818608E-02  0.1106043E+00
         21   -1    0    0  501  502  0.00000000000E+00  0.00000000000E+00  0.13596148745E+03  0.13596148745E+03  0.00000000000E+00 0.  1.
         21   -1    0    0  502  503 -0.00000000000E+00 -0.00000000000E+00 -0.50589297364E+03  0.50589297364E+03  0.00000000000E+00 0. -1.
         -6    2    1    2    0  503 -0.15239641010E+03  0.12591136486E+03 -0.16407307732E+03  0.30868542359E+03  0.17113847734E+03 0.  0.
        -24    2    3    3    0    0 -0.14799505033E+03  0.15326582045E+03 -0.16468508547E+03  0.28057665695E+03  0.78798073628E+02 0.  0.
          6    2    1    2  501    0  0.15239641010E+03 -0.12591136486E+03 -0.20585840887E+03  0.33316903750E+03  0.17188829348E+03 0.  0.
         24    2    5    5    0    0  0.24176974156E+02 -0.63214738474E+02 -0.35729827707E+02  0.11104989190E+03  0.80466320057E+02 0.  0.
          5    1    5    5  501    0  0.12821943594E+03 -0.62696626388E+02 -0.17012858116E+03  0.22211914560E+03  0.47000000000E+01 0. -1.
        -13    1    6    6    0    0 -0.12080818824E+02  0.11808777351E+02 -0.20125085042E+02  0.26275700827E+02  0.00000000000E+00 0.  1.
         14    1    6    6    0    0  0.36257792980E+02 -0.75023515825E+02 -0.15604742665E+02  0.84774191074E+02  0.00000000000E+00 0. -1.
         -5    1    3    3    0  503 -0.44013597683E+01 -0.27354455587E+02  0.61200815537E+00  0.28108766644E+02  0.47000000000E+01 0.  1.
         13    1    4    4    0    0 -0.11949999084E+03  0.88554457912E+02 -0.75612772771E+02  0.16685152452E+03  0.00000000000E+00 0. -1.
        -14    1    4    4    0    0 -0.28495059487E+02  0.64711362536E+02 -0.89072312704E+02  0.11372513243E+03  0.00000000000E+00 0.  1.
</event>
<event>
12    1  0.9873238E-001  0.2486530E+03  0.7818608E-02  0.1114192E+00
         21   -1    0    0  501  502  0.00000000000E+00  0.00000000000E+00  0.16809076404E+03  0.16809076404E+03  0.00000000000E+00 0.  1.
         21   -1    0    0  502  503 -0.00000000000E+00 -0.00000000000E+00 -0.54484928121E+03  0.54484928121E+03  0.00000000000E+00 0.  1.
         -6    2    1    2    0  503  0.17213308449E+02 -0.17856913613E+03  0.15039370165E+02  0.24889919102E+03  0.17187608987E+03 0.  0.
        -24    2    3    3    0    0  0.39413405185E+02 -0.28020557001E+02 -0.12305990992E+02  0.94213775582E+02  0.79913890983E+02 0.  0.
          6    2    1    2  501    0 -0.17213308449E+02  0.17856913613E+03 -0.39179788734E+03  0.46404085423E+03  0.17217751160E+03 0.  0.
         24    2    5    5    0    0  0.54223438045E+02  0.12643602056E+03 -0.22763018519E+03  0.27750883307E+03  0.79179559817E+02 0.  0.
          5    1    5    5  501    0 -0.71436746494E+02  0.52133115573E+02 -0.16416770215E+03  0.18653202116E+03  0.47000000000E+01 0. -1.
        -11    1    6    6    0    0  0.22180595853E+02  0.77618963149E+02 -0.61704315841E+02  0.10160760240E+03  0.00000000000E+00 0.  1.
         12    1    6    6    0    0  0.32042842191E+02  0.48817057407E+02 -0.16592586935E+03  0.17590123066E+03  0.00000000000E+00 0. -1.
         -5    1    3    3    0  503 -0.22200096736E+02 -0.15054857913E+03  0.27345361157E+02  0.15468541544E+03  0.47000000000E+01 0.  1.
         11    1    4    4    0    0  0.61266288756E+02 -0.47161109676E+01 -0.73933363979E+01  0.61890720335E+02  0.00000000000E+00 0. -1.
        -12    1    4    4    0    0 -0.21852883570E+02 -0.23304446034E+02 -0.49126545939E+01  0.32323055246E+02  0.00000000000E+00 0.  1.
</event>
<event>
12    1  0.9873238E-001  0.1837223E+03  0.7818608E-02  0.1165875E+00
         21   -1    0    0  501  502  0.00000000000E+00  0.00000000000E+00  0.42761447401E+03  0.42761447401E+03  0.00000000000E+00 0.  1.
         21   -1    0    0  502  503 -0.00000000000E+00 -0.00000000000E+00 -0.77058532356E+02  0.77058532356E+02  0.00000000000E+00 0. -1.
         -6    2    1    2    0  503  0.94609488075E+01 -0.64635685289E+02  0.14322972403E+03  0.22765666421E+03  0.16445522657E+03 0.  0.
        -24    2    3    3    0    0 -0.32391913442E+02  0.15757019818E+02  0.71203814464E+02  0.11179264580E+03  0.78294908714E+02 0.  0.
          6    2    1    2  501    0 -0.94609488075E+01  0.64635685289E+02  0.20732621762E+03  0.27701634216E+03  0.17171666181E+03 0.  0.
         24    2    5    5    0    0 -0.64743294620E+02  0.54496718435E+02  0.91042885280E+02  0.14777687532E+03  0.79922533750E+02 0.  0.
          5    1    5    5  501    0  0.55282345812E+02  0.10138966854E+02  0.11628333234E+03  0.12923946684E+03  0.47000000000E+01 0. -1.
        -11    1    6    6    0    0 -0.23067160218E+01  0.45187037983E+02  0.12365753695E+02  0.46905236434E+02  0.00000000000E+00 0.  1.
         12    1    6    6    0    0 -0.62436578598E+02  0.93096804516E+01  0.78677131585E+02  0.10087163889E+03  0.00000000000E+00 0. -1.
         -5    1    3    3    0  503  0.41852862249E+02 -0.80392705107E+02  0.72025909565E+02  0.11586401841E+03  0.47000000000E+01 0.  1.
         11    1    4    4    0    0 -0.52813431352E+02  0.15464455957E+02  0.72854178876E+02  0.91302460585E+02  0.00000000000E+00 0. -1.
        -12    1    4    4    0    0  0.20421517910E+02  0.29256386145E+00 -0.16503644124E+01  0.20490185213E+02  0.00000000000E+00 0.  1.
</event>
<event>
12    1  0.9873238E-001  0.3007842E+03  0.7818608E-02  0.1084879E+00
         21   -1    0    0  503  502  0.00000000000E+00  0.00000000000E+00  0.28878991895E+03  0.28878991895E+03  0.00000000000E+00 0.  1.
         21   -1    0    0  501  503 -0.00000000000E+00 -0.00000000000E+00 -0.44827551218E+03  0.44827551218E+03  0.00000000000E+00 0. -1.
          6    2    1    2  501    0 -0.46159404724E+02  0.24272253419E+03  0.12266138580E+03  0.32483372278E+03  0.17154070257E+03 0.  0.
         24    2    3    3    0    0 -0.11552167007E+02  0.36494839816E+02  0.60932106600E+02  0.10675090195E+03  0.78852441663E+02 0.  0.
         -6    2    1    2    0  502  0.46159404724E+02 -0.24272253419E+03 -0.28214697903E+03  0.41223170836E+03  0.17112318473E+03 0.  0.
        -24    2    5    5    0    0  0.39920676182E+02 -0.26366809685E+03 -0.26301623190E+03  0.38280869331E+03  0.79059672071E+02 0.  0.
          5    1    3    3  501    0 -0.34607237717E+02  0.20622769437E+03  0.61729279202E+02  0.21808282083E+03  0.47000000000E+01 0. -1.
        -11    1    4    4    0    0  0.21543439431E+02  0.17663013302E+02  0.62722018760E+02  0.68630557762E+02  0.00000000000E+00 0.  1.
         12    1    4    4    0    0 -0.33095606438E+02  0.18831826514E+02 -0.17899121597E+01  0.38120344186E+02  0.00000000000E+00 0. -1.
         -5    1    5    5    0  502  0.62387285425E+01  0.20945562656E+02 -0.19130747130E+02  0.29423015049E+02  0.47000000000E+01 0.  1.
         13    1    6    6    0    0  0.17833710793E+02 -0.84571026404E+02 -0.13959066626E+03  0.16418237985E+03  0.00000000000E+00 0. -1.
        -14    1    6    6    0    0  0.22086965389E+02 -0.17909707044E+03 -0.12342556564E+03  0.21862631345E+03  0.00000000000E+00 0.  1.
</event>
<event>
12    1  0.9873238E-001  0.1955214E+03  0.7818608E-02  0.1153648E+00
         21   -1    0    0  501  502  0.00000000000E+00  0.00000000000E+00  0.53319075728E+02  0.53319075728E+02  0.00000000000E+00 0.  1.
         21   -1    0    0  502  503 -0.00000000000E+00 -0.00000000000E+00 -0.10156298807E+04  0.10156298807E+04  0.00000000000E+00 0.  1.
         -6    2    1    2    0  503 -0.60123405820E+02  0.70017303733E+02 -0.19101748561E+03  0.27334283220E+03  0.17236988530E+03 0.  0.
        -24    2    3    3    0    0 -0.29241494969E+02  0.11353228263E+03 -0.14836474806E+03  0.20486953940E+03  0.78833910719E+02 0.  0.
          6    2    1    2  501    0  0.60123405820E+02 -0.70017303733E+02 -0.77129331934E+03  0.79560612421E+03  0.17198393433E+03 0.  0.
         24    2    5    5    0    0  0.49188708448E+02  0.23051929933E+02 -0.29980505215E+03  0.31487259515E+03  0.79440300664E+02 0.  0.
          5    1    5    5  501    0  0.10934697372E+02 -0.93069233666E+02 -0.47148826719E+03  0.48073352905E+03  0.47000000000E+01 0. -1.
        -13    1    6    6    0    0  0.51669215207E+02  0.13878494421E+02 -0.88924702091E+02  0.10377823977E+03  0.00000000000E+00 0.  1.
         14    1    6    6    0    0 -0.24805067594E+01  0.91734355123E+01 -0.21088035006E+03  0.21109435538E+03  0.00000000000E+00 0. -1.
         -5    1    3    3    0  503 -0.30881910851E+02 -0.43514978899E+02 -0.42652737550E+02  0.68473292800E+02  0.47000000000E+01 0.  1.
         13    1    4    4    0    0 -0.39141032845E+02  0.47724043013E+02 -0.11478847805E+03  0.13033034729E+03  0.00000000000E+00 0. -1.
        -14    1    4    4    0    0  0.98995378755E+01  0.65808239619E+02 -0.33576270019E+02  0.74539192109E+02  0.00000000000E+00 0.  1.
</event>
<event>
12    1  0.9873238E-001  0.1784432E+03  0.7818608E-02  0.1169642E+00
         21   -1    0    0  501  502  0.00000000000E+00  0.00000000000E+00  0.21610878828E+04  0.21610878828E+04  0.00000000000E+00 0. -1.
         21   -1    0    0  502  503 -0.00000000000E+00 -0.00000000000E+00 -0.21934730916E+02  0.21934730916E+02  0.00000000000E+00 0. -1.
         -6    2    1    2    0  503 -0.13512605077E+02 -0.41438986453E+02  0.43686682790E+03  0.47140913231E+03  0.17168041415E+03 0.  0.
        -24    2    3    3    0    0  0.51542496466E+02 -0.15061762933E+02  0.16291467363E+03  0.18856677871E+03  0.78311898864E+02 0.  0.
          6    2    1    2  501    0  0.13512605077E+02  0.41438986453E+02  0.17022863240E+04  0.17116134814E+04  0.17303814853E+03 0.  0.
         24    2    5    5    0    0  0.35659900483E+02 -0.27060589095E+02  0.12667063441E+04  0.12700993781E+04  0.81262316615E+02 0.  0.
          5    1    5    5  501    0 -0.22147295406E+02  0.68499575548E+02  0.43557997988E+03  0.44151410331E+03  0.47000000000E+01 0. -1.
        -13    1    6    6    0    0  0.18888904115E+02 -0.14312725365E+02  0.86014276210E+02  0.89219395413E+02  0.00000000000E+00 0.  1.
         14    1    6    6    0    0  0.16770996368E+02 -0.12747863730E+02  0.11806920679E+04  0.11808799827E+04  0.00000000000E+00 0. -1.
         -5    1    3    3    0  503 -0.65055101543E+02 -0.26377223520E+02  0.27395215427E+03  0.28284235360E+03  0.47000000000E+01 0.  1.
         11    1    4    4    0    0  0.32321848811E+02 -0.31142588756E+02  0.31623940801E+02  0.54905704410E+02  0.00000000000E+00 0. -1.
        -12    1    4    4    0    0  0.19220647655E+02  0.16080825823E+02  0.13129073283E+03  0.13366107430E+03  0.00000000000E+00 0.  1.
</event>
<event>
12    1  0.9873238E-001  0.2093143E+03  0.7818608E-02  0.1142298E+00
         21   -1    0    0  503  502  0.00000000000E+00  0.00000000000E+00  0.74577165315E+02  0.74577165315E+02  0.00000000000E+00 0. -1.
         21   -1    0    0  501  503 -0.00000000000E+00 -0.00000000000E+00 -0.66360525042E+03  0.66360525042E+03  0.00000000000E+00 0.  1.
          6    2    1    2  501    0  0.38642402726E+02 -0.11257793885E+03 -0.42226630649E+03  0.47129748720E+03  0.17217857080E+03 0.  0.
         24    2    3    3    0    0  0.44637499799E+02 -0.45616179968E+02 -0.37441458502E+03  0.38864341538E+03  0.82365530272E+02 0.  0.
         -6    2    1    2    0  502 -0.38642402726E+02  0.11257793885E+03 -0.16676177861E+03  0.26688492853E+03  0.17102937370E+03 0.  0.
        -24    2    5    5    0    0 -0.28741691612E+02  0.10478782026E+03 -0.43201237402E+02  0.14259491537E+03  0.81611217761E+02 0.  0.
          5    1    3    3  501    0 -0.59950970730E+01 -0.66961758879E+02 -0.47851721467E+02  0.82654071820E+02  0.47000000000E+01 0. -1.
        -13    1    4    4    0    0 -0.20688736168E+02  0.21426261872E+01 -0.11615814741E+03  0.11800563487E+03  0.00000000000E+00 0.  1.
         14    1    4    4    0    0  0.65326235967E+02 -0.47758806156E+02 -0.25825643761E+03  0.27063778051E+03  0.00000000000E+00 0. -1.
         -5    1    5    5    0  502 -0.99007111145E+01  0.77901185882E+01 -0.12356054121E+03  0.12429001316E+03  0.47000000000E+01 0.  1.
         13    1    6    6    0    0  0.79847083260E+01  0.80660760577E+02 -0.53936029135E+02  0.97360202869E+02  0.00000000000E+00 0. -1.
        -14    1    6    6    0    0 -0.36726399938E+02  0.24127059683E+02  0.10734791733E+02  0.45234712499E+02  0.00000000000E+00 0.  1.
</event>
<event>
12    1  0.9873238E-001  0.6695428E+03  0.7818608E-02  0.9771790E-01
         21   -1    0    0  501  502  0.00000000000E+00  0.00000000000E+00  0.11582444407E+04  0.11582444407E+04  0.00000000000E+00 0.  1.
         21   -1    0    0  502  503 -0.00000000000E+00 -0.00000000000E+00 -0.46887232882E+03  0.46887232882E+03  0.00000000000E+00 0.  1.
         -6    2    1    2    0  503 -0.61378203386E+03  0.20388597299E+03  0.26255247649E+01  0.66954795421E+03  0.17317532888E+03 0.  0.
        -24    2    3    3    0    0 -0.53547630958E+03  0.13090926219E+03  0.33443283544E+02  0.55806158271E+03  0.80263091328E+02 0.  0.
          6    2    1    2  501    0  0.61378203386E+03 -0.20388597299E+03  0.68674658711E+03  0.95756881530E+03  0.16437544242E+03 0.  0.
         24    2    5    5    0    0  0.34387076911E+03 -0.13631592031E+03  0.47694320006E+03  0.60906149246E+03  0.81559484685E+02 0.  0.
          5    1    5    5  501    0  0.26991126474E+03 -0.67570052682E+02  0.20980338705E+03  0.34850732284E+03  0.47000000000E+01 0. -1.
        -13    1    6    6    0    0  0.16715051609E+03 -0.92523522841E+02  0.29654060248E+03  0.35275519306E+03  0.00000000000E+00 0.  1.
         14    1    6    6    0    0  0.17672025302E+03 -0.43792397466E+02  0.18040259757E+03  0.25630629941E+03  0.00000000000E+00 0. -1.
         -5    1    3    3    0  503 -0.78305724274E+02  0.72976710803E+02 -0.30817758779E+02  0.11148637150E+03  0.47000000000E+01 0.  1.
         11    1    4    4    0    0 -0.30951424788E+03  0.46567225474E+02 -0.91917231689E+01  0.31313266183E+03  0.00000000000E+00 0. -1.
        -12    1    4    4    0    0 -0.22596206171E+03  0.84342036712E+02  0.42635006712E+02  0.24492892088E+03  0.00000000000E+00 0.  1.
</event>
<event>
12    1  0.9873238E-001  0.1962516E+03  0.7818608E-02  0.1154186E+00
         21   -1    0    0  503  502  0.00000000000E+00  0.00000000000E+00  0.88311044466E+02  0.88311044466E+02  0.00000000000E+00 0.  1.
         21   -1    0    0  501  503 -0.00000000000E+00 -0.00000000000E+00 -0.46047132666E+03  0.46047132666E+03  0.00000000000E+00 0.  1.
          6    2    1    2  501    0  0.10557979817E+02 -0.82344132402E+02 -0.11096361116E+03  0.22544984527E+03  0.17782767685E+03 0.  0.
         24    2    3    3    0    0  0.13391055456E+02 -0.68005840658E+02  0.73556900011E+01  0.10613865571E+03  0.80044945696E+02 0.  0.
         -6    2    1    2    0  502 -0.10557979817E+02  0.82344132402E+02 -0.26119667104E+03  0.32333252586E+03  0.17154647835E+03 0.  0.
        -24    2    5    5    0    0  0.53100596464E+02  0.83005162287E+02 -0.16585080113E+03  0.20859030955E+03  0.79334095382E+02 0.  0.
          5    1    3    3  501    0 -0.28330756386E+01 -0.14338291744E+02 -0.11831930116E+03  0.11931118956E+03  0.47000000000E+01 0. -1.
        -11    1    4    4    0    0  0.45777544893E+02 -0.52745198639E+02  0.14652052052E+01  0.69855468091E+02  0.00000000000E+00 0.  1.
         12    1    4    4    0    0 -0.32386489437E+02 -0.15260642018E+02  0.58904847959E+01  0.36283187622E+02  0.00000000000E+00 0. -1.
         -5    1    5    5    0  502 -0.63658576282E+02 -0.66102988456E+00 -0.95345869905E+02  0.11474221631E+03  0.47000000000E+01 0.  1.
         11    1    6    6    0    0  0.33860978830E+02  0.87076290736E+01 -0.12542529777E+02  0.37144363564E+02  0.00000000000E+00 0. -1.
        -12    1    6    6    0    0  0.19239617635E+02  0.74297533213E+02 -0.15330827136E+03  0.17144594599E+03  0.00000000000E+00 0.  1.
</event>
<event>
12    1  0.9873238E-001  0.2642633E+03  0.7818608E-02  0.1104739E+00
         21   -1    0    0  503  502  0.00000000000E+00  0.00000000000E+00  0.21922786821E+03  0.21922786821E+03  0.00000000000E+00 0.  1.
         21   -1    0    0  501  503 -0.00000000000E+00 -0.00000000000E+00 -0.35307110379E+03  0.35307110379E+03  0.00000000000E+00 0.  1.
          6    2    1    2  501    0 -0.18977454294E+03  0.63935823171E+02  0.24030926867E+02  0.26446891179E+03  0.17106768610E+03 0.  0.
         24    2    3    3    0    0 -0.19250922591E+03  0.66741312523E+02  0.61409596491E+02  0.22659274245E+03  0.77839113127E+02 0.  0.
         -6    2    1    2    0  502  0.18977454294E+03 -0.63935823171E+02 -0.15787416245E+03  0.30783006021E+03  0.17243238724E+03 0.  0.
        -24    2    5    5    0    0  0.13398425043E+03 -0.10096592361E+02 -0.14208561294E+02  0.14451100294E+03  0.51262327462E+02 0.  0.
          5    1    3    3  501    0  0.27346829660E+01 -0.28054893519E+01 -0.37378669624E+02  0.37876169346E+02  0.47000000000E+01 0. -1.
        -13    1    4    4    0    0 -0.10589116915E+03  0.72724933166E+02  0.54342721095E+02  0.13948113472E+03  0.00000000000E+00 0.  1.
         14    1    4    4    0    0 -0.86618056757E+02 -0.59836206430E+01  0.70668753960E+01  0.87111607723E+02  0.00000000000E+00 0. -1.
         -5    1    5    5    0  502  0.55790292507E+02 -0.53839230810E+02 -0.14366560115E+03  0.16331905727E+03  0.47000000000E+01 0.  1.
         11    1    6    6    0    0  0.13196700691E+01  0.54067784271E+01  0.73453698183E+01  0.92157061487E+01  0.00000000000E+00 0. -1.
        -12    1    6    6    0    0  0.13266458036E+03 -0.15503370788E+02 -0.21553931112E+02  0.13529529680E+03  0.00000000000E+00 0.  1.
</event>
<event>
12    1  0.9873238E-001  0.2378837E+03  0.7818608E-02  0.1123235E+00
         21   -1    0    0  503  502  0.00000000000E+00  0.00000000000E+00  0.12506528365E+03  0.12506528365E+03  0.00000000000E+00 0. -1.
         21   -1    0    0  501  503 -0.00000000000E+00 -0.00000000000E+00 -0.44476727111E+03  0.44476727111E+03  0.00000000000E+00 0. -1.
          6    2    1    2  501    0  0.99535918599E+02  0.10811595560E+03 -0.10494291243E+03  0.24934836036E+03  0.17194513951E+03 0.  0.
         24    2    3    3    0    0  0.63525804615E+01  0.40129424111E+02  0.49203296642E+01  0.89982978508E+02  0.80137387150E+02 0.  0.
         -6    2    1    2    0  502 -0.99535918599E+02 -0.10811595560E+03 -0.21475907503E+03  0.32048419439E+03  0.18706202074E+03 0.  0.
        -24    2    5    5    0    0 -0.63794284695E+02 -0.14874834057E+03 -0.14072516741E+03  0.22866064306E+03  0.79286426062E+02 0.  0.
          5    1    3    3  501    0  0.93183338138E+02  0.67986531490E+02 -0.10986324209E+03  0.15936538185E+03  0.47000000000E+01 0. -1.
        -11    1    4    4    0    0  0.29206231707E+02  0.51263114482E+02 -0.10960699095E+02  0.60008731045E+02  0.00000000000E+00 0.  1.
         12    1    4    4    0    0 -0.22853651246E+02 -0.11133690371E+02  0.15881028759E+02  0.29974247464E+02  0.00000000000E+00 0. -1.
         -5    1    5    5    0  502 -0.35741633905E+02  0.40632384974E+02 -0.74033907621E+02  0.91823551339E+02  0.47000000000E+01 0.  1.
         11    1    6    6    0    0 -0.30340175327E+02 -0.76323307961E+02 -0.20973574025E+02  0.84768298227E+02  0.00000000000E+00 0. -1.
        -12    1    6    6    0    0 -0.33454109367E+02 -0.72425032613E+02 -0.11975159338E+03  0.14389234483E+03  0.00000000000E+00 0.  1.
</event>
<event>
12    1  0.9873238E-001  0.3049954E+03  0.7818608E-02  0.1082897E+00
         21   -1    0    0  501  502  0.00000000000E+00  0.00000000000E+00  0.36956703684E+03  0.36956703684E+03  0.00000000000E+00 0.  1.
         21   -1    0    0  502  503 -0.00000000000E+00 -0.00000000000E+00 -0.25317816316E+03  0.25317816316E+03  0.00000000000E+00 0. -1.
         -6    2    1    2    0  503 -0.25022337687E+03 -0.16363968025E+02  0.28417753794E+02  0.30631639910E+03  0.17361638702E+03 0.  0.
        -24    2    3    3    0    0 -0.21271962844E+03  0.44808754925E+02  0.42410480504E+02  0.23305986642E+03  0.72531287285E+02 0.  0.
          6    2    1    2  501    0  0.25022337687E+03  0.16363968025E+02  0.87971119889E+02  0.31642880091E+03  0.17178111167E+03 0.  0.
         24    2    5    5    0    0  0.82837095672E+02  0.55360142432E+02  0.67261251398E+02  0.14325300178E+03  0.77914162952E+02 0.  0.
          5    1    5    5  501    0  0.16738628120E+03 -0.38996174408E+02  0.20709868491E+02  0.17317579913E+03  0.47000000000E+01 0. -1.
        -13    1    6    6    0    0  0.14494427224E+02 -0.19585537114E+02  0.73383067614E+01  0.25446658537E+02  0.00000000000E+00 0.  1.
         14    1    6    6    0    0  0.68342668448E+02  0.74945679546E+02  0.59922944636E+02  0.11780634324E+03  0.00000000000E+00 0. -1.
         -5    1    3    3    0  503 -0.37503748426E+02 -0.61172722950E+02 -0.13992726710E+02  0.73256532678E+02  0.47000000000E+01 0.  1.
         13    1    4    4    0    0  0.20835529513E+01  0.11550551736E+02  0.34466231787E+01  0.12232565130E+02  0.00000000000E+00 0. -1.
        -14    1    4    4    0    0 -0.21480318139E+03  0.33258203189E+02  0.38963857325E+02  0.22082730129E+03  0.00000000000E+00 0.  1.
</event>
<event>
12    1  0.9873238E-001  0.3640877E+03  0.7818608E-02  0.1057024E+00
         21   -1    0    0  501  502  0.00000000000E+00  0.00000000000E+00  0.99731381698E+03  0.99731381698E+03  0.00000000000E+00 0.  1.
         21   -1    0    0  502  503 -0.00000000000E+00 -0.00000000000E+00 -0.13359253111E+03  0.13359253111E+03  0.00000000000E+00 0.  1.
         -6    2    1    2    0  503 -0.10632529528E+03 -0.30278782006E+03  0.38700350152E+03  0.53134879362E+03  0.17197179392E+03 0.  0.
        -24    2    3    3    0    0 -0.23767055543E+02 -0.25615231148E+03  0.29942375060E+03  0.40218596468E+03  0.76942109126E+02 0.  0.
          6    2    1    2  501    0  0.10632529528E+03  0.30278782006E+03  0.47671778436E+03  0.59955755447E+03  0.17094994238E+03 0.  0.
         24    2    5    5    0    0  0.14165540376E+03  0.23573407991E+03  0.36417473869E+03  0.46379140345E+03  0.82718896107E+02 0.  0.
          5    1    5    5  501    0 -0.35330108472E+02  0.67053740153E+02  0.11254304567E+03  0.13576615101E+03  0.47000000000E+01 0. -1.
        -13    1    6    6    0    0  0.25376506352E+02  0.21399303501E+02  0.94790646250E+02  0.10043487383E+03  0.00000000000E+00 0.  1.
         14    1    6    6    0    0  0.11627889740E+03  0.21433477641E+03  0.26938409244E+03  0.36335652962E+03  0.00000000000E+00 0. -1.
         -5    1    3    3    0  503 -0.82558239741E+02 -0.46635508579E+02  0.87579750915E+02  0.12916282894E+03  0.47000000000E+01 0.  1.
         13    1    4    4    0    0 -0.38387627016E+02 -0.63871697482E+02  0.67287895851E+02  0.10040350878E+03  0.00000000000E+00 0. -1.
        -14    1    4    4    0    0  0.14620571473E+02 -0.19228061400E+03  0.23213585475E+03  0.30178245590E+03  0.00000000000E+00 0.  1.
</event>
<event>
12    1  0.9873238E-001  0.2081866E+03  0.7818608E-02  0.1145841E+00
         21   -1    0    0  503  502  0.00000000000E+00  0.00000000000E+00  0.11637598515E+03  0.11637598515E+03  0.00000000000E+00 0.  1.
         21   -1    0    0  501  503 -0.00000000000E+00 -0.00000000000E+00 -0.13168125347E+04  0.13168125347E+04  0.00000000000E+00 0.  1.
          6    2    1    2  501    0  0.11274732315E+03 -0.33061189191E+02  0.19584918571E+02  0.19553185276E+03  0.15506171449E+03 0.  0.
         24    2    3    3    0    0  0.10493214124E+03  0.26639704060E+02  0.39124705963E+01  0.13313802815E+03  0.77395083934E+02 0.  0.
         -6    2    1    2    0  502 -0.11274732315E+03  0.33061189191E+02 -0.12200214682E+04  0.12376566671E+04  0.17186227570E+03 0.  0.
        -24    2    5    5    0    0 -0.13447267511E+03  0.57105310292E+02 -0.86273335812E+03  0.87887122393E+03  0.82230555269E+02 0.  0.
          5    1    3    3  501    0  0.78151819098E+01 -0.59700893252E+02  0.15672447975E+02  0.62393824605E+02  0.47000000000E+01 0. -1.
        -13    1    4    4    0    0  0.33953514888E+02 -0.10068813944E+02 -0.29919857445E+02  0.46361838369E+02  0.00000000000E+00 0.  1.
         14    1    4    4    0    0  0.70978626351E+02  0.36708518005E+02  0.33832328041E+02  0.86776189785E+02  0.00000000000E+00 0. -1.
         -5    1    5    5    0  502  0.21725351957E+02 -0.24044121101E+02 -0.35728811003E+03  0.35878544319E+03  0.47000000000E+01 0.  1.
         13    1    6    6    0    0 -0.75209925185E+02  0.22072133898E+02 -0.66277408487E+03  0.66739283748E+03  0.00000000000E+00 0. -1.
        -14    1    6    6    0    0 -0.59262749921E+02  0.35033176394E+02 -0.19995927325E+03  0.21147838645E+03  0.00000000000E+00 0.  1.
</event>
<event>
12    1  0.9873238E-001  0.3086763E+03  0.7818608E-02  0.1082047E+00
         21   -1    0    0  503  502  0.00000000000E+00  0.00000000000E+00  0.97387525228E+03  0.97387525228E+03  0.00000000000E+00 0. -1.
         21   -1    0    0  501  503 -0.00000000000E+00 -0.00000000000E+00 -0.10440103555E+03  0.10440103555E+03  0.00000000000E+00 0. -1.
          6    2    1    2  501    0  0.23764905765E+03 -0.58488645021E+02  0.59000725036E+03  0.66188362870E+03  0.17344562914E+03 0.  0.
         24    2    3    3    0    0  0.10526984566E+03 -0.80958173522E+02  0.23384562416E+03  0.28122324272E+03  0.82260379538E+02 0.  0.
         -6    2    1    2    0  502 -0.23764905765E+03  0.58488645021E+02  0.27946696636E+03  0.41639265912E+03  0.18810386782E+03 0.  0.
        -24    2    5    5    0    0 -0.67646454650E+02  0.79601310266E+02  0.16150427452E+03  0.20834478885E+03  0.80071898496E+02 0.  0.
          5    1    3    3  501    0  0.13237921199E+03  0.22469528501E+02  0.35616162620E+03  0.38066038598E+03  0.47000000000E+01 0. -1.
        -11    1    4    4    0    0  0.84314443606E+02 -0.59078087270E+02  0.22827793491E+03  0.25041957065E+03  0.00000000000E+00 0.  1.
         12    1    4    4    0    0  0.20955402054E+02 -0.21880086251E+02  0.55676892504E+01  0.30803672073E+02  0.00000000000E+00 0. -1.
         -5    1    5    5    0  502 -0.17000260300E+03 -0.21112665246E+02  0.11796269184E+03  0.20804787028E+03  0.47000000000E+01 0.  1.
         13    1    6    6    0    0 -0.70274667366E+02  0.26725335906E+02  0.11753780972E+03  0.13952744951E+03  0.00000000000E+00 0. -1.
        -14    1    6    6    0    0  0.26282127156E+01  0.52875974361E+02  0.43966464799E+02  0.68817339338E+02  0.00000000000E+00 0.  1.
</event>
<event>
12    1  0.9873238E-001  0.3028876E+03  0.7818608E-02  0.1083875E+00
         21   -1    0    0  501  502  0.00000000000E+00  0.00000000000E+00  0.91740748220E+02  0.91740748220E+02  0.00000000000E+00 0.  1.
         21   -1    0    0  502  503 -0.00000000000E+00 -0.00000000000E+00 -0.13269295219E+04  0.13269295219E+04  0.00000000000E+00 0. -1.
         -6    2    1    2    0  503 -0.21253741702E+03 -0.12939744260E+03 -0.97110732405E+03  0.10172464463E+04  0.17269929343E+03 0.  0.
        -24    2    3    3    0    0 -0.16547554151E+03 -0.26680434704E+02 -0.67927880104E+03  0.70427427395E+03  0.80551616831E+02 0.  0.
          6    2    1    2  501    0  0.21253741702E+03  0.12939744260E+03 -0.26408144964E+03  0.40142382381E+03  0.17171552781E+03 0.  0.
         24    2    5    5    0    0  0.12119280408E+03  0.11123654876E+02 -0.86594034420E+02  0.16935400729E+03  0.79817426229E+02 0.  0.
          5    1    5    5  501    0  0.91344612941E+02  0.11827378773E+03 -0.17748741522E+03  0.23206981652E+03  0.47000000000E+01 0. -1.
        -13    1    6    6    0    0  0.76891040397E+02  0.42738636265E+02 -0.36023953632E+02  0.95060761403E+02  0.00000000000E+00 0.  1.
         14    1    6    6    0    0  0.44301763682E+02 -0.31614981390E+02 -0.50570080788E+02  0.74293245888E+02  0.00000000000E+00 0. -1.
         -5    1    3    3    0  503 -0.47061875510E+02 -0.10271700790E+03 -0.29182852302E+03  0.31297217238E+03  0.47000000000E+01 0.  1.
         13    1    4    4    0    0 -0.13962277237E+03 -0.49150937144E+02 -0.59850888130E+03  0.61654133209E+03  0.00000000000E+00 0. -1.
        -14    1    4    4    0    0 -0.25852769140E+02  0.22470502440E+02 -0.80769919743E+02  0.87732941860E+02  0.00000000000E+00 0.  1.
</event>
<event>
12    1  0.9873238E-001  0.1839975E+03  0.7818608E-02  0.1164096E+00
         21   -1    0    0  501  502  0.00000000000E+00  0.00000000000E+00  0.10943752330E+04  0.10943752330E+04  0.00000000000E+00 0.  1.
         21   -1    0    0  502  503 -0.00000000000E+00 -0.00000000000E+00 -0.37096362346E+02  0.37096362346E+02  0.00000000000E+00 0.  1.
         -6    2    1    2    0  503  0.39278020475E+02  0.37905678794E+02  0.29612778234E+03  0.34839684906E+03  0.17524011409E+03 0.  0.
        -24    2    3    3    0    0  0.26648718341E+02  0.70257949653E+02  0.97935485438E+02  0.14712974978E+03  0.80059167397E+02 0.  0.
          6    2    1    2  501    0 -0.39278020475E+02 -0.37905678794E+02  0.76115108829E+03  0.78307474626E+03  0.17571418737E+03 0.  0.
         24    2    5    5    0    0 -0.83899930556E+02 -0.52026683516E+02  0.65274627175E+03  0.66490447977E+03  0.79210465118E+02 0.  0.
          5    1    5    5  501    0  0.44621910081E+02  0.14121004723E+02  0.10840481654E+03  0.11817026649E+03  0.47000000000E+01 0. -1.
        -11    1    6    6    0    0  0.90555467083E+01 -0.12879013842E+02  0.21986075161E+03  0.22042373289E+03  0.00000000000E+00 0.  1.
         12    1    6    6    0    0 -0.92955477265E+02 -0.39147669675E+02  0.43288552014E+03  0.44448074688E+03  0.00000000000E+00 0. -1.
         -5    1    3    3    0  503  0.12629302134E+02 -0.32352270859E+02  0.19819229690E+03  0.20126709928E+03  0.47000000000E+01 0.  1.
         13    1    4    4    0    0 -0.31866414781E+01  0.76761480140E+02  0.55183105046E+02  0.94592043004E+02  0.00000000000E+00 0. -1.
        -14    1    4    4    0    0  0.29835359819E+02 -0.65035304864E+01  0.42752380392E+02  0.52537706779E+02  0.00000000000E+00 0.  1.
</event>
<event>
12    1  0.9873238E-001  0.2057555E+03  0.7818608E-02  0.1145075E+00
         21   -1    0    0  501  502  0.00000000000E+00  0.00000000000E+00  0.10334789384E+04  0.10334789384E+04  0.00000000000E+00 0. -1.
         21   -1    0    0  502  503 -0.00000000000E+00 -0.00000000000E+00 -0.41652989468E+02  0.41652989468E+02  0.00000000000E+00 0. -1.
         -6    2    1    2    0  503 -0.64043397410E+02  0.92931823799E+02  0.57052675251E+03  0.60649494291E+03  0.17203912293E+03 0.  0.
        -24    2    3    3    0    0  0.23161992556E+02  0.11614498780E+02  0.18668014507E+03  0.20452778576E+03  0.79440317858E+02 0.  0.
          6    2    1    2  501    0  0.64043397410E+02 -0.92931823799E+02  0.42129919638E+03  0.46863698492E+03  0.17143433184E+03 0.  0.
         24    2    5    5    0    0  0.44594591823E+01 -0.10136377040E+03  0.36328355393E+03  0.38491573201E+03  0.76750762030E+02 0.  0.
          5    1    5    5  501    0  0.59583938227E+02  0.84319466032E+01  0.58015642453E+02  0.83721252902E+02  0.47000000000E+01 0. -1.
        -13    1    6    6    0    0 -0.22464001711E+02 -0.68364947189E+02  0.13793257359E+03  0.15557568009E+03  0.00000000000E+00 0.  1.
         14    1    6    6    0    0  0.26923460894E+02 -0.32998823213E+02  0.22535098033E+03  0.22934005193E+03  0.00000000000E+00 0. -1.
         -5    1    3    3    0  503 -0.87205389966E+02  0.81317325018E+02  0.38384660744E+03  0.40196715715E+03  0.47000000000E+01 0.  1.
         13    1    4    4    0    0 -0.28014589735E+02 -0.69997560214E+01  0.72007996801E+02  0.77581991632E+02  0.00000000000E+00 0. -1.
        -14    1    4    4    0    0  0.51176582291E+02  0.18614254802E+02  0.11467214827E+03  0.12694579412E+03  0.00000000000E+00 0.  1.
</event>
<event>
12    1  0.9873238E-001  0.3061035E+03  0.7818608E-02  0.1082239E+00
         21   -1    0    0  503  502  0.00000000000E+00  0.00000000000E+00  0.52731542173E+03  0.52731542173E+03  0.00000000000E+00 0.  1.
         21   -1    0    0  501  503 -0.00000000000E+00 -0.00000000000E+00 -0.19141301465E+03  0.19141301465E+03  0.00000000000E+00 0.  1.
          6    2    1    2  501    0  0.18898562758E+03 -0.16536813387E+03  0.26435666038E+03  0.40445491327E+03  0.17503469900E+03 0.  0.
         24    2    3    3    0    0  0.96841595529E+02 -0.77162557420E+02  0.49294600534E+02  0.15436587724E+03  0.77887813691E+02 0.  0.
         -6    2    1    2    0  502 -0.18898562758E+03  0.16536813387E+03  0.71545746700E+02  0.31427352311E+03  0.17489101272E+03 0.  0.
        -24    2    5    5    0    0 -0.16260298917E+03  0.12823415867E+03 -0.10548698204E+02  0.22027052525E+03  0.74324274111E+02 0.  0.
          5    1    3    3  501    0  0.92144032046E+02 -0.88205576446E+02  0.21506205985E+03  0.25008903603E+03  0.47000000000E+01 0. -1.
        -11    1    4    4    0    0 -0.11064781793E+02 -0.18354553438E+02  0.16854985538E+02  0.27265538056E+02  0.00000000000E+00 0.  1.
         12    1    4    4    0    0  0.10790637732E+03 -0.58808003983E+02  0.32439614996E+02  0.12710033918E+03  0.00000000000E+00 0. -1.
         -5    1    5    5    0  502 -0.26382638401E+02  0.37133975199E+02  0.82094444905E+02  0.94002997863E+02  0.47000000000E+01 0.  1.
         11    1    6    6    0    0 -0.87478132883E+02  0.53470960694E+02 -0.40339080797E+02  0.11017626246E+03  0.00000000000E+00 0. -1.
        -12    1    6    6    0    0 -0.75124856291E+02  0.74763197973E+02  0.29790382592E+02  0.11009426279E+03  0.00000000000E+00 0.  1.
</event>
<event>
12    1  0.9873238E-001  0.2661263E+03  0.7818608E-02  0.1103648E+00
         21   -1    0    0  501  502  0.00000000000E+00  0.00000000000E+00  0.76840175651E+03  0.76840175651E+03  0.00000000000E+00 0. -1.
         21   -1    0    0  502  503 -0.00000000000E+00 -0.00000000000E+00 -0.10042392758E+03  0.10042392758E+03  0.00000000000E+00 0. -1.
         -6    2    1    2    0  503 -0.13163554313E+03  0.15331567796E+03  0.46136183221E+03  0.53261424262E+03  0.17317499212E+03 0.  0.
        -24    2    3    3    0    0 -0.16086115806E+03  0.14816459285E+03  0.42720531903E+03  0.48712328045E+03  0.83400521604E+02 0.  0.
          6    2    1    2  501    0  0.13163554313E+03 -0.15331567796E+03  0.20661599672E+03  0.33621144147E+03  0.17179740962E+03 0.  0.
         24    2    5    5    0    0  0.12770641361E+03 -0.16870305905E+03  0.21967894872E+03  0.31511783413E+03  0.79188122017E+02 0.  0.
          5    1    5    5  501    0  0.39291295120E+01  0.15387381090E+02 -0.13062951998E+02  0.21093607336E+02  0.47000000000E+01 0. -1.
        -13    1    6    6    0    0  0.77185408506E+02 -0.69353704336E+02  0.58396174063E+02  0.11906988174E+03  0.00000000000E+00 0.  1.
         14    1    6    6    0    0  0.50521005108E+02 -0.99349354714E+02  0.16128277466E+03  0.19604795240E+03  0.00000000000E+00 0. -1.
         -5    1    3    3    0  503  0.29225614935E+02  0.51510851076E+01  0.34156513186E+02  0.45490962170E+02  0.47000000000E+01 0.  1.
         11    1    4    4    0    0 -0.12285195690E+03  0.98053059706E+02  0.21861855715E+03  0.26926024467E+03  0.00000000000E+00 0. -1.
        -12    1    4    4    0    0 -0.38009201165E+02  0.50111533146E+02  0.20858676188E+03  0.21786303578E+03  0.00000000000E+00 0.  1.
</event>
<event>
12    1  0.9873238E-001  0.1791044E+03  0.7818608E-02  0.1168769E+00
         21   -1    0    0  503  502  0.00000000000E+00  0.00000000000E+00  0.72812576676E+03  0.72812576676E+03  0.00000000000E+00 0. -1.
         21   -1    0    0  501  503 -0.00000000000E+00 -0.00000000000E+00 -0.55554353094E+02  0.55554353094E+02  0.00000000000E+00 0. -1.
          6    2    1    2  501    0  0.30669681187E+02  0.31244458703E+02  0.15697756526E+03  0.23786386177E+03  0.17326400433E+03 0.  0.
         24    2    3    3    0    0 -0.40261004415E+02  0.36553225265E+02  0.12890456436E+03  0.16125101335E+03  0.80177402310E+02 0.  0.
         -6    2    1    2    0  502 -0.30669681187E+02 -0.31244458703E+02  0.51559384840E+03  0.54581625809E+03  0.17367073887E+03 0.  0.
        -24    2    5    5    0    0  0.45854462776E+02 -0.38991257996E+02  0.29108427676E+03  0.30845030588E+03  0.82392870224E+02 0.  0.
          5    1    3    3  501    0  0.70930685602E+02 -0.53087665615E+01  0.28073000906E+02  0.76612848415E+02  0.47000000000E+01 0. -1.
        -11    1    4    4    0    0 -0.35683817340E+02 -0.15706374462E+02  0.82350626723E+02  0.91113394956E+02  0.00000000000E+00 0.  1.
         12    1    4    4    0    0 -0.45771870749E+01  0.52259599726E+02  0.46553937634E+02  0.70137618396E+02  0.00000000000E+00 0. -1.
         -5    1    5    5    0  502 -0.76524143963E+02  0.77467992928E+01  0.22450957164E+03  0.23736595221E+03  0.47000000000E+01 0.  1.
         11    1    6    6    0    0  0.12509778906E+02  0.25754619922E+02  0.97621415386E+02  0.10173365106E+03  0.00000000000E+00 0. -1.
        -12    1    6    6    0    0  0.33344683870E+02 -0.64745877918E+02  0.19346286138E+03  0.20671665483E+03  0.00000000000E+00 0.  1.
</event>
<event>
12    1  0.9873238E-001  0.3023523E+03  0.7818608E-02  0.1084096E+00
         21   -1    0    0  501  502  0.00000000000E+00  0.00000000000E+00  0.16119348675E+03  0.16119348675E+03  0.00000000000E+00 0. -1.
         21   -1    0    0  502  503 -0.00000000000E+00 -0.00000000000E+00 -0.17250666702E+04  0.17250666702E+04  0.00000000000E+00 0. -1.
         -6    2    1    2    0  503 -0.17302493737E+01  0.24848233509E+03 -0.91929679808E+01  0.30249205143E+03  0.17225117097E+03 0.  0.
        -24    2    3    3    0    0  0.59361551208E+02  0.12553654187E+03 -0.14715025120E+02  0.16501311019E+03  0.87918015582E+02 0.  0.
          6    2    1    2  501    0  0.17302493737E+01 -0.24848233509E+03 -0.15546802154E+04  0.15837681055E+04  0.17188477264E+03 0.  0.
         24    2    5    5    0    0 -0.77460449395E+01 -0.13890571507E+03 -0.12439604381E+04  0.12541232878E+04  0.77671426614E+02 0.  0.
          5    1    5    5  501    0  0.94762943132E+01 -0.10957662001E+03 -0.31071977731E+03  0.32964481767E+03  0.47000000000E+01 0. -1.
        -13    1    6    6    0    0  0.19176124122E+00 -0.12136491573E+03 -0.74739710455E+03  0.75718684051E+03  0.00000000000E+00 0.  1.
         14    1    6    6    0    0 -0.79378061807E+01 -0.17540799339E+02 -0.49656333357E+03  0.49693644730E+03  0.00000000000E+00 0. -1.
         -5    1    3    3    0  503 -0.61091800581E+02  0.12294579322E+03  0.55220571389E+01  0.13747894123E+03  0.47000000000E+01 0.  1.
         13    1    4    4    0    0 -0.21806518312E+02  0.35886295050E+02  0.56637953518E+01  0.42372502771E+02  0.00000000000E+00 0. -1.
        -14    1    4    4    0    0  0.81168069519E+02  0.89650246820E+02 -0.20378820471E+02  0.12264060742E+03  0.00000000000E+00 0.  1.
</event>
<event>
12    1  0.9873238E-001  0.2199476E+03  0.7818608E-02  0.1134010E+00
         21   -1    0    0  501  502  0.00000000000E+00  0.00000000000E+00  0.39201038507E+03  0.39201038507E+03  0.00000000000E+00 0.  1.
         21   -1    0    0  502  503 -0.00000000000E+00 -0.00000000000E+00 -0.15918779353E+03  0.15918779353E+03  0.00000000000E+00 0. -1.
         -6    2    1    2    0  503 -0.80099081231E+02  0.11039163823E+03 -0.14633380811E+02  0.22043381839E+03  0.17255363181E+03 0.  0.
        -24    2    3    3    0    0 -0.12295585390E+03  0.81048455461E+02 -0.11233610196E+02  0.16817127177E+03  0.80426292400E+02 0.  0.
          6    2    1    2  501    0  0.80099081231E+02 -0.11039163823E+03  0.24745597235E+03  0.33076436021E+03  0.17195472408E+03 0.  0.
         24    2    5    5    0    0  0.10247073921E+03 -0.79504184584E+02  0.10807578326E+03  0.18618409536E+03  0.78504615654E+02 0.  0.
          5    1    5    5  501    0 -0.22371657980E+02 -0.30887453644E+02  0.13938018909E+03  0.14458026485E+03  0.47000000000E+01 0. -1.
        -13    1    6    6    0    0  0.65126417074E+01  0.15108351528E+02  0.16183506886E+02  0.23077752989E+02  0.00000000000E+00 0.  1.
         14    1    6    6    0    0  0.95958097504E+02 -0.94612536113E+02  0.91892276371E+02  0.16310634237E+03  0.00000000000E+00 0. -1.
         -5    1    3    3    0  503  0.42856772672E+02  0.29343182768E+02 -0.33997706142E+01  0.52262546619E+02  0.47000000000E+01 0.  1.
         13    1    4    4    0    0 -0.32194553859E+02  0.59036408471E+02  0.19223395501E+02  0.69938013683E+02  0.00000000000E+00 0. -1.
        -14    1    4    4    0    0 -0.90761300044E+02  0.22012046990E+02 -0.30457005698E+02  0.98233258088E+02  0.00000000000E+00 0.  1.
</event>
<event>
12    1  0.9873238E-001  0.2268559E+03  0.7818608E-02  0.1129076E+00
         21   -1    0    0  501  502  0.00000000000E+00  0.00000000000E+00  0.30701105765E+03  0.30701105765E+03  0.00000000000E+00 0. -1.
         21   -1    0    0  502  503 -0.00000000000E+00 -0.00000000000E+00 -0.16866515186E+03  0.16866515186E+03  0.00000000000E+00 0. -1.
         -6    2    1    2    0  503 -0.13586022038E+03  0.56239240483E+02  0.94060850782E+02  0.24453819017E+03  0.17126187886E+03 0.  0.
        -24    2    3    3    0    0 -0.10430379638E+01  0.12234807123E+02  0.52919445635E+02  0.96799339333E+02  0.80117825329E+02 0.  0.
          6    2    1    2  501    0  0.13586022038E+03 -0.56239240483E+02  0.44285055010E+02  0.23113801934E+03  0.17275058968E+03 0.  0.
         24    2    5    5    0    0  0.64350301864E+02 -0.57748367069E+02  0.93024293039E+02  0.14445728772E+03  0.68837152989E+02 0.  0.
          5    1    5    5  501    0  0.71509918518E+02  0.15091265860E+01 -0.48739238030E+02  0.86680731615E+02  0.47000000000E+01 0. -1.
        -13    1    6    6    0    0  0.65136714339E+02 -0.27270309516E+02  0.34778776968E+02  0.78714831280E+02  0.00000000000E+00 0.  1.
         14    1    6    6    0    0 -0.78641247474E+00 -0.30478057552E+02  0.58245516072E+02  0.65742456443E+02  0.00000000000E+00 0. -1.
         -5    1    3    3    0  503 -0.13481718242E+03  0.44004433359E+02  0.41141405147E+02  0.14773885084E+03  0.47000000000E+01 0.  1.
         13    1    4    4    0    0  0.10206283965E+02  0.21548386354E+01  0.71837535107E+02  0.72590929269E+02  0.00000000000E+00 0. -1.
        -14    1    4    4    0    0 -0.11249321929E+02  0.10079968488E+02 -0.18918089472E+02  0.24208410064E+02  0.00000000000E+00 0.  1.
</event>
<event>
12    1  0.9873238E-001  0.2710135E+03  0.7818608E-02  0.1101398E+00
         21   -1    0    0  503  502  0.00000000000E+00  0.00000000000E+00  0.53946646347E+02  0.53946646347E+02  0.00000000000E+00 0.  1.
         21   -1    0    0  501  503 -0.00000000000E+00 -0.00000000000E+00 -0.13827421332E+04  0.13827421332E+04  0.00000000000E+00 0.  1.
          6    2    1    2  501    0 -0.17857631512E+03  0.96477503916E+02 -0.78888803145E+03  0.83257919347E+03  0.17218123635E+03 0.  0.
         24    2    3    3    0    0 -0.17804221768E+03  0.96233813819E+02 -0.52119588563E+03  0.56484514712E+03  0.80280201941E+02 0.  0.
         -6    2    1    2    0  502  0.17857631512E+03 -0.96477503916E+02 -0.53990745542E+03  0.60410958610E+03  0.17958541841E+03 0.  0.
        -24    2    5    5    0    0  0.14888143290E+03 -0.19289336613E+02 -0.45424167028E+03  0.48494366838E+03  0.79354312479E+02 0.  0.
          5    1    3    3  501    0 -0.53409744294E+00  0.24369009722E+00 -0.26769214581E+03  0.26773404635E+03  0.47000000000E+01 0. -1.
        -13    1    4    4    0    0 -0.84055220655E+02  0.10120914061E+02 -0.14831593019E+03  0.17077859400E+03  0.00000000000E+00 0.  1.
         14    1    4    4    0    0 -0.93986997024E+02  0.86112899758E+02 -0.37287995544E+03  0.39406655312E+03  0.00000000000E+00 0. -1.
         -5    1    5    5    0  502  0.29694882226E+02 -0.77188167303E+02 -0.85665785141E+02  0.11916591772E+03  0.47000000000E+01 0.  1.
         11    1    6    6    0    0  0.61513088763E+01  0.20685484973E+02 -0.59006593056E+02  0.62829180431E+02  0.00000000000E+00 0. -1.
        -12    1    6    6    0    0  0.14273012402E+03 -0.39974821586E+02 -0.39523507723E+03  0.42211448795E+03  0.00000000000E+00 0.  1.
</event>
<event>
12    1  0.9873238E-001  0.2167542E+03  0.7818608E-02  0.1136508E+00
         21   -1    0    0  503  502  0.00000000000E+00  0.00000000000E+00  0.18478566977E+03  0.18478566977E+03  0.00000000000E+00 0. -1.
         21   -1    0    0  501  503 -0.00000000000E+00 -0.00000000000E+00 -0.26261358259E+03  0.26261358259E+03  0.00000000000E+00 0. -1.
          6    2    1    2  501    0  0.13147850018E+03  0.76375549095E+00  0.36729132685E+01  0.21582899466E+03  0.17111833716E+03 0.  0.
         24    2    3    3    0    0  0.78813768804E+02 -0.18931025247E+02  0.67486492648E+02  0.13064847322E+03  0.77101251576E+02 0.  0.
         -6    2    1    2    0  502 -0.13147850018E+03 -0.76375549095E+00 -0.81500826085E+02  0.23157025770E+03  0.17232301143E+03 0.  0.
        -24    2    5    5    0    0 -0.48739183428E+02  0.47072735088E+02 -0.86496385934E+02  0.13575183575E+03  0.79721927592E+02 0.  0.
          5    1    3    3  501    0  0.52664731380E+02  0.19694780738E+02 -0.63813579380E+02  0.85180521441E+02  0.47000000000E+01 0. -1.
        -11    1    4    4    0    0  0.92522312954E+02 -0.13441738272E+02  0.68415980157E+02  0.11585251427E+03  0.00000000000E+00 0.  1.
         12    1    4    4    0    0 -0.13708544149E+02 -0.54892869756E+01 -0.92948750856E+00  0.14795958949E+02  0.00000000000E+00 0. -1.
         -5    1    5    5    0  502 -0.82739316756E+02 -0.47836490579E+02  0.49955598495E+01  0.95818421958E+02  0.47000000000E+01 0.  1.
         13    1    6    6    0    0  0.17808104504E+02 -0.63552072606E+01 -0.11431053374E+02  0.22094936673E+02  0.00000000000E+00 0. -1.
        -14    1    6    6    0    0 -0.66547287932E+02  0.53427942349E+02 -0.75065332560E+02  0.11365689907E+03  0.00000000000E+00 0.  1.
</event>
<event>
12    1  0.9873238E-001  0.2046589E+03  0.7818608E-02  0.1146882E+00
         21   -1    0    0  501  502  0.00000000000E+00  0.00000000000E+00  0.69932218723E+02  0.69932218723E+02  0.00000000000E+00 0. -1.
         21   -1    0    0  502  503 -0.00000000000E+00 -0.00000000000E+00 -0.59050383314E+03  0.59050383314E+03  0.00000000000E+00 0. -1.
         -6    2    1    2    0  503 -0.74220187341E+02 -0.82024112221E+02 -0.29612650717E+03  0.35996689237E+03  0.17218787460E+03 0.  0.
        -24    2    3    3    0    0 -0.74196601527E+02 -0.10366508618E+03 -0.30222762585E+03  0.33699634690E+03  0.77287865981E+02 0.  0.
          6    2    1    2  501    0  0.74220187341E+02  0.82024112221E+02 -0.22444510725E+03  0.30046915950E+03  0.16634157161E+03 0.  0.
         24    2    5    5    0    0  0.73607464145E+02  0.11436365479E+03 -0.21321131474E+03  0.26590748220E+03  0.82162156979E+02 0.  0.
          5    1    5    5  501    0  0.61272319601E+00 -0.32339542572E+02 -0.11233792504E+02  0.34561677295E+02  0.47000000000E+01 0. -1.
        -13    1    6    6    0    0  0.80614552977E+02  0.51613681205E+02 -0.12579066281E+03  0.15806950715E+03  0.00000000000E+00 0.  1.
         14    1    6    6    0    0 -0.70070888316E+01  0.62749973588E+02 -0.87420651931E+02  0.10783797505E+03  0.00000000000E+00 0. -1.
         -5    1    3    3    0  503 -0.23585814699E-01  0.21640973959E+02  0.61011186746E+01  0.22970545471E+02  0.47000000000E+01 0.  1.
         11    1    4    4    0    0 -0.56391818417E+02 -0.77421968906E+02 -0.12779979556E+03  0.15970906737E+03  0.00000000000E+00 0. -1.
        -12    1    4    4    0    0 -0.17804783110E+02 -0.26243117274E+02 -0.17442783029E+03  0.17728727954E+03  0.00000000000E+00 0.  1.
</event>
<event>
12    1  0.9873238E-001  0.3592670E+03  0.7818608E-02  0.1058886E+00
         21   -1    0    0  503  502  0.00000000000E+00  0.00000000000E+00  0.73908951787E+03  0.73908951787E+03  0.00000000000E+00 0.  1.
         21   -1    0    0  501  503 -0.00000000000E+00 -0.00000000000E+00 -0.17460496415E+03  0.17460496415E+03  0.00000000000E+00 0. -1.
          6    2    1    2  501    0  0.29017345877E+03  0.12373223980E+03  0.28761635586E+03  0.46021296764E+03  0.17193750053E+03 0.  0.
         24    2    3    3    0    0  0.55010955317E+02  0.12046936688E+02  0.89523760979E+02  0.13304668560E+03  0.80719160553E+02 0.  0.
         -6    2    1    2    0  502 -0.29017345877E+03 -0.12373223980E+03  0.27686819787E+03  0.45348151438E+03  0.17169502485E+03 0.  0.
        -24    2    5    5    0    0 -0.27144381079E+03 -0.11237900261E+03  0.17873370451E+03  0.35282286103E+03  0.78914203364E+02 0.  0.
          5    1    3    3  501    0  0.23516250345E+03  0.11168530311E+03  0.19809259488E+03  0.32716628204E+03  0.47000000000E+01 0. -1.
        -11    1    4    4    0    0  0.23271258154E+02  0.14558344360E+02  0.96605537120E+02  0.10042970999E+03  0.00000000000E+00 0.  1.
         12    1    4    4    0    0  0.31739697164E+02 -0.25114076713E+01 -0.70817761403E+01  0.32616975608E+02  0.00000000000E+00 0. -1.
         -5    1    5    5    0  502 -0.18729647973E+02 -0.11353237186E+02  0.98134493357E+02  0.10065865335E+03  0.47000000000E+01 0.  1.
         13    1    6    6    0    0 -0.15386183437E+03 -0.27523778534E+02  0.68398166704E+02  0.17061457051E+03  0.00000000000E+00 0. -1.
        -14    1    6    6    0    0 -0.11758197642E+03 -0.84855224077E+02  0.11033553781E+03  0.18220829052E+03  0.00000000000E+00 0.  1.
</event>
<event>
12    1  0.9873238E-001  0.1960442E+03  0.7818608E-02  0.1153884E+00
         21   -1    0    0  501  502  0.00000000000E+00  0.00000000000E+00  0.11350200328E+04  0.11350200328E+04  0.00000000000E+00 0.  1.
         21   -1    0    0  502  503 -0.00000000000E+00 -0.00000000000E+00 -0.33396503776E+02  0.33396503776E+02  0.00000000000E+00 0.  1.
         -6    2    1    2    0  503  0.78730059414E+02  0.34973326387E+02  0.51843787746E+03  0.55426632687E+03  0.17610159710E+03 0.  0.
        -24    2    3    3    0    0  0.11836363594E+03  0.47255764847E+01  0.43973456467E+03  0.46098155744E+03  0.71450875078E+02 0.  0.
          6    2    1    2  501    0 -0.78730059414E+02 -0.34973326387E+02  0.58318565158E+03  0.61415020972E+03  0.17220168431E+03 0.  0.
         24    2    5    5    0    0 -0.36444021989E+02 -0.70277553036E+02  0.50989848791E+03  0.52234827217E+03  0.81142764699E+02 0.  0.
          5    1    5    5  501    0 -0.42286037425E+02  0.35304226649E+02  0.73287163671E+02  0.91801937557E+02  0.47000000000E+01 0. -1.
        -11    1    6    6    0    0  0.18545474146E+02 -0.32578813578E+02  0.95030838182E+02  0.10215759351E+03  0.00000000000E+00 0.  1.
         12    1    6    6    0    0 -0.54989496135E+02 -0.37698739457E+02  0.41486764973E+03  0.42019067866E+03  0.00000000000E+00 0. -1.
         -5    1    3    3    0  503 -0.39633576530E+02  0.30247749902E+02  0.78703312789E+02  0.93284769425E+02  0.47000000000E+01 0.  1.
         11    1    4    4    0    0  0.10859074500E+03 -0.20820452769E+02  0.33742412165E+03  0.35507813087E+03  0.00000000000E+00 0. -1.
        -12    1    4    4    0    0  0.97728909422E+01  0.25546029254E+02  0.10231044303E+03  0.10590342657E+03  0.00000000000E+00 0.  1.
</event>
<event>
12    1  0.9873238E-001  0.6095576E+03  0.7818608E-02  0.9886212E-01
         21   -1    0    0  503  502  0.00000000000E+00  0.00000000000E+00  0.52534475098E+03  0.52534475098E+03  0.00000000000E+00 0. -1.
         21   -1    0    0  501  503 -0.00000000000E+00 -0.00000000000E+00 -0.16117094200E+04  0.16117094200E+04  0.00000000000E+00 0.  1.
          6    2    1    2  501    0 -0.94349088024E+02 -0.57725158402E+03 -0.13442391883E+04  0.14759876126E+04  0.17157883219E+03 0.  0.
         24    2    3    3    0    0 -0.37948085202E+02 -0.52093963849E+03 -0.11323162305E+04  0.12495245066E+04  0.79707482577E+02 0.  0.
         -6    2    1    2    0  502  0.94349088024E+02  0.57725158402E+03  0.25787451921E+03  0.66106655841E+03  0.16848912524E+03 0.  0.
        -24    2    5    5    0    0  0.41031208432E+02  0.13859941151E+03  0.69681222117E+02  0.18075693764E+03  0.83212023487E+02 0.  0.
          5    1    3    3  501    0 -0.56401002822E+02 -0.56311945537E+02 -0.21192295780E+03  0.22646310598E+03  0.47000000000E+01 0. -1.
        -13    1    4    4    0    0  0.12882066446E+02 -0.32151680967E+03 -0.72362767663E+03  0.79194445570E+03  0.00000000000E+00 0.  1.
         14    1    4    4    0    0 -0.50830151648E+02 -0.19942282881E+03 -0.40868855383E+03  0.45758005092E+03  0.00000000000E+00 0. -1.
         -5    1    5    5    0  502  0.53317879593E+02  0.43865217251E+03  0.18819329709E+03  0.48030962077E+03  0.47000000000E+01 0.  1.
         11    1    6    6    0    0 -0.13723538489E+02  0.15017286377E+02 -0.11214773178E+02  0.23229841502E+02  0.00000000000E+00 0. -1.
        -12    1    6    6    0    0  0.54754746920E+02  0.12358212514E+03  0.80895995295E+02  0.15752709614E+03  0.00000000000E+00 0.  1.
</event>
<event>
12    1  0.9873238E-001  0.1919969E+03  0.7818608E-02  0.1156887E+00
         21   -1    0    0  503  502  0.00000000000E+00  0.00000000000E+00  0.65109140627E+03  0.65109140627E+03  0.00000000000E+00 0. -1.
         21   -1    0    0  501  503 -0.00000000000E+00 -0.00000000000E+00 -0.12636923769E+03  0.12636923769E+03  0.00000000000E+00 0. -1.
          6    2    1    2  501    0  0.69958001883E+02 -0.46606725652E+02  0.55145872656E+03  0.58361106756E+03  0.17154836687E+03 0.  0.
         24    2    3    3    0    0  0.79896890424E+02 -0.79858530894E+02  0.30950576170E+03  0.33913654688E+03  0.80367175193E+02 0.  0.
         -6    2    1    2    0  502 -0.69958001883E+02  0.46606725652E+02 -0.26736557968E+02  0.19384957640E+03  0.17261664414E+03 0.  0.
        -24    2    5    5    0    0 -0.76323403544E+02  0.20514507558E+02 -0.77218768738E+02  0.13647479285E+03  0.80103207733E+02 0.  0.
          5    1    3    3  501    0 -0.99388885414E+01  0.33251805242E+02  0.24195296486E+03  0.24447452068E+03  0.47000000000E+01 0. -1.
        -13    1    4    4    0    0  0.83507322541E+02 -0.31417278509E+02  0.18205140772E+03  0.20273932366E+03  0.00000000000E+00 0.  1.
         14    1    4    4    0    0 -0.36104321170E+01 -0.48441252385E+02  0.12745435398E+03  0.13639722322E+03  0.00000000000E+00 0. -1.
         -5    1    5    5    0  502  0.63654016610E+01  0.26092218094E+02  0.50482210770E+02  0.57374783552E+02  0.47000000000E+01 0.  1.
         13    1    6    6    0    0 -0.13012101861E+02 -0.11715823744E+02 -0.61190199281E+02  0.63646019584E+02  0.00000000000E+00 0. -1.
        -14    1    6    6    0    0 -0.63311301683E+02  0.32230331302E+02 -0.16028569458E+02  0.72828773266E+02  0.00000000000E+00 0.  1.
</event>
<event>
12    1  0.9873238E-001  0.2175918E+03  0.7818608E-02  0.1136026E+00
         21   -1    0    0  503  502  0.00000000000E+00  0.00000000000E+00  0.25227811644E+03  0.25227811644E+03  0.00000000000E+00 0.  1.
         21   -1    0    0  501  503 -0.00000000000E+00 -0.00000000000E+00 -0.28704433396E+03  0.28704433396E+03  0.00000000000E+00 0.  1.
          6    2    1    2  501    0  0.10521640592E+03  0.81073389134E+02  0.14243693504E+03  0.26006630192E+03  0.17234504470E+03 0.  0.
         24    2    3    3    0    0  0.11618005361E+02  0.82997738266E+02  0.11254007175E+03  0.16167790758E+03  0.80317342112E+02 0.  0.
         -6    2    1    2    0  502 -0.10521640592E+03 -0.81073389134E+02 -0.17720315256E+03  0.27925614848E+03  0.17011658558E+03 0.  0.
        -24    2    5    5    0    0 -0.13841305984E+03 -0.77951305942E+02 -0.12801627694E+03  0.21964739100E+03  0.81377072825E+02 0.  0.
          5    1    3    3  501    0  0.93598400558E+02 -0.19243491327E+01  0.29896863286E+02  0.98388394341E+02  0.47000000000E+01 0. -1.
        -13    1    4    4    0    0  0.23154328337E+02  0.26920032240E+01  0.61645436637E+02  0.65905460019E+02  0.00000000000E+00 0.  1.
         14    1    4    4    0    0 -0.11536322976E+02  0.80305735043E+02  0.50894635113E+02  0.95772447561E+02  0.00000000000E+00 0. -1.
         -5    1    5    5    0  502  0.33196653918E+02 -0.31220831918E+01 -0.49186875624E+02  0.59608757481E+02  0.47000000000E+01 0.  1.
         13    1    6    6    0    0 -0.12609668781E+03 -0.52093016948E+02 -0.66472143391E+02  0.15176495952E+03  0.00000000000E+00 0. -1.
        -14    1    6    6    0    0 -0.12316372024E+02 -0.25858288994E+02 -0.61544133545E+02  0.67882431477E+02  0.00000000000E+00 0.  1.
</event>
<event>
12    1  0.9873238E-001  0.1727772E+03  0.7818608E-02  0.1175429E+00
         21   -1    0    0  503  502  0.00000000000E+00  0.00000000000E+00  0.19450077156E+03  0.19450077156E+03  0.00000000000E+00 0. -1.
         21   -1    0    0  501  503 -0.00000000000E+00 -0.00000000000E+00 -0.15255882144E+03  0.15255882144E+03  0.00000000000E+00 0. -1.
          6    2    1    2  501    0  0.14295577144E+02 -0.15505681958E+01  0.10015064808E+02  0.17306721411E+03  0.17217778976E+03 0.  0.
         24    2    3    3    0    0 -0.20833149145E+02  0.23523286226E+02 -0.48504484949E+02  0.10020190487E+03  0.81855797481E+02 0.  0.
         -6    2    1    2    0  502 -0.14295577144E+02  0.15505681958E+01  0.31926885314E+02  0.17399237889E+03  0.17043255005E+03 0.  0.
        -24    2    5    5    0    0 -0.15978823953E+02  0.51653150885E+02  0.60524725248E+02  0.11608703750E+03  0.83003536665E+02 0.  0.
          5    1    3    3  501    0  0.35128726289E+02 -0.25073854422E+02  0.58519549757E+02  0.72865309236E+02  0.47000000000E+01 0. -1.
        -13    1    4    4    0    0  0.49507349566E+01  0.49901352830E+02 -0.21887796654E+02  0.54714992765E+02  0.00000000000E+00 0.  1.
         14    1    4    4    0    0 -0.25783884101E+02 -0.26378066604E+02 -0.26616688295E+02  0.45486912106E+02  0.00000000000E+00 0. -1.
         -5    1    5    5    0  502  0.16832468083E+01 -0.50102582689E+02 -0.28597839934E+02  0.57905341384E+02  0.47000000000E+01 0.  1.
         11    1    6    6    0    0  0.60228068745E+01 -0.21258436269E+02  0.76874752838E+01  0.23394285445E+02  0.00000000000E+00 0. -1.
        -12    1    6    6    0    0 -0.22001630827E+02  0.72911587154E+02  0.52837249964E+02  0.92692752058E+02  0.00000000000E+00 0.  1.
</event>
<event>
12    1  0.9873238E-001  0.3517521E+03  0.7818608E-02  0.1061964E+00
         21   -1    0    0  503  502  0.00000000000E+00  0.00000000000E+00  0.10443766215E+04  0.10443766215E+04  0.00000000000E+00 0.  1.
         21   -1    0    0  501  503 -0.00000000000E+00 -0.00000000000E+00 -0.11828740345E+03  0.11828740345E+03  0.00000000000E+00 0.  1.
          6    2    1    2  501    0  0.30032531441E+03  0.62330990344E+02  0.45280855709E+03  0.57298267381E+03  0.17085990836E+03 0.  0.
         24    2    3    3    0    0  0.12109017143E+03  0.35755207329E+02  0.30286334339E+03  0.33774414417E+03  0.80022732257E+02 0.  0.
         -6    2    1    2    0  502 -0.30032531441E+03 -0.62330990344E+02  0.47328066093E+03  0.58968135110E+03  0.17218903856E+03 0.  0.
        -24    2    5    5    0    0 -0.27160587821E+03 -0.10247685855E+03  0.41760949200E+03  0.51513025588E+03  0.81793845114E+02 0.  0.
          5    1    3    3  501    0  0.17923514298E+03  0.26575783015E+02  0.14994521370E+03  0.23523852965E+03  0.47000000000E+01 0. -1.
        -13    1    4    4    0    0  0.26334845944E+02  0.43084729418E+02  0.70696326568E+02  0.86878009934E+02  0.00000000000E+00 0.  1.
         14    1    4    4    0    0  0.94755325490E+02 -0.73295220887E+01  0.23216701683E+03  0.25086613423E+03  0.00000000000E+00 0. -1.
         -5    1    5    5    0  502 -0.28719436201E+02  0.40145868205E+02  0.55671168929E+02  0.74551095227E+02  0.47000000000E+01 0.  1.
         13    1    6    6    0    0 -0.97030820456E+02 -0.43960275149E+02  0.22349800546E+03  0.24758603425E+03  0.00000000000E+00 0. -1.
        -14    1    6    6    0    0 -0.17457505775E+03 -0.58516583400E+02  0.19411148654E+03  0.26754422163E+03  0.00000000000E+00 0.  1.
</event>
<event>
12    1  0.9873238E-001  0.1850967E+03  0.7818608E-02  0.1163105E+00
         21   -1    0    0  503  502  0.00000000000E+00  0.00000000000E+00  0.11963848067E+04  0.11963848067E+04  0.00000000000E+00 0. -1.
         21   -1    0    0  501  503 -0.00000000000E+00 -0.00000000000E+00 -0.28628538141E+02  0.28628538141E+02  0.00000000000E+00 0. -1.
          6    2    1    2  501    0  0.90311146599E+01 -0.67313295137E+02  0.54902951873E+03  0.57919326490E+03  0.17151905122E+03 0.  0.
         24    2    3    3    0    0  0.48043471129E+02  0.43982550574E+00  0.40175064907E+03  0.41238317898E+03  0.79673921178E+02 0.  0.
         -6    2    1    2    0  502 -0.90311146599E+01  0.67313295137E+02  0.61872674987E+03  0.64582007999E+03  0.17218636408E+03 0.  0.
        -24    2    5    5    0    0  0.18802683701E+02  0.11037970137E+03  0.44811583673E+03  0.46760782071E+03  0.72883821698E+02 0.  0.
          5    1    3    3  501    0 -0.39012356469E+02 -0.67753120643E+02  0.14727886966E+03  0.16681008592E+03  0.47000000000E+01 0. -1.
        -11    1    4    4    0    0  0.39760054235E+02  0.31785991346E+02  0.14671460019E+03  0.15529451074E+03  0.00000000000E+00 0.  1.
         12    1    4    4    0    0  0.82834168933E+01 -0.31346165840E+02  0.25503604888E+03  0.25708866824E+03  0.00000000000E+00 0. -1.
         -5    1    5    5    0  502 -0.27833798361E+02 -0.43066406229E+02  0.17061091314E+03  0.17821225928E+03  0.47000000000E+01 0.  1.
         13    1    6    6    0    0  0.41477358514E+02  0.33296562536E+02  0.17146833316E+03  0.17952833098E+03  0.00000000000E+00 0. -1.
        -14    1    6    6    0    0 -0.22674674813E+02  0.77083138831E+02  0.27664750357E+03  0.28807948973E+03  0.00000000000E+00 0.  1.
</event>
<event>
12    1  0.9873238E-001  0.3367428E+03  0.7818608E-02  0.1068223E+00
         21   -1    0    0  503  502  0.00000000000E+00  0.00000000000E+00  0.16031794459E+03  0.16031794459E+03  0.00000000000E+00 0.  1.
         21   -1    0    0  501  503 -0.00000000000E+00 -0.00000000000E+00 -0.85352534219E+03  0.85352534219E+03  0.00000000000E+00 0.  1.
          6    2    1    2  501    0 -0.47550686166E+02  0.28556060217E+03 -0.55672238892E+03  0.65049241370E+03  0.17144864155E+03 0.  0.
         24    2    3    3    0    0 -0.63672148819E+02  0.18396679106E+03 -0.47277323569E+03  0.51763627217E+03  0.80838450836E+02 0.  0.
         -6    2    1    2    0  502  0.47550686166E+02 -0.28556060217E+03 -0.13648500867E+03  0.36335087308E+03  0.17201678439E+03 0.  0.
        -24    2    5    5    0    0  0.57939981593E+02 -0.29234807382E+03 -0.99660792788E+02  0.32420856724E+03  0.79715015653E+02 0.  0.
          5    1    3    3  501    0  0.16121462653E+02  0.10159381111E+03 -0.83949153230E+02  0.13285614153E+03  0.47000000000E+01 0. -1.
        -11    1    4    4    0    0 -0.42393039876E+02  0.24041676479E+02 -0.12862228773E+03  0.13754586486E+03  0.00000000000E+00 0.  1.
         12    1    4    4    0    0 -0.21279108943E+02  0.15992511458E+03 -0.34415094796E+03  0.38009040731E+03  0.00000000000E+00 0. -1.
         -5    1    5    5    0  502 -0.10389295428E+02  0.67874716506E+01 -0.36824215885E+02  0.39142305840E+02  0.47000000000E+01 0.  1.
         11    1    6    6    0    0  0.75864773090E+02 -0.21352732357E+03 -0.61384873084E+02  0.23477113185E+03  0.00000000000E+00 0. -1.
        -12    1    6    6    0    0 -0.17924791497E+02 -0.78820750255E+02 -0.38275919705E+02  0.89437435396E+02  0.00000000000E+00 0.  1.
</event>
<event>
12    1  0.9873238E-001  0.1954989E+03  0.7818608E-02  0.1154090E+00
         21   -1    0    0  503  502  0.00000000000E+00  0.00000000000E+00  0.10499399910E+04  0.10499399910E+04  0.00000000000E+00 0.  1.
         21   -1    0    0  501  503 -0.00000000000E+00 -0.00000000000E+00 -0.12432983826E+03  0.12432983826E+03  0.00000000000E+00 0.  1.
          6    2    1    2  501    0  0.48484549268E+02 -0.73184663824E+02 -0.31350311616E+02  0.19799661178E+03  0.17467990640E+03 0.  0.
         24    2    3    3    0    0  0.35838618213E+02 -0.11880470405E+03 -0.16824408174E+02  0.14825528577E+03  0.79357449482E+02 0.  0.
         -6    2    1    2    0  502 -0.48484549268E+02  0.73184663824E+02  0.95696046432E+03  0.97627321745E+03  0.17213168883E+03 0.  0.
        -24    2    5    5    0    0 -0.90463976068E+02  0.17153792775E+02  0.56171117681E+03  0.57484349750E+03  0.80297054033E+02 0.  0.
          5    1    3    3  501    0  0.12645931054E+02  0.45620040226E+02 -0.14525903442E+02  0.49741326011E+02  0.47000000000E+01 0. -1.
        -11    1    4    4    0    0  0.12726906150E+02 -0.48225662704E+02  0.32107624379E+02  0.59317688986E+02  0.00000000000E+00 0.  1.
         12    1    4    4    0    0  0.23111712063E+02 -0.70579041346E+02 -0.48932032553E+02  0.88937596784E+02  0.00000000000E+00 0. -1.
         -5    1    5    5    0  502  0.41979426800E+02  0.56030871049E+02  0.39524928751E+03  0.40142971996E+03  0.47000000000E+01 0.  1.
         13    1    6    6    0    0 -0.15339169040E+02  0.56045101443E+01  0.34138479376E+03  0.34177518642E+03  0.00000000000E+00 0. -1.
        -14    1    6    6    0    0 -0.75124807028E+02  0.11549282631E+02  0.22032638305E+03  0.23306831108E+03  0.00000000000E+00 0.  1.
</event>
<event>
12    1  0.9873238E-001  0.2785344E+03  0.7818608E-02  0.1096581E+00
         21   -1    0    0  501  502  0.00000000000E+00  0.00000000000E+00  0.17098706767E+03  0.17098706767E+03  0.00000000000E+00 0.  1.
         21   -1    0    0  502  503 -0.00000000000E+00 -0.00000000000E+00 -0.47573081432E+03  0.47573081432E+03  0.00000000000E+00 0.  1.
         -6    2    1    2    0  503  0.20990070152E+03 -0.62692475694E+02 -0.81010273128E+02  0.28945314344E+03  0.17097311744E+03 0.  0.
        -24    2    3    3    0    0  0.82532376431E+02 -0.79255918839E+02 -0.36566083804E+01  0.13944408593E+03  0.79612740729E+02 0.  0.
          6    2    1    2  501    0 -0.20990070152E+03  0.62692475694E+02 -0.22373347351E+03  0.35726473855E+03  0.17202550752E+03 0.  0.
         24    2    5    5    0    0 -0.13813743748E+03  0.10875376043E+02 -0.60384215353E+02  0.17141520796E+03  0.80849827564E+02 0.  0.
          5    1    5    5  501    0 -0.71763264036E+02  0.51817099651E+02 -0.16334925816E+03  0.18584953060E+03  0.47000000000E+01 0. -1.
        -13    1    6    6    0    0 -0.55773331844E+02  0.26616608259E+02  0.91607800278E+01  0.62474220851E+02  0.00000000000E+00 0.  1.
         14    1    6    6    0    0 -0.82364105636E+02 -0.15741232216E+02 -0.69544995380E+02  0.10894098710E+03  0.00000000000E+00 0. -1.
         -5    1    3    3    0  503  0.12736832509E+03  0.16563443145E+02 -0.77353664747E+02  0.15000905751E+03  0.47000000000E+01 0.  1.
         13    1    4    4    0    0 -0.11140631715E+02 -0.22533408369E+02 -0.15125494313E+02  0.29336815538E+02  0.00000000000E+00 0. -1.
        -14    1    4    4    0    0  0.93673008146E+02 -0.56722510470E+02  0.11468885932E+02  0.11010727039E+03  0.00000000000E+00 0.  1.
</event>
<event>
12    1  0.9873238E-001  0.1956617E+03  0.7818608E-02  0.1154358E+00
         21   -1    0    0  501  502  0.00000000000E+00  0.00000000000E+00  0.11729322334E+03  0.11729322334E+03  0.00000000000E+00 0. -1.
         21   -1    0    0  502  503 -0.00000000000E+00 -0.00000000000E+00 -0.32783746794E+03  0.32783746794E+03  0.00000000000E+00 0. -1.
         -6    2    1    2    0  503  0.78162714185E+02  0.46601220418E+02 -0.68766418999E+02  0.20350194386E+03  0.16853230295E+03 0.  0.
        -24    2    3    3    0    0 -0.98076977444E+01  0.10721597131E+02 -0.70059009842E+02  0.10837097343E+03  0.81393239541E+02 0.  0.
          6    2    1    2  501    0 -0.78162714185E+02 -0.46601220418E+02 -0.14177782560E+03  0.24162874742E+03  0.17321205534E+03 0.  0.
         24    2    5    5    0    0 -0.11323264290E+03 -0.32801064638E+02 -0.14641399168E+03  0.20336743230E+03  0.77612591123E+02 0.  0.
          5    1    5    5  501    0  0.35069928712E+02 -0.13800155780E+02  0.46361660749E+01  0.38261315128E+02  0.47000000000E+01 0. -1.
        -11    1    6    6    0    0 -0.95034175767E+02 -0.55861006867E+02 -0.10245025039E+03  0.15049252625E+03  0.00000000000E+00 0.  1.
         12    1    6    6    0    0 -0.18198467130E+02  0.23059942229E+02 -0.43963741283E+02  0.52874906043E+02  0.00000000000E+00 0. -1.
         -5    1    3    3    0  503  0.87970411929E+02  0.35879623287E+02  0.12925908428E+01  0.95130970421E+02  0.47000000000E+01 0.  1.
         11    1    4    4    0    0  0.22184233457E+02 -0.15173723391E+02 -0.60376436241E+02  0.66088547788E+02  0.00000000000E+00 0. -1.
        -12    1    4    4    0    0 -0.31991931202E+02  0.25895320523E+02 -0.96825736014E+01  0.42282425646E+02  0.00000000000E+00 0.  1.
</event>
<event>
12    1  0.9873238E-001  0.2625121E+03  0.7818608E-02  0.1106276E+00
         21   -1    0    0  501  502  0.00000000000E+00  0.00000000000E+00  0.64342213851E+03  0.64342213851E+03  0.00000000000E+00 0. -1.
         21   -1    0    0  502  503 -0.00000000000E+00 -0.00000000000E+00 -0.13945269142E+03  0.13945269142E+03  0.00000000000E+00 0. -1.
         -6    2    1    2    0  503  0.32385693093E+02  0.19190972035E+03  0.44699491076E+03  0.51837927487E+03  0.17616596861E+03 0.  0.
        -24    2    3    3    0    0  0.84632103708E+02  0.15281950409E+03  0.38078224705E+03  0.42529899090E+03  0.73264713085E+02 0.  0.
          6    2    1    2  501    0 -0.32385693093E+02 -0.19190972035E+03  0.56974536328E+02  0.26449555505E+03  0.16980467300E+03 0.  0.
         24    2    5    5    0    0 -0.68661849881E+02 -0.15694968521E+03  0.84050490256E+02  0.20710774372E+03  0.80507634926E+02 0.  0.
          5    1    5    5  501    0  0.36276156789E+02 -0.34960035140E+02 -0.27075953928E+02  0.57387811332E+02  0.47000000000E+01 0. -1.
        -13    1    6    6    0    0 -0.29508073932E+02 -0.11555565144E+03  0.19228623162E+02  0.12080386979E+03  0.00000000000E+00 0.  1.
         14    1    6    6    0    0 -0.39153775949E+02 -0.41394033768E+02  0.64821867094E+02  0.86303873935E+02  0.00000000000E+00 0. -1.
         -5    1    3    3    0  503 -0.52246410616E+02  0.39090216261E+02  0.66212663701E+02  0.93080283970E+02  0.47000000000E+01 0.  1.
         13    1    4    4    0    0  0.25409910631E+02 -0.11965971072E+00  0.52976526847E+02  0.58755342511E+02  0.00000000000E+00 0. -1.
        -14    1    4    4    0    0  0.59222193077E+02  0.15293916380E+03  0.32780572021E+03  0.36654364839E+03  0.00000000000E+00 0.  1.
</event>
<event>
12    1  0.9873238E-001  0.2909945E+03  0.7818608E-02  0.1090287E+00
         21   -1    0    0  501  502  0.00000000000E+00  0.00000000000E+00  0.15518924303E+03  0.15518924303E+03  0.00000000000E+00 0.  1.
         21   -1    0    0  502  503 -0.00000000000E+00 -0.00000000000E+00 -0.54958445443E+03  0.54958445443E+03  0.00000000000E+00 0.  1.
         -6    2    1    2    0  503  0.18259745925E+03 -0.14245482311E+03 -0.24697353377E+03  0.38167225557E+03  0.17618903353E+03 0.  0.
        -24    2    3    3    0    0  0.18365044421E+03 -0.63755691105E+02 -0.15896810975E+03  0.26351258897E+03  0.79848298779E+02 0.  0.
          6    2    1    2  501    0 -0.18259745925E+03  0.14245482311E+03 -0.14742167762E+03  0.32310144188E+03  0.17037071920E+03 0.  0.
         24    2    5    5    0    0 -0.16593491965E+03  0.16193642360E+03 -0.16125698024E+03  0.29359417867E+03  0.80224218446E+02 0.  0.
          5    1    5    5  501    0 -0.16662539603E+02 -0.19481600493E+02  0.13835302619E+02  0.29507263213E+02  0.47000000000E+01 0. -1.
        -11    1    6    6    0    0 -0.50931950638E+02  0.13662541289E+02 -0.61733083031E+02  0.81189298376E+02  0.00000000000E+00 0.  1.
         12    1    6    6    0    0 -0.11500296901E+03  0.14827388231E+03 -0.99523897212E+02  0.21240488029E+03  0.00000000000E+00 0. -1.
         -5    1    3    3    0  503 -0.10529849614E+01 -0.78699132003E+02 -0.88005424020E+02  0.11815966661E+03  0.47000000000E+01 0.  1.
         13    1    4    4    0    0  0.33246882571E+02 -0.45619392711E+02 -0.26882920524E+02  0.62523400482E+02  0.00000000000E+00 0. -1.
        -14    1    4    4    0    0  0.15040356164E+03 -0.18136298394E+02 -0.13208518923E+03  0.20098918848E+03  0.00000000000E+00 0.  1.
</event>
<event>
12    1  0.9873238E-001  0.5178908E+03  0.7818608E-02  0.1009245E+00
         21   -1    0    0  501  502  0.00000000000E+00  0.00000000000E+00  0.34911373051E+03  0.34911373051E+03  0.00000000000E+00 0. -1.
         21   -1    0    0  502  503 -0.00000000000E+00 -0.00000000000E+00 -0.79966234755E+03  0.79966234755E+03  0.00000000000E+00 0.  1.
         -6    2    1    2    0  503 -0.39040744813E+03  0.29257289431E+03 -0.10992184079E+03  0.52890715526E+03  0.17217169850E+03 0.  0.
        -24    2    3    3    0    0 -0.30077689936E+03  0.14751625350E+03 -0.49328769122E+02  0.34788595581E+03  0.79771690176E+02 0.  0.
          6    2    1    2  501    0  0.39040744813E+03 -0.29257289431E+03 -0.34062677626E+03  0.61986892281E+03  0.17376422740E+03 0.  0.
         24    2    5    5    0    0  0.83499876681E+02 -0.44066401217E+02 -0.97280114863E+02  0.15598593958E+03  0.77162915166E+02 0.  0.
          5    1    5    5  501    0  0.30690757144E+03 -0.24850649309E+03 -0.24334666139E+03  0.46388298323E+03  0.47000000000E+01 0. -1.
        -13    1    6    6    0    0  0.40385978502E+02 -0.35335435028E-01 -0.83625816793E+02  0.92867140273E+02  0.00000000000E+00 0.  1.
         14    1    6    6    0    0  0.43113898179E+02 -0.44031065782E+02 -0.13654298069E+02  0.63118799306E+02  0.00000000000E+00 0. -1.
         -5    1    3    3    0  503 -0.89630548764E+02  0.14505664081E+03 -0.60593071667E+02  0.18102119944E+03  0.47000000000E+01 0.  1.
         11    1    4    4    0    0 -0.10468520459E+03  0.46231261729E+02  0.20786075248E+02  0.11631157529E+03  0.00000000000E+00 0. -1.
        -12    1    4    4    0    0 -0.19609169477E+03  0.10128499177E+03 -0.70114844370E+02  0.23157438053E+03  0.00000000000E+00 0.  1.
</event>
<event>
12    1  0.9873238E-001  0.2070467E+03  0.7818608E-02  0.1144611E+00
         21   -1    0    0  503  502  0.00000000000E+00  0.00000000000E+00  0.13480125614E+04  0.13480125614E+04  0.00000000000E+00 0. -1.
         21   -1    0    0  501  503 -0.00000000000E+00 -0.00000000000E+00 -0.33345926484E+02  0.33345926484E+02  0.00000000000E+00 0. -1.
          6    2    1    2  501    0  0.74150070422E+02 -0.88273575665E+02  0.82393585645E+03  0.84873756181E+03  0.16791276359E+03 0.  0.
         24    2    3    3    0    0 -0.14636721040E+02 -0.57484670398E+02  0.55443125678E+03  0.56328026155E+03  0.79824267164E+02 0.  0.
         -6    2    1    2    0  502 -0.74150070422E+02  0.88273575665E+02  0.49073077850E+03  0.53262092610E+03  0.17198225739E+03 0.  0.
        -24    2    5    5    0    0 -0.24135030473E+02 -0.10220008083E+02  0.13400398411E+03  0.15915260603E+03  0.81765126979E+02 0.  0.
          5    1    3    3  501    0  0.88786791463E+02 -0.30788905268E+02  0.26950459967E+03  0.28545730026E+03  0.47000000000E+01 0. -1.
        -11    1    4    4    0    0 -0.21303179681E+02  0.15380769958E+02  0.14365483563E+03  0.14603802706E+03  0.00000000000E+00 0.  1.
         12    1    4    4    0    0  0.66664586411E+01 -0.72865440355E+02  0.41077642115E+03  0.41724223449E+03  0.00000000000E+00 0. -1.
         -5    1    5    5    0  502 -0.50015039949E+02  0.98493583748E+02  0.35672679439E+03  0.37346832007E+03  0.47000000000E+01 0.  1.
         13    1    6    6    0    0 -0.46356494966E+02 -0.27407220796E+02  0.10885563902E+03  0.12144805690E+03  0.00000000000E+00 0. -1.
        -14    1    6    6    0    0  0.22221464493E+02  0.17187212713E+02  0.25148345082E+02  0.37704549134E+02  0.00000000000E+00 0.  1.
</event>
<event>
12    1  0.9873238E-001  0.2027572E+03  0.7818608E-02  0.1147576E+00
         21   -1    0    0  501  502  0.00000000000E+00  0.00000000000E+00  0.19047689820E+03  0.19047689820E+03  0.00000000000E+00 0.  1.
         21   -1    0    0  502  503 -0.00000000000E+00 -0.00000000000E+00 -0.22128578199E+03  0.22128578199E+03  0.00000000000E+00 0.  1.
         -6    2    1    2    0  503  0.10493516679E+03  0.21768525543E+02  0.19001906162E+02  0.20364569863E+03  0.17211984255E+03 0.  0.
        -24    2    3    3    0    0  0.11023031451E+03  0.24127702792E+02 -0.40441212119E+02  0.14373594469E+03  0.79319996711E+02 0.  0.
          6    2    1    2  501    0 -0.10493516679E+03 -0.21768525543E+02 -0.49810789949E+02  0.20811698155E+03  0.17130763346E+03 0.  0.
         24    2    5    5    0    0 -0.13503354626E+03 -0.11435140205E+01 -0.15550560905E+02  0.15784614666E+03  0.80238518373E+02 0.  0.
          5    1    5    5  501    0  0.30098379468E+02 -0.20625011522E+02 -0.34260229044E+02  0.50270834895E+02  0.47000000000E+01 0. -1.
        -13    1    6    6    0    0  0.96326866494E+01 -0.67133773412E+01  0.23377626320E+01  0.11971767686E+02  0.00000000000E+00 0.  1.
         14    1    6    6    0    0 -0.14466623291E+03  0.55698633207E+01 -0.17888323537E+02  0.14587437897E+03  0.00000000000E+00 0. -1.
         -5    1    3    3    0  503 -0.52951477204E+01 -0.23591772490E+01  0.59443118280E+02  0.59909753943E+02  0.47000000000E+01 0.  1.
         13    1    4    4    0    0  0.63620479554E+02 -0.20511850066E+02  0.13314775769E+01  0.66858613838E+02  0.00000000000E+00 0. -1.
        -14    1    4    4    0    0  0.46609834958E+02  0.44639552858E+02 -0.41772689696E+02  0.76877330849E+02  0.00000000000E+00 0.  1.
</event>
<event>
12    1  0.9873238E-001  0.1722890E+03  0.7818608E-02  0.1176017E+00
         21   -1    0    0  501  502  0.00000000000E+00  0.00000000000E+00  0.19607827738E+04  0.19607827738E+04  0.00000000000E+00 0. -1.
         21   -1    0    0  502  503 -0.00000000000E+00 -0.00000000000E+00 -0.22196114038E+02  0.22196114038E+02  0.00000000000E+00 0. -1.
         -6    2    1    2    0  503 -0.61861757522E+00 -0.17583569919E+01  0.39910020924E+03  0.43388172468E+03  0.17020252492E+03 0.  0.
        -24    2    3    3    0    0  0.48373786289E+02  0.32942735474E+02  0.31624698223E+03  0.33145531851E+03  0.80157516059E+02 0.  0.
          6    2    1    2  501    0  0.61861757522E+00  0.17583569919E+01  0.15394864505E+04  0.15490971631E+04  0.17227888741E+03 0.  0.
         24    2    5    5    0    0 -0.10463867640E+02  0.65586289316E+02  0.10906081693E+04  0.10955438281E+04  0.79868932529E+02 0.  0.
          5    1    5    5  501    0  0.11082485215E+02 -0.63827932324E+02  0.44887828118E+03  0.45355333506E+03  0.47000000000E+01 0. -1.
        -13    1    6    6    0    0 -0.42215052982E+02  0.25300940400E+02  0.67302548518E+03  0.67482260779E+03  0.00000000000E+00 0.  1.
         14    1    6    6    0    0  0.31751185342E+02  0.40285348916E+02  0.41758268414E+03  0.42072122029E+03  0.00000000000E+00 0. -1.
         -5    1    3    3    0  503 -0.48992403865E+02 -0.34701092466E+02  0.82853227013E+02  0.10242640617E+03  0.47000000000E+01 0.  1.
         13    1    4    4    0    0  0.18778670278E+02 -0.14240653551E+02  0.22876689718E+02  0.32844750013E+02  0.00000000000E+00 0. -1.
        -14    1    4    4    0    0  0.29595116012E+02  0.47183389025E+02  0.29337029251E+03  0.29861056850E+03  0.00000000000E+00 0.  1.
</event>
<event>
12    1  0.9873238E-001  0.1928593E+03  0.7818608E-02  0.1155967E+00
         21   -1    0    0  501  502  0.00000000000E+00  0.00000000000E+00  0.10017449727E+03  0.10017449727E+03  0.00000000000E+00 0. -1.
         21   -1    0    0  502  503 -0.00000000000E+00 -0.00000000000E+00 -0.41709311647E+03  0.41709311647E+03  0.00000000000E+00 0. -1.
         -6    2    1    2    0  503  0.79279614079E+02 -0.35480077450E+02 -0.72375810684E+02  0.20599261148E+03  0.17219351006E+03 0.  0.
        -24    2    3    3    0    0  0.11047208544E+03 -0.40297569973E+02 -0.19826163759E+02  0.14451307101E+03  0.81627048916E+02 0.  0.
          6    2    1    2  501    0 -0.79279614079E+02  0.35480077450E+02 -0.24454280851E+03  0.31127500226E+03  0.17189196821E+03 0.  0.
         24    2    5    5    0    0 -0.93595911967E+02  0.20678833141E+02 -0.89585925587E+02  0.15488523666E+03  0.82316399316E+02 0.  0.
          5    1    5    5  501    0  0.14316297887E+02  0.14801244309E+02 -0.15495688292E+03  0.15638976560E+03  0.47000000000E+01 0. -1.
        -13    1    6    6    0    0 -0.18262310391E+02 -0.28668131346E+02 -0.12096227367E+02  0.36078975210E+02  0.00000000000E+00 0.  1.
         14    1    6    6    0    0 -0.75333601576E+02  0.49346964488E+02 -0.77489698220E+02  0.11880626145E+03  0.00000000000E+00 0. -1.
         -5    1    3    3    0  503 -0.31192471365E+02  0.48174925227E+01 -0.52549646925E+02  0.61479540467E+02  0.47000000000E+01 0.  1.
         11    1    4    4    0    0  0.32061291984E+02 -0.54342212972E+02 -0.14082087848E+02  0.64647565713E+02  0.00000000000E+00 0. -1.
        -12    1    4    4    0    0  0.78410793461E+02  0.14044643000E+02 -0.57440759114E+01  0.79865505296E+02  0.00000000000E+00 0.  1.
</event>
<event>
12    1  0.9873238E-001  0.2814341E+03  0.7818608E-02  0.1095003E+00
         21   -1    0    0  503  502  0.00000000000E+00  0.00000000000E+00  0.65782050512E+03  0.65782050512E+03  0.00000000000E+00 0. -1.
         21   -1    0    0  501  503 -0.00000000000E+00 -0.00000000000E+00 -0.12745706965E+03  0.12745706965E+03  0.00000000000E+00 0.  1.
          6    2    1    2  501    0  0.21819045193E+03 -0.44287698371E+02  0.35977631175E+03  0.45677578661E+03  0.17215298778E+03 0.  0.
         24    2    3    3    0    0  0.23654658774E+03 -0.33472453942E+02  0.29268150586E+03  0.38622282628E+03  0.80192981772E+02 0.  0.
         -6    2    1    2    0  502 -0.21819045193E+03  0.44287698371E+02  0.17058712372E+03  0.32850178816E+03  0.17101165021E+03 0.  0.
        -24    2    5    5    0    0 -0.49896310346E+02  0.36567276978E+02  0.99205908588E+02  0.14547203411E+03  0.86564963329E+02 0.  0.
          5    1    3    3  501    0 -0.18356135814E+02 -0.10815244429E+02  0.67094805888E+02  0.70552960330E+02  0.47000000000E+01 0. -1.
        -11    1    4    4    0    0  0.23024570683E+03 -0.24498925847E+02  0.29499792978E+03  0.37501608159E+03  0.00000000000E+00 0.  1.
         12    1    4    4    0    0  0.63008809103E+01 -0.89735280957E+01 -0.23164239192E+01  0.11206744688E+02  0.00000000000E+00 0. -1.
         -5    1    5    5    0  502 -0.16829414158E+03  0.77204213934E+01  0.71381215131E+02  0.18302975406E+03  0.47000000000E+01 0.  1.
         11    1    6    6    0    0  0.12899775616E+02 -0.17352756525E+02  0.33136154026E+02  0.39566742013E+02  0.00000000000E+00 0. -1.
        -12    1    6    6    0    0 -0.62796085962E+02  0.53920033503E+02  0.66069754563E+02  0.10590529209E+03  0.00000000000E+00 0.  1.
</event>
<event>
12    1  0.9873238E-001  0.1870341E+03  0.7818608E-02  0.1161302E+00
         21   -1    0    0  503  502  0.00000000000E+00  0.00000000000E+00  0.82186142343E+02  0.82186142343E+02  0.00000000000E+00 0.  1.
         21   -1    0    0  501  503 -0.00000000000E+00 -0.00000000000E+00 -0.43935937133E+03  0.43935937133E+03  0.00000000000E+00 0.  1.
          6    2    1    2  501    0 -0.51891642189E+02  0.49651870773E+02 -0.22717633373E+03  0.29426323653E+03  0.17269543991E+03 0.  0.
         24    2    3    3    0    0 -0.84589504800E+02  0.79603708768E+02 -0.17028125123E+03  0.22197628590E+03  0.82374948921E+02 0.  0.
         -6    2    1    2    0  502  0.51891642189E+02 -0.49651870773E+02 -0.12999689526E+03  0.22728227714E+03  0.17204647606E+03 0.  0.
        -24    2    5    5    0    0 -0.14644038789E+01 -0.65302753969E+02 -0.21554890705E+02  0.10532500533E+03  0.79763082186E+02 0.  0.
          5    1    3    3  501    0  0.32697862611E+02 -0.29951837996E+02 -0.56895082508E+02  0.72286950636E+02  0.47000000000E+01 0. -1.
        -13    1    4    4    0    0 -0.20001141796E+02  0.53196665522E+02 -0.12884488051E+03  0.14082234954E+03  0.00000000000E+00 0.  1.
         14    1    4    4    0    0 -0.64588363004E+02  0.26407043246E+02 -0.41436370717E+02  0.81153936359E+02  0.00000000000E+00 0. -1.
         -5    1    5    5    0  502  0.53356046068E+02  0.15650883196E+02 -0.10844200455E+03  0.12195727181E+03  0.47000000000E+01 0.  1.
         13    1    6    6    0    0  0.32764821663E+02 -0.97017457986E+01  0.55705772397E+01  0.34622084584E+02  0.00000000000E+00 0. -1.
        -14    1    6    6    0    0 -0.34229225542E+02 -0.55601008170E+02 -0.27125467945E+02  0.70702920746E+02  0.00000000000E+00 0.  1.
</event>
<event>
12    1  0.9873238E-001  0.1724911E+03  0.7818608E-02  0.1175399E+00
         21   -1    0    0  503  502  0.00000000000E+00  0.00000000000E+00  0.10774292080E+04  0.10774292080E+04  0.00000000000E+00 0.  1.
         21   -1    0    0  501  503 -0.00000000000E+00 -0.00000000000E+00 -0.27837228608E+02  0.27837228608E+02  0.00000000000E+00 0.  1.
          6    2    1    2  501    0  0.10582911190E+02 -0.26907695745E+01  0.46819134525E+03  0.49895523841E+03  0.17214515944E+03 0.  0.
         24    2    3    3    0    0 -0.44621898639E+02  0.13422657881E+02  0.39485612254E+03  0.40564201071E+03  0.80391552837E+02 0.  0.
         -6    2    1    2    0  502 -0.10582911190E+02  0.26907695745E+01  0.58140063417E+03  0.60631119822E+03  0.17166051798E+03 0.  0.
        -24    2    5    5    0    0  0.40271808905E+02 -0.30376310973E+02  0.22104491976E+03  0.24085536604E+03  0.81276761363E+02 0.  0.
          5    1    3    3  501    0  0.55204809829E+02 -0.16113427456E+02  0.73335222713E+02  0.93313227696E+02  0.47000000000E+01 0. -1.
        -11    1    4    4    0    0 -0.36940654263E+02 -0.30756117489E+02  0.20130658260E+03  0.20696591724E+03  0.00000000000E+00 0.  1.
         12    1    4    4    0    0 -0.76812443755E+01  0.44178775370E+02  0.19354953993E+03  0.19867609347E+03  0.00000000000E+00 0. -1.
         -5    1    5    5    0  502 -0.50854720096E+02  0.33067080547E+02  0.36035571440E+03  0.36545583218E+03  0.47000000000E+01 0.  1.
         13    1    6    6    0    0 -0.13933118723E+02 -0.35383851995E+02  0.12260071496E+03  0.12836309473E+03  0.00000000000E+00 0. -1.
        -14    1    6    6    0    0  0.54204927628E+02  0.50075410226E+01  0.98444204802E+02  0.11249227131E+03  0.00000000000E+00 0.  1.
</event>
<event>
12    1  0.9873238E-001  0.2271514E+03  0.7818608E-02  0.1128928E+00
         21   -1    0    0  503  502  0.00000000000E+00  0.00000000000E+00  0.19847682930E+03  0.19847682930E+03  0.00000000000E+00 0. -1.
         21   -1    0    0  501  503 -0.00000000000E+00 -0.00000000000E+00 -0.39685397005E+03  0.39685397005E+03  0.00000000000E+00 0. -1.
          6    2    1    2  501    0  0.10039390487E+03  0.10640454445E+03  0.76923143142E+02  0.23841626665E+03  0.17182631648E+03 0.  0.
         24    2    3    3    0    0  0.65631403945E+02  0.11552767688E+03  0.20298424228E+01  0.15521314466E+03  0.80205203732E+02 0.  0.
         -6    2    1    2    0  502 -0.10039390487E+03 -0.10640454445E+03 -0.27530028389E+03  0.35691453270E+03  0.17377247804E+03 0.  0.
        -24    2    5    5    0    0 -0.37460326312E+02  0.98381717182E+01 -0.15239575080E+03  0.17635811872E+03  0.79860224811E+02 0.  0.
          5    1    3    3  501    0  0.34762500927E+02 -0.91231324252E+01  0.74893300720E+02  0.83203121989E+02  0.47000000000E+01 0. -1.
        -11    1    4    4    0    0  0.38227604193E+02  0.82906208804E+02  0.38548186911E+02  0.99099706835E+02  0.00000000000E+00 0.  1.
         12    1    4    4    0    0  0.27403799752E+02  0.32621468075E+02 -0.36518344488E+02  0.56113437824E+02  0.00000000000E+00 0. -1.
         -5    1    5    5    0  502 -0.62933578561E+02 -0.11624271617E+03 -0.12290453309E+03  0.18055641398E+03  0.47000000000E+01 0.  1.
         13    1    6    6    0    0 -0.59640823816E+02  0.21832860187E+02 -0.11110042980E+03  0.12797268126E+03  0.00000000000E+00 0. -1.
        -14    1    6    6    0    0  0.22180497504E+02 -0.11994688469E+02 -0.41295321008E+02  0.48385437460E+02  0.00000000000E+00 0.  1.
</event>
<event>
12    1  0.9873238E-001  0.2222927E+03  0.7818608E-02  0.1132614E+00
         21   -1    0    0  503  502  0.00000000000E+00  0.00000000000E+00  0.13489529979E+03  0.13489529979E+03  0.00000000000E+00 0. -1.
         21   -1    0    0  501  503 -0.00000000000E+00 -0.00000000000E+00 -0.51204416815E+03  0.51204416815E+03  0.00000000000E+00 0. -1.
          6    2    1    2  501    0 -0.12648209117E+03  0.64390356742E+02 -0.14468874619E+02  0.22276306616E+03  0.17108535263E+03 0.  0.
         24    2    3    3    0    0 -0.32825592712E+02  0.73546122061E+02 -0.47237400515E+02  0.12300719399E+03  0.80080248248E+02 0.  0.
         -6    2    1    2    0  502  0.12648209117E+03 -0.64390356742E+02 -0.36267999373E+03  0.42417640178E+03  0.16806250190E+03 0.  0.
        -24    2    5    5    0    0  0.58904817623E+02 -0.97951646328E+02 -0.27426472388E+03  0.30784756614E+03  0.80527527311E+02 0.  0.
          5    1    3    3  501    0 -0.93656498455E+02 -0.91557653188E+01  0.32768525897E+02  0.99755872163E+02  0.47000000000E+01 0. -1.
        -13    1    4    4    0    0 -0.26493990160E+02  0.91100775863E+02 -0.40654653670E+02  0.10321862110E+03  0.00000000000E+00 0.  1.
         14    1    4    4    0    0 -0.63316025523E+01 -0.17554653802E+02 -0.65827468458E+01  0.19788572890E+02  0.00000000000E+00 0. -1.
         -5    1    5    5    0  502  0.67577273544E+02  0.33561289586E+02 -0.88415269855E+02  0.11632883564E+03  0.47000000000E+01 0.  1.
         13    1    6    6    0    0  0.61761944274E+01 -0.21099436737E+02 -0.15467068206E+03  0.15622532285E+03  0.00000000000E+00 0. -1.
        -14    1    6    6    0    0  0.52728623196E+02 -0.76852209591E+02 -0.11959404182E+03  0.15162224329E+03  0.00000000000E+00 0.  1.
</event>
<event>
12    1  0.9873238E-001  0.1756365E+03  0.7818608E-02  0.1172489E+00
         21   -1    0    0  501  502  0.00000000000E+00  0.00000000000E+00  0.94200932840E+02  0.94200932840E+02  0.00000000000E+00 0. -1.
         21   -1    0    0  502  503 -0.00000000000E+00 -0.00000000000E+00 -0.40781598701E+03  0.40781598701E+03  0.00000000000E+00 0. -1.
         -6    2    1    2    0  503 -0.28563072193E+02 -0.21247057683E+01 -0.27079316866E+03  0.32276480981E+03  0.17328536809E+03 0.  0.
        -24    2    3    3    0    0  0.18965130845E+01 -0.21952567895E+02 -0.47205692605E+02  0.96193893984E+02  0.80866407281E+02 0.  0.
          6    2    1    2  501    0  0.28563072193E+02  0.21247057683E+01 -0.42821885512E+02  0.17925211004E+03  0.17168937534E+03 0.  0.
         24    2    5    5    0    0 -0.47167690119E+01  0.61462744304E+02 -0.46969074860E+02  0.11093051881E+03  0.79369825271E+02 0.  0.
          5    1    5    5  501    0  0.33279841205E+02 -0.59338038536E+02  0.41471893480E+01  0.68321591224E+02  0.47000000000E+01 0. -1.
        -13    1    6    6    0    0 -0.46444284895E+01  0.93680749073E+01  0.22081997619E+02  0.24432481706E+02  0.00000000000E+00 0.  1.
         14    1    6    6    0    0 -0.72340522459E-01  0.52094669397E+02 -0.69051072479E+02  0.86498037106E+02  0.00000000000E+00 0. -1.
         -5    1    3    3    0  503 -0.30459585278E+02  0.19827862127E+02 -0.22358747605E+03  0.22657091583E+03  0.47000000000E+01 0.  1.
         13    1    4    4    0    0 -0.34038834041E+02 -0.20405664503E+02 -0.45227241956E+02  0.60170896467E+02  0.00000000000E+00 0. -1.
        -14    1    4    4    0    0  0.35935347126E+02 -0.15469033922E+01 -0.19784506485E+01  0.36022997517E+02  0.00000000000E+00 0.  1.
</event>
<event>
12    1  0.9873238E-001  0.2070815E+03  0.7818608E-02  0.1143939E+00
         21   -1    0    0  501  502  0.00000000000E+00  0.00000000000E+00  0.48467768887E+03  0.48467768887E+03  0.00000000000E+00 0.  1.
         21   -1    0    0  502  503 -0.00000000000E+00 -0.00000000000E+00 -0.91925289943E+02  0.91925289943E+02  0.00000000000E+00 0.  1.
         -6    2    1    2    0  503 -0.11673710838E+03  0.76548848840E+01  0.13974108786E+03  0.24965120139E+03  0.17062239297E+03 0.  0.
        -24    2    3    3    0    0 -0.11603332763E+03  0.28647101301E-01  0.34928337751E+02  0.14445397046E+03  0.78633497081E+02 0.  0.
          6    2    1    2  501    0  0.11673710838E+03 -0.76548848840E+01  0.25301131106E+03  0.32695177742E+03  0.17087010123E+03 0.  0.
         24    2    5    5    0    0  0.71678069895E+02 -0.63758936710E+02  0.10979834179E+03  0.16660831435E+03  0.80620759339E+02 0.  0.
          5    1    5    5  501    0  0.45059038486E+02  0.56104051826E+02  0.14321296928E+03  0.16034346307E+03  0.47000000000E+01 0. -1.
        -13    1    6    6    0    0 -0.15275106457E+02 -0.26758108059E+02  0.27266164028E+02  0.41143273144E+02  0.00000000000E+00 0.  1.
         14    1    6    6    0    0  0.86953176352E+02 -0.37000828651E+02  0.82532177760E+02  0.12546504120E+03  0.00000000000E+00 0. -1.
         -5    1    3    3    0  503 -0.70378075471E+00  0.76262377827E+01  0.10481275011E+03  0.10519723093E+03  0.47000000000E+01 0.  1.
         13    1    4    4    0    0 -0.36181661425E+02 -0.34580355221E+02  0.27504497176E+02  0.57108764263E+02  0.00000000000E+00 0. -1.
        -14    1    4    4    0    0 -0.79851666200E+02  0.34609002323E+02  0.74238405743E+01  0.87345206197E+02  0.00000000000E+00 0.  1.
</event>
<event>
12    1  0.9873238E-001  0.1780470E+03  0.7818608E-02  0.1170183E+00
         21   -1    0    0  503  502  0.00000000000E+00  0.00000000000E+00  0.25349244469E+03  0.25349244469E+03  0.00000000000E+00 0.  1.
         21   -1    0    0  501  503 -0.00000000000E+00 -0.00000000000E+00 -0.13020143221E+03  0.13020143221E+03  0.00000000000E+00 0.  1.
          6    2    1    2  501    0  0.27135023466E+02  0.24006551949E+02  0.10481728648E+03  0.20660925443E+03  0.17432181859E+03 0.  0.
         24    2    3    3    0    0  0.27019740693E+02 -0.32482109872E+02  0.39271672994E+01  0.90885927684E+02  0.80372105604E+02 0.  0.
         -6    2    1    2    0  502 -0.27135023466E+02 -0.24006551949E+02  0.18473726009E+02  0.17708462248E+03  0.17235156202E+03 0.  0.
        -24    2    5    5    0    0 -0.68118751590E+02 -0.12909604709E+02  0.55484604549E+02  0.12056291568E+03  0.81547857624E+02 0.  0.
          5    1    3    3  501    0  0.11528277264E+00  0.56488661821E+02  0.10089011918E+03  0.11572332674E+03  0.47000000000E+01 0. -1.
        -11    1    4    4    0    0  0.39586198057E+02 -0.26953341511E+01 -0.25503317219E+02  0.47167267167E+02  0.00000000000E+00 0.  1.
         12    1    4    4    0    0 -0.12566457364E+02 -0.29786775720E+02  0.29430484518E+02  0.43718660518E+02  0.00000000000E+00 0. -1.
         -5    1    5    5    0  502  0.40983728124E+02 -0.11096947240E+02 -0.37010878539E+02  0.56521706797E+02  0.47000000000E+01 0.  1.
         13    1    6    6    0    0 -0.45344162959E+02 -0.16815670593E+02 -0.11495336555E+02  0.49709180787E+02  0.00000000000E+00 0. -1.
        -14    1    6    6    0    0 -0.22774588631E+02  0.39060658838E+01  0.66979941103E+02  0.70853734892E+02  0.00000000000E+00 0.  1.
</event>
<event>
12    1  0.9873238E-001  0.2872856E+03  0.7818608E-02  0.1091939E+00
         21   -1    0    0  501  502  0.00000000000E+00  0.00000000000E+00  0.12801353145E+04  0.12801353145E+04  0.00000000000E+00 0. -1.
         21   -1    0    0  502  503 -0.00000000000E+00 -0.00000000000E+00 -0.67151781932E+02  0.67151781932E+02  0.00000000000E+00 0. -1.
         -6    2    1    2    0  503  0.20350620415E+03  0.10703733535E+03  0.46386029402E+03  0.54496630625E+03  0.17014739579E+03 0.  0.
        -24    2    3    3    0    0  0.10308778074E+03  0.12826392599E+03  0.29380911165E+03  0.34628585292E+03  0.80693076491E+02 0.  0.
          6    2    1    2  501    0 -0.20350620415E+03 -0.10703733535E+03  0.74912323857E+03  0.80232079021E+03  0.17222443946E+03 0.  0.
         24    2    5    5    0    0 -0.30918401825E+02 -0.40666986551E+02  0.34278899428E+03  0.35586678273E+03  0.80790600221E+02 0.  0.
          5    1    5    5  501    0 -0.17258780232E+03 -0.66370348797E+02  0.40633424429E+03  0.44645400747E+03  0.47000000000E+01 0. -1.
        -13    1    6    6    0    0 -0.56889544938E+01 -0.44819042020E+02  0.31452650113E+03  0.31775467053E+03  0.00000000000E+00 0.  1.
         14    1    6    6    0    0 -0.25229447332E+02  0.41520554689E+01  0.28262493154E+02  0.38112112203E+02  0.00000000000E+00 0. -1.
         -5    1    3    3    0  503  0.10041842341E+03 -0.21226590646E+02  0.17005118237E+03  0.19868045333E+03  0.47000000000E+01 0.  1.
         11    1    4    4    0    0 -0.63882638089E+01  0.22071304020E+01  0.51999439433E+02  0.52436848117E+02  0.00000000000E+00 0. -1.
        -12    1    4    4    0    0  0.10947604455E+03  0.12605679559E+03  0.24180967222E+03  0.29384900480E+03  0.00000000000E+00 0.  1.
</event>
<event>
12    1  0.9873238E-001  0.2331443E+03  0.7818608E-02  0.1125065E+00
         21   -1    0    0  503  502  0.00000000000E+00  0.00000000000E+00  0.84810577846E+02  0.84810577846E+02  0.00000000000E+00 0. -1.
         21   -1    0    0  501  503 -0.00000000000E+00 -0.00000000000E+00 -0.72524068970E+03  0.72524068970E+03  0.00000000000E+00 0. -1.
          6    2    1    2  501    0  0.87240364564E+02  0.12886021165E+03 -0.17222383799E+03  0.28700884594E+03  0.16881111314E+03 0.  0.
         24    2    3    3    0    0  0.12658878829E+02  0.97419556728E+02 -0.15384465137E+03  0.20387764062E+03  0.90813536135E+02 0.  0.
         -6    2    1    2    0  502 -0.87240364564E+02 -0.12886021165E+03 -0.46820627386E+03  0.52304242160E+03  0.17360997827E+03 0.  0.
        -24    2    5    5    0    0 -0.34485612491E+02  0.34789785706E+01 -0.21511438372E+03  0.23256984116E+03  0.81321412750E+02 0.  0.
          5    1    3    3  501    0  0.74581485735E+02  0.31440654926E+02 -0.18379186621E+02  0.83131205317E+02  0.47000000000E+01 0. -1.
        -11    1    4    4    0    0 -0.17219250035E+02  0.54490330573E+02 -0.20618006919E+02  0.60751962167E+02  0.00000000000E+00 0.  1.
         12    1    4    4    0    0  0.29878128864E+02  0.42929226154E+02 -0.13322664445E+03  0.14312567846E+03  0.00000000000E+00 0. -1.
         -5    1    5    5    0  502 -0.52754752072E+02 -0.13233919022E+03 -0.25309189014E+03  0.29047258044E+03  0.47000000000E+01 0.  1.
         11    1    6    6    0    0  0.24781162145E+02  0.65068283992E+01 -0.97791826287E+02  0.10109246313E+03  0.00000000000E+00 0. -1.
        -12    1    6    6    0    0 -0.59266774636E+02 -0.30278498286E+01 -0.11732255744E+03  0.13147737803E+03  0.00000000000E+00 0.  1.
</event>
<event>
12    1  0.9873238E-001  0.2586556E+03  0.7818608E-02  0.1108330E+00
         21   -1    0    0  501  502  0.00000000000E+00  0.00000000000E+00  0.38983793477E+03  0.38983793477E+03  0.00000000000E+00 0.  1.
         21   -1    0    0  502  503 -0.00000000000E+00 -0.00000000000E+00 -0.17345322789E+03  0.17345322789E+03  0.00000000000E+00 0.  1.
         -6    2    1    2    0  503  0.18402961764E+03 -0.57050470059E+02  0.68833175058E+02  0.26765780636E+03  0.17257183726E+03 0.  0.
        -24    2    3    3    0    0  0.20079247604E+02 -0.10744538120E+02  0.38332597234E+01  0.85254291700E+02  0.82066918361E+02 0.  0.
          6    2    1    2  501    0 -0.18402961764E+03  0.57050470059E+02  0.14755153182E+03  0.29563335629E+03  0.16883711235E+03 0.  0.
         24    2    5    5    0    0 -0.87248513941E+02  0.15815046549E+02  0.59716390817E+01  0.11918535201E+03  0.79417055971E+02 0.  0.
          5    1    5    5  501    0 -0.96781103701E+02  0.41235423509E+02  0.14157989274E+03  0.17644800428E+03  0.47000000000E+01 0. -1.
        -11    1    6    6    0    0 -0.55955796527E+02 -0.21570528067E+02  0.27397391679E+02  0.65931448618E+02  0.00000000000E+00 0.  1.
         12    1    6    6    0    0 -0.31292717414E+02  0.37385574616E+02 -0.21425752598E+02  0.53253903396E+02  0.00000000000E+00 0. -1.
         -5    1    3    3    0  503  0.16395037004E+03 -0.46305931938E+02  0.64999915334E+02  0.18240351466E+03  0.47000000000E+01 0.  1.
         13    1    4    4    0    0  0.61407656190E+01 -0.41911368554E+02  0.20731067222E+02  0.47159823628E+02  0.00000000000E+00 0. -1.
        -14    1    4    4    0    0  0.13938481985E+02  0.31166830434E+02 -0.16897807499E+02  0.38094468071E+02  0.00000000000E+00 0.  1.
</event>
<event>
12    1  0.9873238E-001  0.1757283E+03  0.7818608E-02  0.1172533E+00
         21   -1    0    0  503  502  0.00000000000E+00  0.00000000000E+00  0.12939086001E+04  0.12939086001E+04  0.00000000000E+00 0.  1.
         21   -1    0    0  501  503 -0.00000000000E+00 -0.00000000000E+00 -0.26103819486E+02  0.26103819486E+02  0.00000000000E+00 0.  1.
          6    2    1    2  501    0  0.30471834621E+02 -0.16145255756E+02  0.42523511825E+03  0.45931266552E+03  0.17015879914E+03 0.  0.
         24    2    3    3    0    0  0.64558961035E+02 -0.54619811390E+02  0.34521336831E+03  0.36408769988E+03  0.78970882576E+02 0.  0.
         -6    2    1    2    0  502 -0.30471834621E+02  0.16145255756E+02  0.84256966234E+03  0.86069975404E+03  0.17231142946E+03 0.  0.
        -24    2    5    5    0    0 -0.82399965632E+02 -0.21257944069E+02  0.46951059832E+03  0.48216219263E+03  0.69271376127E+02 0.  0.
          5    1    3    3  501    0 -0.34087126414E+02  0.38474555634E+02  0.80021749939E+02  0.95224965643E+02  0.47000000000E+01 0. -1.
        -13    1    4    4    0    0  0.99174148180E+01 -0.51142884460E+02  0.99112335340E+02  0.11196966002E+03  0.00000000000E+00 0.  1.
         14    1    4    4    0    0  0.54641546217E+02 -0.34769269304E+01  0.24610103297E+03  0.25211803986E+03  0.00000000000E+00 0. -1.
         -5    1    5    5    0  502  0.51928131011E+02  0.37403199826E+02  0.37305906402E+03  0.37853756141E+03  0.47000000000E+01 0.  1.
         11    1    6    6    0    0 -0.54110054888E+02  0.17235207522E+02  0.32601004958E+03  0.33091917873E+03  0.00000000000E+00 0. -1.
        -12    1    6    6    0    0 -0.28289910744E+02 -0.38493151591E+02  0.14350054873E+03  0.15124301391E+03  0.00000000000E+00 0.  1.
</event>
<event>
12    1  0.9873238E-001  0.1871862E+03  0.7818608E-02  0.1161046E+00
         21   -1    0    0  501  502  0.00000000000E+00  0.00000000000E+00  0.16229266266E+03  0.16229266266E+03  0.00000000000E+00 0.  1.
         21   -1    0    0  502  503 -0.00000000000E+00 -0.00000000000E+00 -0.21591155967E+03  0.21591155967E+03  0.00000000000E+00 0.  1.
         -6    2    1    2    0  503  0.19999196589E+02  0.71084546660E+02 -0.22298452281E+02  0.18850964535E+03  0.17200489754E+03 0.  0.
        -24    2    3    3    0    0 -0.31934718206E+02  0.44722958920E+02  0.38271793366E+02  0.10434962235E+03  0.80025897281E+02 0.  0.
          6    2    1    2  501    0 -0.19999196589E+02 -0.71084546660E+02 -0.31320444733E+02  0.18969457697E+03  0.17190137183E+03 0.  0.
         24    2    5    5    0    0 -0.41416923407E+02  0.26178348801E+01  0.26155350681E+02  0.93692925295E+02  0.79825104304E+02 0.  0.
          5    1    5    5  501    0  0.21417726817E+02 -0.73702381540E+02 -0.57475795414E+02  0.96001651680E+02  0.47000000000E+01 0. -1.
        -11    1    6    6    0    0 -0.55047587069E+02 -0.21950623804E+02  0.69700488886E+01  0.59671168155E+02  0.00000000000E+00 0.  1.
         12    1    6    6    0    0  0.13630663663E+02  0.24568458684E+02  0.19185301793E+02  0.34021757139E+02  0.00000000000E+00 0. -1.
         -5    1    3    3    0  503  0.51933914795E+02  0.26361587740E+02 -0.60570245647E+02  0.84160023003E+02  0.47000000000E+01 0.  1.
         11    1    4    4    0    0 -0.18324023094E+02  0.18352754367E+02  0.61447715832E+02  0.66696440656E+02  0.00000000000E+00 0. -1.
        -12    1    4    4    0    0 -0.13610695112E+02  0.26370204552E+02 -0.23175922466E+02  0.37653181694E+02  0.00000000000E+00 0.  1.
</event>
<event>
12    1  0.9873238E-001  0.3464968E+03  0.7818608E-02  0.1064127E+00
         21   -1    0    0  501  502  0.00000000000E+00  0.00000000000E+00  0.24272231286E+03  0.24272231286E+03  0.00000000000E+00 0.  1.
         21   -1    0    0  502  503 -0.00000000000E+00 -0.00000000000E+00 -0.98825009818E+03  0.98825009818E+03  0.00000000000E+00 0.  1.
         -6    2    1    2    0  503 -0.18978872947E+03 -0.23314710951E+03 -0.80797505250E+03  0.87889331206E+03  0.17103342369E+03 0.  0.
        -24    2    3    3    0    0 -0.13793712813E+03 -0.23390425495E+03 -0.74902759711E+03  0.80024183828E+03  0.74878613115E+02 0.  0.
          6    2    1    2  501    0  0.18978872947E+03  0.23314710951E+03  0.62447267180E+02  0.35207909897E+03  0.17228666299E+03 0.  0.
         24    2    5    5    0    0  0.12988821388E+03  0.18244585550E+03  0.10804370667E+03  0.26119557889E+03  0.79951545268E+02 0.  0.
          5    1    5    5  501    0  0.59900515593E+02  0.50701254016E+02 -0.45596439491E+02  0.90883520076E+02  0.47000000000E+01 0. -1.
        -11    1    6    6    0    0 -0.46190973125E+01  0.14174231973E+02  0.27359665205E+02  0.31157602477E+02  0.00000000000E+00 0.  1.
         12    1    6    6    0    0  0.13450731119E+03  0.16827162352E+03  0.80684041466E+02  0.23003797642E+03  0.00000000000E+00 0. -1.
         -5    1    3    3    0  503 -0.51851601342E+02  0.75714544297E+00 -0.58947455392E+02  0.78651473782E+02  0.47000000000E+01 0.  1.
         13    1    4    4    0    0 -0.19927973638E+02 -0.10516176221E+03 -0.28664361263E+03  0.30597496797E+03  0.00000000000E+00 0. -1.
        -14    1    4    4    0    0 -0.11800915449E+03 -0.12874249275E+03 -0.46238398448E+03  0.49426687031E+03  0.00000000000E+00 0.  1.
</event>
<event>
12    1  0.9873238E-001  0.2270825E+03  0.7818608E-02  0.1128848E+00
         21   -1    0    0  501  502  0.00000000000E+00  0.00000000000E+00  0.12006031725E+03  0.12006031725E+03  0.00000000000E+00 0.  1.
         21   -1    0    0  502  503 -0.00000000000E+00 -0.00000000000E+00 -0.55157840091E+03  0.55157840091E+03  0.00000000000E+00 0.  1.
         -6    2    1    2    0  503  0.14711822407E+03  0.11580154783E+02 -0.56555824596E+02  0.23327453294E+03  0.17158255910E+03 0.  0.
        -24    2    3    3    0    0  0.13916714480E+03  0.63353070653E+02 -0.54953534181E+02  0.18065978393E+03  0.78974431657E+02 0.  0.
          6    2    1    2  501    0 -0.14711822407E+03 -0.11580154783E+02 -0.37496225906E+03  0.43836418522E+03  0.17259371753E+03 0.  0.
         24    2    5    5    0    0 -0.78351492352E+01  0.49542294556E+01 -0.88750847722E+02  0.11959746366E+03  0.79629808425E+02 0.  0.
          5    1    5    5  501    0 -0.13928307483E+03 -0.16534384238E+02 -0.28621141133E+03  0.31876672156E+03  0.47000000000E+01 0. -1.
        -13    1    6    6    0    0  0.16579998362E+02  0.86769776615E+01 -0.92714432316E+02  0.94584101447E+02  0.00000000000E+00 0.  1.
         14    1    6    6    0    0 -0.24415147597E+02 -0.37227482059E+01  0.39635845939E+01  0.25013362214E+02  0.00000000000E+00 0. -1.
         -5    1    3    3    0  503  0.79510792616E+01 -0.51772915871E+02 -0.16022904154E+01  0.52614749014E+02  0.47000000000E+01 0.  1.
         13    1    4    4    0    0  0.81895127407E+01  0.85352890075E+01 -0.35411527388E+02  0.37334910598E+02  0.00000000000E+00 0. -1.
        -14    1    4    4    0    0  0.13097763206E+03  0.54817781646E+02 -0.19542006792E+02  0.14332487333E+03  0.00000000000E+00 0.  1.
</event>
<event>
12    1  0.9873238E-001  0.2997344E+03  0.7818608E-02  0.1085509E+00
         21   -1    0    0  503  502  0.00000000000E+00  0.00000000000E+00  0.49227287511E+03  0.49227287511E+03  0.00000000000E+00 0. -1.
         21   -1    0    0  501  503 -0.00000000000E+00 -0.00000000000E+00 -0.22518064666E+03  0.22518064666E+03  0.00000000000E+00 0. -1.
          6    2    1    2  501    0  0.23031056926E+03 -0.80280066576E+02  0.29072085791E+03  0.41678919162E+03  0.17235650734E+03 0.  0.
         24    2    3    3    0    0  0.16251372128E+03  0.12066771740E+02  0.15344930818E+03  0.23793193147E+03  0.80675877729E+02 0.  0.
         -6    2    1    2    0  502 -0.23031056926E+03  0.80280066576E+02 -0.23628629461E+02  0.30066433015E+03  0.17422077916E+03 0.  0.
        -24    2    5    5    0    0 -0.10218603303E+03  0.17019906824E+02 -0.71676945186E+02  0.14983835347E+03  0.81131283276E+02 0.  0.
          5    1    3    3  501    0  0.67796847983E+02 -0.92346838316E+02  0.13727154973E+03  0.17885726015E+03  0.47000000000E+01 0. -1.
        -11    1    4    4    0    0  0.16203666452E+03  0.18760072514E+02  0.16004572639E+03  0.22852233043E+03  0.00000000000E+00 0.  1.
         12    1    4    4    0    0  0.47705675371E+00 -0.66933007745E+01 -0.65964182112E+01  0.94096010341E+01  0.00000000000E+00 0. -1.
         -5    1    5    5    0  502 -0.12812453623E+03  0.63260159752E+02  0.48048315725E+02  0.15082597668E+03  0.47000000000E+01 0.  1.
         11    1    6    6    0    0 -0.98413371822E+02  0.25957260629E+02 -0.85517289551E+02  0.13293674415E+03  0.00000000000E+00 0. -1.
        -12    1    6    6    0    0 -0.37726612064E+01 -0.89373538044E+01  0.13840344365E+02  0.16901609324E+02  0.00000000000E+00 0.  1.
</event>
<event>
12    1  0.9873238E-001  0.4228731E+03  0.7818608E-02  0.1036198E+00
         21   -1    0    0  501  502  0.00000000000E+00  0.00000000000E+00  0.14678450434E+04  0.14678450434E+04  0.00000000000E+00 0.  1.
         21   -1    0    0  502  503 -0.00000000000E+00 -0.00000000000E+00 -0.39783294345E+03  0.39783294345E+03  0.00000000000E+00 0. -1.
         -6    2    1    2    0  503  0.38363688578E+03 -0.22140688547E+01 -0.24214970585E+03  0.48729675543E+03  0.17787491554E+03 0.  0.
        -24    2    3    3    0    0  0.29655672714E+03 -0.53953764102E+02 -0.13573390266E+03  0.34030572420E+03  0.80792280076E+02 0.  0.
          6    2    1    2  501    0 -0.38363688578E+03  0.22140688547E+01  0.13121618058E+04  0.13783812314E+04  0.17602287445E+03 0.  0.
         24    2    5    5    0    0 -0.28946733078E+03 -0.26514753998E+01  0.75336070391E+03  0.81166054178E+03  0.86267716848E+02 0.  0.
          5    1    5    5  501    0 -0.94169554998E+02  0.48655442545E+01  0.55880110189E+03  0.56672068965E+03  0.47000000000E+01 0. -1.
        -11    1    6    6    0    0 -0.19065951305E+02  0.13312685465E+02  0.23081464450E+02  0.32764189210E+02  0.00000000000E+00 0.  1.
         12    1    6    6    0    0 -0.27040137948E+03 -0.15964160865E+02  0.73027923946E+03  0.77889635257E+03  0.00000000000E+00 0. -1.
         -5    1    3    3    0  503  0.87080158639E+02  0.51739695247E+02 -0.10641580319E+03  0.14699103123E+03  0.47000000000E+01 0.  1.
         11    1    4    4    0    0  0.16984233045E+03  0.27479934849E+01 -0.49701756308E+02  0.17698653412E+03  0.00000000000E+00 0. -1.
        -12    1    4    4    0    0  0.12671439669E+03 -0.56701757586E+02 -0.86032146351E+02  0.16331919008E+03  0.00000000000E+00 0.  1.
</event>
<event>
12    1  0.9873238E-001  0.2611372E+03  0.7818608E-02  0.1106615E+00
         21   -1    0    0  503  502  0.00000000000E+00  0.00000000000E+00  0.11194541608E+03  0.11194541608E+03  0.00000000000E+00 0. -1.
         21   -1    0    0  501  503 -0.00000000000E+00 -0.00000000000E+00 -0.69016984807E+03  0.69016984807E+03  0.00000000000E+00 0. -1.
          6    2    1    2  501    0 -0.17568082198E+03  0.89436069925E+02 -0.42902295956E+03  0.50224825703E+03  0.17126018230E+03 0.  0.
         24    2    3    3    0    0 -0.13142359182E+03  0.10588172784E+03 -0.41179650575E+03  0.45177051147E+03  0.77698983959E+02 0.  0.
         -6    2    1    2    0  502  0.17568082198E+03 -0.89436069925E+02 -0.14920147243E+03  0.29986700713E+03  0.16969555319E+03 0.  0.
        -24    2    5    5    0    0  0.13987263190E+03 -0.96748706868E+02 -0.51569685830E+02  0.19551300917E+03  0.81493796213E+02 0.  0.
          5    1    3    3  501    0 -0.44257230162E+02 -0.16445657914E+02 -0.17226453810E+02  0.50477745559E+02  0.47000000000E+01 0. -1.
        -11    1    4    4    0    0 -0.13446213687E+03  0.84021552316E+02 -0.31703334669E+03  0.35447119829E+03  0.00000000000E+00 0.  1.
         12    1    4    4    0    0  0.30385450480E+01  0.21860175523E+02 -0.94763159055E+02  0.97299313173E+02  0.00000000000E+00 0. -1.
         -5    1    5    5    0  502  0.35808190083E+02  0.73126369425E+01 -0.97631786604E+02  0.10435399797E+03  0.47000000000E+01 0.  1.
         11    1    6    6    0    0  0.15507680293E+02 -0.53834479368E+02 -0.24745965193E+02  0.61245425219E+02  0.00000000000E+00 0. -1.
        -12    1    6    6    0    0  0.12436495161E+03 -0.42914227500E+02 -0.26823720637E+02  0.13426758395E+03  0.00000000000E+00 0.  1.
</event>
<event>
12    1  0.9873238E-001  0.3251340E+03  0.7818608E-02  0.1073942E+00
         21   -1    0    0  503  502  0.00000000000E+00  0.00000000000E+00  0.57016991686E+03  0.57016991686E+03  0.00000000000E+00 0. -1.
         21   -1    0    0  501  503 -0.00000000000E+00 -0.00000000000E+00 -0.18609041279E+03  0.18609041279E+03  0.00000000000E+00 0. -1.
          6    2    1    2  501    0 -0.24867999934E+02 -0.26906525293E+03  0.24470877614E+03  0.40251425473E+03  0.17064821235E+03 0.  0.
         24    2    3    3    0    0  0.14639108324E+02 -0.76507773541E+02  0.14648596069E+03  0.18272115668E+03  0.76558092420E+02 0.  0.
         -6    2    1    2    0  502  0.24867999934E+02  0.26906525293E+03  0.13937072793E+03  0.35374607492E+03  0.18082466082E+03 0.  0.
        -24    2    5    5    0    0  0.76445321714E+02  0.22840869895E+03  0.13621928264E+03  0.28782796579E+03  0.79213786421E+02 0.  0.
          5    1    3    3  501    0 -0.39507108258E+02 -0.19255747939E+03  0.98222815457E+02  0.21979309805E+03  0.47000000000E+01 0. -1.
        -13    1    4    4    0    0 -0.29713330576E+02 -0.45935396923E+02  0.83702706441E+02  0.99995428745E+02  0.00000000000E+00 0.  1.
         14    1    4    4    0    0  0.44352438900E+02 -0.30572376617E+02  0.62783254247E+02  0.82725727934E+02  0.00000000000E+00 0. -1.
         -5    1    5    5    0  502 -0.51577321780E+02  0.40656553988E+02  0.31514452851E+01  0.65918109132E+02  0.47000000000E+01 0.  1.
         13    1    6    6    0    0  0.27382769265E+02  0.85108308493E+02  0.95849380770E+02  0.13107381135E+03  0.00000000000E+00 0. -1.
        -14    1    6    6    0    0  0.49062552449E+02  0.14330039045E+03  0.40369901872E+02  0.15675415444E+03  0.00000000000E+00 0.  1.
</event>
<event>
12    1  0.9873238E-001  0.1866877E+03  0.7818608E-02  0.1161676E+00
         21   -1    0    0  501  502  0.00000000000E+00  0.00000000000E+00  0.46510875585E+03  0.46510875585E+03  0.00000000000E+00 0.  1.
         21   -1    0    0  502  503 -0.00000000000E+00 -0.00000000000E+00 -0.10185486289E+03  0.10185486289E+03  0.00000000000E+00 0.  1.
         -6    2    1    2    0  503  0.64800484482E+02  0.33010244843E+02  0.34689133624E+02  0.18906533025E+03  0.17103679153E+03 0.  0.
        -24    2    3    3    0    0  0.31296816153E+02 -0.31386035618E+01  0.83552634044E+02  0.11950264840E+03  0.79438647937E+02 0.  0.
          6    2    1    2  501    0 -0.64800484482E+02 -0.33010244843E+02  0.32856475934E+03  0.37789828849E+03  0.17194050225E+03 0.  0.
         24    2    5    5    0    0 -0.56182185131E+02 -0.87521436087E+02  0.23002606083E+03  0.26485975454E+03  0.80139011810E+02 0.  0.
          5    1    5    5  501    0 -0.86182993513E+01  0.54511191244E+02  0.98538698510E+02  0.11303853395E+03  0.47000000000E+01 0. -1.
        -11    1    6    6    0    0  0.18286550666E+02 -0.65804659594E+01  0.20674861052E+02  0.28375171312E+02  0.00000000000E+00 0.  1.
         12    1    6    6    0    0 -0.74468735797E+02 -0.80940970127E+02  0.20935119978E+03  0.23648458323E+03  0.00000000000E+00 0. -1.
         -5    1    3    3    0  503  0.33503668329E+02  0.36148848405E+02 -0.48863500419E+02  0.69562681847E+02  0.47000000000E+01 0.  1.
         13    1    4    4    0    0 -0.15183864089E+02  0.11806766069E+02  0.64137859601E+02  0.66959797550E+02  0.00000000000E+00 0. -1.
        -14    1    4    4    0    0  0.46480680242E+02 -0.14945369631E+02  0.19414774442E+02  0.52542850853E+02  0.00000000000E+00 0.  1.
</event>
<event>
12    1  0.9873238E-001  0.1995713E+03  0.7818608E-02  0.1150259E+00
         21   -1    0    0  503  502  0.00000000000E+00  0.00000000000E+00  0.33942280237E+03  0.33942280237E+03  0.00000000000E+00 0.  1.
         21   -1    0    0  501  503 -0.00000000000E+00 -0.00000000000E+00 -0.26034726603E+03  0.26034726603E+03  0.00000000000E+00 0.  1.
          6    2    1    2  501    0  0.93353956635E+02  0.40793184386E+02  0.26210012121E+03  0.32898105607E+03  0.17074254480E+03 0.  0.
         24    2    3    3    0    0  0.60886310097E+02  0.79191542314E+02  0.11014851310E+03  0.16885621986E+03  0.80008030335E+02 0.  0.
         -6    2    1    2    0  502 -0.93353956635E+02 -0.40793184386E+02 -0.18302458486E+03  0.27078901234E+03  0.17160898993E+03 0.  0.
        -24    2    5    5    0    0 -0.73987477005E+02 -0.64453917869E+02 -0.19918070653E+03  0.23588913971E+03  0.79638420967E+02 0.  0.
          5    1    3    3  501    0  0.32467646538E+02 -0.38398357927E+02  0.15195160811E+03  0.16012483621E+03  0.47000000000E+01 0. -1.
        -13    1    4    4    0    0 -0.24968396524E+01  0.55187289611E+02  0.26718274497E+02  0.61365603843E+02  0.00000000000E+00 0.  1.
         14    1    4    4    0    0  0.63383149749E+02  0.24004252703E+02  0.83430238598E+02  0.10749061602E+03  0.00000000000E+00 0. -1.
         -5    1    5    5    0  502 -0.19366479629E+02  0.23660733483E+02  0.16156121669E+02  0.34899872629E+02  0.47000000000E+01 0.  1.
         13    1    6    6    0    0 -0.45809911629E+02 -0.38275225801E+02 -0.39355087896E+02  0.71500796197E+02  0.00000000000E+00 0. -1.
        -14    1    6    6    0    0 -0.28177565377E+02 -0.26178692068E+02 -0.15982561864E+03  0.16438834351E+03  0.00000000000E+00 0.  1.
</event>
<event>
12    1  0.9873238E-001  0.1816858E+03  0.7818608E-02  0.1166718E+00
         21   -1    0    0  503  502  0.00000000000E+00  0.00000000000E+00  0.14336162051E+03  0.14336162051E+03  0.00000000000E+00 0.  1.
         21   -1    0    0  501  503 -0.00000000000E+00 -0.00000000000E+00 -0.35192606901E+03  0.35192606901E+03  0.00000000000E+00 0.  1.
          6    2    1    2  501    0  0.45546718819E+02 -0.30275028566E+02  0.43420908271E+02  0.18463295197E+03  0.17091773088E+03 0.  0.
         24    2    3    3    0    0  0.81835331178E+02  0.18301326830E+02  0.17232361277E+02  0.11841772952E+03  0.81815917746E+02 0.  0.
         -6    2    1    2    0  502 -0.45546718819E+02  0.30275028566E+02 -0.25198535677E+03  0.31065473756E+03  0.17325895357E+03 0.  0.
        -24    2    5    5    0    0 -0.26731434570E+02 -0.40897638144E+02 -0.19899525832E+03  0.21982740719E+03  0.79610236263E+02 0.  0.
          5    1    3    3  501    0 -0.36288612358E+02 -0.48576355396E+02  0.26188546993E+02  0.66215222450E+02  0.47000000000E+01 0. -1.
        -13    1    4    4    0    0  0.17559592487E+02  0.44268090734E+02  0.35337965426E+01  0.47754485271E+02  0.00000000000E+00 0.  1.
         14    1    4    4    0    0  0.64275738690E+02 -0.25966763904E+02  0.13698564735E+02  0.70663244248E+02  0.00000000000E+00 0. -1.
         -5    1    5    5    0  502 -0.18815284249E+02  0.71172666710E+02 -0.52990098447E+02  0.90827330366E+02  0.47000000000E+01 0.  1.
         11    1    6    6    0    0  0.79092768441E+01 -0.32064434220E+02 -0.23017754973E+02  0.40255454860E+02  0.00000000000E+00 0. -1.
        -12    1    6    6    0    0 -0.34640711415E+02 -0.88332039245E+01 -0.17597750335E+03  0.17957195233E+03  0.00000000000E+00 0.  1.
</event>
<event>
12    1  0.9873238E-001  0.2098478E+03  0.7818608E-02  0.1141951E+00
         21   -1    0    0  503  502  0.00000000000E+00  0.00000000000E+00  0.50849065132E+02  0.50849065132E+02  0.00000000000E+00 0.  1.
         21   -1    0    0  501  503 -0.00000000000E+00 -0.00000000000E+00 -0.86229038993E+03  0.86229038993E+03  0.00000000000E+00 0.  1.
          6    2    1    2  501    0  0.21876656044E+02  0.11598071241E+03 -0.38647082905E+03  0.43976788449E+03  0.17351073968E+03 0.  0.
         24    2    3    3    0    0 -0.63352385217E+02  0.67141025491E+02 -0.16725509099E+03  0.19950358355E+03  0.57497585754E+02 0.  0.
         -6    2    1    2    0  502 -0.21876656044E+02 -0.11598071241E+03 -0.42497049574E+03  0.47337157058E+03  0.17190290238E+03 0.  0.
        -24    2    5    5    0    0 -0.78535567789E+02 -0.53137670022E+02 -0.26131350213E+03  0.28907511967E+03  0.79298367166E+02 0.  0.
          5    1    3    3  501    0  0.85229041262E+02  0.48839686921E+02 -0.21921573806E+03  0.24026430094E+03  0.47000000000E+01 0. -1.
        -13    1    4    4    0    0  0.65801087292E+01  0.87794570445E+01 -0.49121946317E+02  0.50332318711E+02  0.00000000000E+00 0.  1.
         14    1    4    4    0    0 -0.69932493946E+02  0.58361568446E+02 -0.11813314468E+03  0.14917126484E+03  0.00000000000E+00 0. -1.
         -5    1    5    5    0  502  0.56658911744E+02 -0.62843042390E+02 -0.16365699361E+03  0.18429645090E+03  0.47000000000E+01 0.  1.
         13    1    6    6    0    0 -0.39986719453E+02 -0.70234617144E+02 -0.18504947219E+03  0.20192856740E+03  0.00000000000E+00 0. -1.
        -14    1    6    6    0    0 -0.38548848335E+02  0.17096947122E+02 -0.76264029946E+02  0.87146552269E+02  0.00000000000E+00 0.  1.
</event>
<event>
12    1  0.9873238E-001  0.1993153E+03  0.7818608E-02  0.1151052E+00
         21   -1    0    0  503  502  0.00000000000E+00  0.00000000000E+00  0.15174025478E+03  0.15174025478E+03  0.00000000000E+00 0.  1.
         21   -1    0    0  501  503 -0.00000000000E+00 -0.00000000000E+00 -0.46203560738E+03  0.46203560738E+03  0.00000000000E+00 0.  1.
          6    2    1    2  501    0 -0.49059904501E+02  0.79436029946E+02  0.48374483247E+02  0.20510167208E+03  0.17609556547E+03 0.  0.
         24    2    3    3    0    0 -0.67420570797E+02  0.32076881822E+02 -0.27813776018E+02  0.11341337497E+03  0.80712624609E+02 0.  0.
         -6    2    1    2    0  502  0.49059904501E+02 -0.79436029946E+02 -0.35866983584E+03  0.40867419008E+03  0.17220216436E+03 0.  0.
        -24    2    5    5    0    0  0.38186682807E+02 -0.65258700148E+02 -0.37075290405E+03  0.38659899659E+03  0.79272615821E+02 0.  0.
          5    1    3    3  501    0  0.18360666296E+02  0.47359148125E+02  0.76188259265E+02  0.91688297115E+02  0.47000000000E+01 0. -1.
        -11    1    4    4    0    0  0.50784926006E+01 -0.11151400012E+02 -0.26273984204E+02  0.28990809841E+02  0.00000000000E+00 0.  1.
         12    1    4    4    0    0 -0.72499063398E+02  0.43228281834E+02 -0.15397918146E+01  0.84422565127E+02  0.00000000000E+00 0. -1.
         -5    1    5    5    0  502  0.10873221694E+02 -0.14177329798E+02  0.12083068204E+02  0.22075193486E+02  0.47000000000E+01 0.  1.
         13    1    6    6    0    0  0.30872532157E+02 -0.24394608439E+02 -0.31305816881E+03  0.31552119932E+03  0.00000000000E+00 0. -1.
        -14    1    6    6    0    0  0.73141506499E+01 -0.40864091709E+02 -0.57694735236E+02  0.71077797271E+02  0.00000000000E+00 0.  1.
</event>
<event>
12    1  0.9873238E-001  0.1765531E+03  0.7818608E-02  0.1171422E+00
         21   -1    0    0  501  502  0.00000000000E+00  0.00000000000E+00  0.41983903535E+02  0.41983903535E+02  0.00000000000E+00 0. -1.
         21   -1    0    0  502  503 -0.00000000000E+00 -0.00000000000E+00 -0.79766725264E+03  0.79766725264E+03  0.00000000000E+00 0. -1.
         -6    2    1    2    0  503  0.15956579014E+02 -0.33994261475E+02 -0.26243745660E+03  0.31575945246E+03  0.17152373296E+03 0.  0.
        -24    2    3    3    0    0 -0.26506948295E+02  0.60689127934E+01 -0.57197281221E+02  0.10232602333E+03  0.80371861125E+02 0.  0.
          6    2    1    2  501    0 -0.15956579014E+02  0.33994261475E+02 -0.49324589251E+03  0.52389170371E+03  0.17251314302E+03 0.  0.
         24    2    5    5    0    0 -0.20401490639E+02  0.28063601044E+01 -0.48394196448E+03  0.49070894452E+03  0.78557919793E+02 0.  0.
          5    1    5    5  501    0  0.44449116244E+01  0.31187901371E+02 -0.93039280279E+01  0.33182759198E+02  0.47000000000E+01 0. -1.
        -11    1    6    6    0    0 -0.25068482318E+02  0.28460421472E+02 -0.41921619270E+03  0.42092830817E+03  0.00000000000E+00 0.  1.
         12    1    6    6    0    0  0.46669916796E+01 -0.25654061368E+02 -0.64725771784E+02  0.69780636347E+02  0.00000000000E+00 0. -1.
         -5    1    3    3    0  503  0.42463527309E+02 -0.40063174269E+02 -0.20524017537E+03  0.21343342913E+03  0.47000000000E+01 0.  1.
         11    1    4    4    0    0 -0.29689778478E+02 -0.19488955648E+02 -0.66132044697E+02  0.75064969687E+02  0.00000000000E+00 0. -1.
        -12    1    4    4    0    0  0.31828301830E+01  0.25557868441E+02  0.89347634762E+01  0.27261053641E+02  0.00000000000E+00 0.  1.
</event>
<event>
12    1  0.9873238E-001  0.2014763E+03  0.7818608E-02  0.1148885E+00
         21   -1    0    0  503  502  0.00000000000E+00  0.00000000000E+00  0.68197349545E+02  0.68197349545E+02  0.00000000000E+00 0.  1.
         21   -1    0    0  501  503 -0.00000000000E+00 -0.00000000000E+00 -0.70571562006E+03  0.70571562006E+03  0.00000000000E+00 0. -1.
          6    2    1    2  501    0 -0.77933677865E+02 -0.64954760416E+02 -0.16072106106E+03  0.25629508150E+03  0.17193932153E+03 0.  0.
         24    2    3    3    0    0  0.10193959217E+02  0.87057854955E+01 -0.41933340293E+02  0.90992422582E+02  0.79633588602E+02 0.  0.
         -6    2    1    2    0  502  0.77933677865E+02  0.64954760416E+02 -0.47679720946E+03  0.51761788810E+03  0.17406872232E+03 0.  0.
        -24    2    5    5    0    0  0.44193948761E+02 -0.24035648488E+02 -0.15876362283E+03  0.18561620976E+03  0.81955304207E+02 0.  0.
          5    1    3    3  501    0 -0.88127637082E+02 -0.73660545911E+02 -0.11878772076E+03  0.16530265892E+03  0.47000000000E+01 0. -1.
        -11    1    4    4    0    0  0.25721447644E+02 -0.80396905944E+01  0.14150134509E+02  0.30437736453E+02  0.00000000000E+00 0.  1.
         12    1    4    4    0    0 -0.15527488427E+02  0.16745476090E+02 -0.56083474802E+02  0.60554686129E+02  0.00000000000E+00 0. -1.
         -5    1    5    5    0  502  0.33739729103E+02  0.88990408904E+02 -0.31803358663E+03  0.33200167834E+03  0.47000000000E+01 0.  1.
         11    1    6    6    0    0  0.18391837649E+02 -0.17154202693E+02 -0.54096423983E+00  0.25155894030E+02  0.00000000000E+00 0. -1.
        -12    1    6    6    0    0  0.25802111113E+02 -0.68814457949E+01 -0.15822265859E+03  0.16046031573E+03  0.00000000000E+00 0.  1.
</event>
<event>
12    1  0.9873238E-001  0.2235029E+03  0.7818608E-02  0.1133454E+00
         21   -1    0    0  501  502  0.00000000000E+00  0.00000000000E+00  0.21321823858E+03  0.21321823858E+03  0.00000000000E+00 0. -1.
         21   -1    0    0  502  503 -0.00000000000E+00 -0.00000000000E+00 -0.27278448103E+03  0.27278448103E+03  0.00000000000E+00 0. -1.
         -6    2    1    2    0  503 -0.76735382873E+02  0.12049338525E+03  0.73973542369E+02  0.23542646198E+03  0.17189112589E+03 0.  0.
        -24    2    3    3    0    0 -0.69372124201E+01 -0.37522675193E+01  0.18738547242E+02  0.82515502543E+02  0.79971686111E+02 0.  0.
          6    2    1    2  501    0  0.76735382873E+02 -0.12049338525E+03 -0.13353978481E+03  0.25057625763E+03  0.15667996645E+03 0.  0.
         24    2    5    5    0    0 -0.14504252374E+02 -0.57812453352E+02 -0.43918226048E+02  0.10807122593E+03  0.78726908968E+02 0.  0.
          5    1    5    5  501    0  0.91239635246E+02 -0.62680931898E+02 -0.89621558763E+02  0.14250503170E+03  0.47000000000E+01 0. -1.
        -13    1    6    6    0    0  0.23803605514E+02 -0.46522265468E+02 -0.43718164052E+02  0.68133770539E+02  0.00000000000E+00 0.  1.
         14    1    6    6    0    0 -0.38307857888E+02 -0.11290187883E+02 -0.20006199544E+00  0.39937455392E+02  0.00000000000E+00 0. -1.
         -5    1    3    3    0  503 -0.69798170453E+02  0.12424565277E+03  0.55234995127E+02  0.15291095944E+03  0.47000000000E+01 0.  1.
         11    1    4    4    0    0  0.34430622649E+02 -0.47511730755E+01 -0.45159126359E+01  0.35049035486E+02  0.00000000000E+00 0. -1.
        -12    1    4    4    0    0 -0.41367835069E+02  0.99890555618E+00  0.23254459878E+02  0.47466467057E+02  0.00000000000E+00 0.  1.
</event>
<event>
12    1  0.9873238E-001  0.3997087E+03  0.7818608E-02  0.1044269E+00
         21   -1    0    0  501  502  0.00000000000E+00  0.00000000000E+00  0.11081769576E+04  0.11081769576E+04  0.00000000000E+00 0.  1.
         21   -1    0    0  502  503 -0.00000000000E+00 -0.00000000000E+00 -0.17766098707E+03  0.17766098707E+03  0.00000000000E+00 0.  1.
         -6    2    1    2    0  503 -0.30635974512E+03  0.18164902763E+03  0.75308898912E+03  0.85259020329E+03  0.18142316977E+03 0.  0.
        -24    2    3    3    0    0 -0.97842610044E+02  0.45624865744E+02  0.15908727959E+03  0.20850784119E+03  0.80696670282E+02 0.  0.
          6    2    1    2  501    0  0.30635974512E+03 -0.18164902763E+03  0.17742698142E+03  0.43324774140E+03  0.17137855473E+03 0.  0.
         24    2    5    5    0    0  0.55487341000E+02 -0.64432663607E+02  0.36241079340E+02  0.12239055861E+03  0.80222315190E+02 0.  0.
          5    1    5    5  501    0  0.25087240412E+03 -0.11721636403E+03  0.14118590208E+03  0.31085718279E+03  0.47000000000E+01 0. -1.
        -11    1    6    6    0    0  0.17608198711E+02 -0.53153156848E+02  0.55136291626E+02  0.78583187763E+02  0.00000000000E+00 0.  1.
         12    1    6    6    0    0  0.37879142289E+02 -0.11279506759E+02 -0.18895212285E+02  0.43807370847E+02  0.00000000000E+00 0. -1.
         -5    1    3    3    0  503 -0.20851713508E+03  0.13602416189E+03  0.59400170953E+03  0.64408236209E+03  0.47000000000E+01 0.  1.
         11    1    4    4    0    0 -0.82323734750E+02  0.67531271635E+02  0.13837401107E+03  0.17459964745E+03  0.00000000000E+00 0. -1.
        -12    1    4    4    0    0 -0.15518875294E+02 -0.21906405891E+02  0.20713268526E+02  0.33908193737E+02  0.00000000000E+00 0.  1.
</event>
<event>
12    1  0.9873238E-001  0.1878288E+03  0.7818608E-02  0.1160818E+00
         21   -1    0    0  501  502  0.00000000000E+00  0.00000000000E+00  0.70905509094E+02  0.70905509094E+02  0.00000000000E+00 0.  1.
         21   -1    0    0  502  503 -0.00000000000E+00 -0.00000000000E+00 -0.50390472203E+03  0.50390472203E+03  0.00000000000E+00 0.  1.
         -6    2    1    2    0  503  0.63722544023E+02 -0.37205661968E+02 -0.17357122855E+03  0.25452513175E+03  0.17091298200E+03 0.  0.
        -24    2    3    3    0    0  0.26368308050E+02 -0.69025670489E+02 -0.47027224878E+02  0.11871892147E+03  0.80142320774E+02 0.  0.
          6    2    1    2  501    0 -0.63722544023E+02  0.37205661968E+02 -0.25942798439E+03  0.32028509937E+03  0.17272765238E+03 0.  0.
         24    2    5    5    0    0 -0.37468980222E+02 -0.43551232006E+02 -0.11099294634E+03  0.14921208555E+03  0.81511827665E+02 0.  0.
          5    1    5    5  501    0 -0.26253563801E+02  0.80756893974E+02 -0.14843503805E+03  0.17107301382E+03  0.47000000000E+01 0. -1.
        -11    1    6    6    0    0 -0.54550204600E+02 -0.26313222828E+02 -0.36150254502E+02  0.70533335509E+02  0.00000000000E+00 0.  1.
         12    1    6    6    0    0  0.17081224377E+02 -0.17238009178E+02 -0.74842691841E+02  0.78678750045E+02  0.00000000000E+00 0. -1.
         -5    1    3    3    0  503  0.37354235973E+02  0.31820008521E+02 -0.12654400367E+03  0.13580621028E+03  0.47000000000E+01 0.  1.
         11    1    4    4    0    0  0.15761432276E+02 -0.28122792883E+02 -0.65189362998E+02  0.72725286352E+02  0.00000000000E+00 0. -1.
        -12    1    4    4    0    0  0.10606875775E+02 -0.40902877607E+02  0.18162138120E+02  0.45993635117E+02  0.00000000000E+00 0.  1.
</event>
<event>
12    1  0.9873238E-001  0.1754871E+03  0.7818608E-02  0.1172684E+00
         21   -1    0    0  503  502  0.00000000000E+00  0.00000000000E+00  0.17231583086E+03  0.17231583086E+03  0.00000000000E+00 0. -1.
         21   -1    0    0  501  503 -0.00000000000E+00 -0.00000000000E+00 -0.88615578129E+03  0.88615578129E+03  0.00000000000E+00 0. -1.
          6    2    1    2  501    0  0.22438670266E+02 -0.15799180538E+02  0.11618239585E+03  0.21046156970E+03  0.17332805654E+03 0.  0.
         24    2    3    3    0    0  0.40514515029E+02  0.45327132321E+02  0.10490053748E+03  0.14555754351E+03  0.80541299071E+02 0.  0.
         -6    2    1    2    0  502 -0.22438670266E+02  0.15799180538E+02 -0.83002234629E+03  0.84801004245E+03  0.17155415686E+03 0.  0.
        -24    2    5    5    0    0  0.47017256870E+02 -0.16515018104E+02 -0.39269430829E+03  0.40399851550E+03  0.80762692476E+02 0.  0.
          5    1    3    3  501    0 -0.18075844762E+02 -0.61126312859E+02  0.11281858374E+02  0.64904026193E+02  0.47000000000E+01 0. -1.
        -11    1    4    4    0    0  0.42105757032E+02 -0.10483127982E+02  0.59239233936E+02  0.73430767290E+02  0.00000000000E+00 0.  1.
         12    1    4    4    0    0 -0.15912420029E+01  0.55810260303E+02  0.45661303542E+02  0.72126776216E+02  0.00000000000E+00 0. -1.
         -5    1    5    5    0  502 -0.69455927136E+02  0.32314198642E+02 -0.43732803799E+03  0.44401152695E+03  0.47000000000E+01 0.  1.
         11    1    6    6    0    0  0.24861032414E+01  0.18542384547E+02 -0.24640911851E+03  0.24711830045E+03  0.00000000000E+00 0. -1.
        -12    1    6    6    0    0  0.44531153628E+02 -0.35057402651E+02 -0.14628518979E+03  0.15688021505E+03  0.00000000000E+00 0.  1.
</event>
<event>
12    1  0.9873238E-001  0.2549830E+03  0.7818608E-02  0.1110405E+00
         21   -1    0    0  501  502  0.00000000000E+00  0.00000000000E+00  0.21378946045E+03  0.21378946045E+03  0.00000000000E+00 0.  1.
         21   -1    0    0  502  503 -0.00000000000E+00 -0.00000000000E+00 -0.31995017831E+03  0.31995017831E+03  0.00000000000E+00 0.  1.
         -6    2    1    2    0  503 -0.49597541995E+02  0.17959796516E+03 -0.11553523342E+03  0.27993699998E+03  0.17407179133E+03 0.  0.
        -24    2    3    3    0    0 -0.38592412147E+02  0.14844486109E+03 -0.15216419273E+03  0.23038501278E+03  0.79987883493E+02 0.  0.
          6    2    1    2  501    0  0.49597541995E+02 -0.17959796516E+03  0.93745155558E+01  0.25380263878E+03  0.17208298188E+03 0.  0.
         24    2    5    5    0    0  0.70553564850E+02 -0.16793222077E+03  0.51452805055E+02  0.20514139206E+03  0.79098440568E+02 0.  0.
          5    1    5    5  501    0 -0.20956022855E+02 -0.11665744384E+02 -0.42078289499E+02  0.48661246728E+02  0.47000000000E+01 0. -1.
        -13    1    6    6    0    0 -0.47519240284E+01  0.11144323477E+01 -0.91830092005E+01  0.10399538423E+02  0.00000000000E+00 0.  1.
         14    1    6    6    0    0  0.75305488878E+02 -0.16904665312E+03  0.60635814255E+02  0.19474185363E+03  0.00000000000E+00 0. -1.
         -5    1    3    3    0  503 -0.11005129848E+02  0.31153104070E+02  0.36628959303E+02  0.49551987204E+02  0.47000000000E+01 0.  1.
         13    1    4    4    0    0  0.89188743631E+01  0.55510835760E+02 -0.15307571726E+02  0.58269382688E+02  0.00000000000E+00 0. -1.
        -14    1    4    4    0    0 -0.47511286510E+02  0.92934025325E+02 -0.13685662100E+03  0.17211563009E+03  0.00000000000E+00 0.  1.
</event>
<event>
12    1  0.9873238E-001  0.2105744E+03  0.7818608E-02  0.1144529E+00
         21   -1    0    0  503  502  0.00000000000E+00  0.00000000000E+00  0.11401096994E+03  0.11401096994E+03  0.00000000000E+00 0. -1.
         21   -1    0    0  501  503 -0.00000000000E+00 -0.00000000000E+00 -0.63011241343E+03  0.63011241343E+03  0.00000000000E+00 0. -1.
          6    2    1    2  501    0 -0.11136489082E+03 -0.46595832454E+02 -0.20097744175E+02  0.21153132232E+03  0.17253483849E+03 0.  0.
         24    2    3    3    0    0 -0.76628559039E+02  0.90685916427E+01  0.42203240233E+02  0.12092975768E+03  0.82998297528E+02 0.  0.
         -6    2    1    2    0  502  0.11136489082E+03  0.46595832454E+02 -0.49600369931E+03  0.53259206106E+03  0.15185955112E+03 0.  0.
        -24    2    5    5    0    0  0.10829764162E+03 -0.15840088786E+02 -0.30799260817E+03  0.33440550079E+03  0.70627931300E+02 0.  0.
          5    1    3    3  501    0 -0.34736331776E+02 -0.55664424097E+02 -0.62300984409E+02  0.90601564631E+02  0.47000000000E+01 0. -1.
        -13    1    4    4    0    0 -0.79912159866E+02  0.34189083607E+02  0.25489733462E+02  0.90579099379E+02  0.00000000000E+00 0.  1.
         14    1    4    4    0    0  0.32836008269E+01 -0.25120491965E+02  0.16713506772E+02  0.30350658305E+02  0.00000000000E+00 0. -1.
         -5    1    5    5    0  502  0.30672491974E+01  0.62435921241E+02 -0.18801109114E+03  0.19818656027E+03  0.47000000000E+01 0.  1.
         11    1    6    6    0    0  0.46000684758E+02 -0.17887258157E+02 -0.22646350150E+03  0.23177949546E+03  0.00000000000E+00 0. -1.
        -12    1    6    6    0    0  0.62296956861E+02  0.20471693707E+01 -0.81529106666E+02  0.10262600533E+03  0.00000000000E+00 0.  1.
</event>
<event>
12    1  0.9873238E-001  0.1766031E+03  0.7818608E-02  0.1172102E+00
         21   -1    0    0  501  502  0.00000000000E+00  0.00000000000E+00  0.28228943074E+03  0.28228943074E+03  0.00000000000E+00 0.  1.
         21   -1    0    0  502  503 -0.00000000000E+00 -0.00000000000E+00 -0.24783493773E+03  0.24783493773E+03  0.00000000000E+00 0.  1.
         -6    2    1    2    0  503 -0.37620682186E+01  0.15654831386E+02  0.21634904294E+03  0.27927683856E+03  0.17586761291E+03 0.  0.
        -24    2    3    3    0    0 -0.18088192718E+02  0.73392099171E+02  0.18545519679E+03  0.21208048698E+03  0.69791976668E+02 0.  0.
          6    2    1    2  501    0  0.37620682186E+01 -0.15654831386E+02 -0.18189454994E+03  0.25084752991E+03  0.17198729332E+03 0.  0.
         24    2    5    5    0    0  0.40919308937E+02 -0.64774012967E+02 -0.11637291836E+03  0.16080016048E+03  0.80274360060E+02 0.  0.
          5    1    5    5  501    0 -0.37157240719E+02  0.49119181581E+02 -0.65521631580E+02  0.90047369434E+02  0.47000000000E+01 0. -1.
        -11    1    6    6    0    0  0.28288308574E+02 -0.19657871096E+02  0.95786069826E+00  0.34461250632E+02  0.00000000000E+00 0.  1.
         12    1    6    6    0    0  0.12631000364E+02 -0.45116141871E+02 -0.11733077905E+03  0.12633890985E+03  0.00000000000E+00 0. -1.
         -5    1    3    3    0  503  0.14326124500E+02 -0.57737267785E+02  0.30893846154E+02  0.67196351573E+02  0.47000000000E+01 0.  1.
         11    1    4    4    0    0 -0.43731297912E+02  0.55389427008E+02  0.14123933579E+03  0.15788909087E+03  0.00000000000E+00 0. -1.
        -12    1    4    4    0    0  0.25643105194E+02  0.18002672163E+02  0.44215860995E+02  0.54191396111E+02  0.00000000000E+00 0.  1.
</event>
<event>
12    1  0.9873238E-001  0.2763885E+03  0.7818608E-02  0.1098187E+00
         21   -1    0    0  503  502  0.00000000000E+00  0.00000000000E+00  0.16269661073E+03  0.16269661073E+03  0.00000000000E+00 0.  1.
         21   -1    0    0  501  503 -0.00000000000E+00 -0.00000000000E+00 -0.53156270758E+03  0.53156270758E+03  0.00000000000E+00 0. -1.
          6    2    1    2  501    0 -0.20887224936E+03 -0.17303373633E+02 -0.59031354830E+02  0.27906278926E+03  0.17454029967E+03 0.  0.
         24    2    3    3    0    0 -0.13223673276E+03 -0.39619128239E+02 -0.10095566890E+03  0.18878137690E+03  0.79938303507E+02 0.  0.
         -6    2    1    2    0  502  0.20887224936E+03  0.17303373633E+02 -0.30983474203E+03  0.41519652905E+03  0.18017648869E+03 0.  0.
        -24    2    5    5    0    0  0.68196138351E+02 -0.54435980980E+02 -0.13289586590E+03  0.17799248378E+03  0.80037639874E+02 0.  0.
          5    1    3    3  501    0 -0.76635516594E+02  0.22315754606E+02  0.41924314075E+02  0.90281412361E+02  0.47000000000E+01 0. -1.
        -11    1    4    4    0    0 -0.33018282855E+02  0.21078866908E+02 -0.45147965227E+02  0.59773442238E+02  0.00000000000E+00 0.  1.
         12    1    4    4    0    0 -0.99218449906E+02 -0.60697995147E+02 -0.55807703678E+02  0.12900793466E+03  0.00000000000E+00 0. -1.
         -5    1    5    5    0  502  0.14067611100E+03  0.71739354613E+02 -0.17693887612E+03  0.23720404527E+03  0.47000000000E+01 0.  1.
         11    1    6    6    0    0  0.31729258710E+02  0.17850301991E+02 -0.52547887093E+02  0.63926986299E+02  0.00000000000E+00 0. -1.
        -12    1    6    6    0    0  0.36466879641E+02 -0.72286282970E+02 -0.80347978811E+02  0.11406549748E+03  0.00000000000E+00 0.  1.
</event>
<event>
12    1  0.9873238E-001  0.1809852E+03  0.7818608E-02  0.1167094E+00
         21   -1    0    0  503  502  0.00000000000E+00  0.00000000000E+00  0.43687130260E+02  0.43687130260E+02  0.00000000000E+00 0.  1.
         21   -1    0    0  501  503 -0.00000000000E+00 -0.00000000000E+00 -0.84907907105E+03  0.84907907105E+03  0.00000000000E+00 0.  1.
          6    2    1    2  501    0  0.24794194948E+02  0.54418025572E+02 -0.24591219983E+03  0.30474134794E+03  0.16975984657E+03 0.  0.
         24    2    3    3    0    0 -0.31481494262E+02  0.62310456713E+02 -0.93672947477E+02  0.14217405842E+03  0.81025701482E+02 0.  0.
         -6    2    1    2    0  502 -0.24794194948E+02 -0.54418025572E+02 -0.55947974096E+03  0.58802485337E+03  0.17082029747E+03 0.  0.
        -24    2    5    5    0    0 -0.37472165949E+02 -0.83103112962E+02 -0.53368710408E+03  0.54714802247E+03  0.78985712794E+02 0.  0.
          5    1    3    3  501    0  0.56275689209E+02 -0.78924311412E+01 -0.15223925235E+03  0.16256728952E+03  0.47000000000E+01 0. -1.
        -13    1    4    4    0    0 -0.21268470639E+02  0.76829887753E+02 -0.95417467759E+02  0.12433693196E+03  0.00000000000E+00 0.  1.
         14    1    4    4    0    0 -0.10213023623E+02 -0.14519431040E+02  0.17445202813E+01  0.17837126457E+02  0.00000000000E+00 0. -1.
         -5    1    5    5    0  502  0.12677971002E+02  0.28685087390E+02 -0.25792636875E+02  0.40876830898E+02  0.47000000000E+01 0.  1.
         11    1    6    6    0    0 -0.50328373841E+02 -0.48189148421E+02 -0.20840003541E+03  0.21974010558E+03  0.00000000000E+00 0. -1.
        -12    1    6    6    0    0  0.12856207891E+02 -0.34913964541E+02 -0.32528706867E+03  0.32740791690E+03  0.00000000000E+00 0.  1.
</event>
<event>
12    1  0.9873238E-001  0.2764949E+03  0.7818608E-02  0.1097730E+00
         21   -1    0    0  503  502  0.00000000000E+00  0.00000000000E+00  0.86196991705E+03  0.86196991705E+03  0.00000000000E+00 0.  1.
         21   -1    0    0  501  503 -0.00000000000E+00 -0.00000000000E+00 -0.13177553343E+03  0.13177553343E+03  0.00000000000E+00 0.  1.
          6    2    1    2  501    0 -0.75234122790E+02  0.20350424159E+03  0.64969659599E+03  0.70577094007E+03  0.17009645331E+03 0.  0.
         24    2    3    3    0    0  0.23602951198E+02  0.59406678691E+02  0.21648795783E+03  0.23862568535E+03  0.77388171228E+02 0.  0.
         -6    2    1    2    0  502  0.75234122790E+02 -0.20350424159E+03  0.80497787627E+02  0.28797451042E+03  0.17139216802E+03 0.  0.
        -24    2    5    5    0    0 -0.17559506797E+02 -0.13833661334E+03  0.67415629425E+02  0.17373480485E+03  0.78699176979E+02 0.  0.
          5    1    3    3  501    0 -0.98837073988E+02  0.14409756290E+03  0.43320863816E+03  0.46714525471E+03  0.47000000000E+01 0. -1.
        -11    1    4    4    0    0  0.36255474677E+02  0.64230304351E+02  0.11760400734E+03  0.13881892516E+03  0.00000000000E+00 0.  1.
         12    1    4    4    0    0 -0.12652523479E+02 -0.48236256603E+01  0.98883950489E+02  0.99806760188E+02  0.00000000000E+00 0. -1.
         -5    1    5    5    0  502  0.92793629587E+02 -0.65167628256E+02  0.13082158202E+02  0.11423970557E+03  0.47000000000E+01 0.  1.
         13    1    6    6    0    0 -0.87499539823E+01 -0.12785259211E+03  0.26868928922E+02  0.13093810120E+03  0.00000000000E+00 0. -1.
        -14    1    6    6    0    0 -0.88095528150E+01 -0.10484021228E+02  0.40546700503E+02  0.42796703653E+02  0.00000000000E+00 0.  1.
</event>
<event>
12    1  0.9873238E-001  0.2917283E+03  0.7818608E-02  0.1090852E+00
         21   -1    0    0  501  502  0.00000000000E+00  0.00000000000E+00  0.38990568198E+03  0.38990568198E+03  0.00000000000E+00 0.  1.
         21   -1    0    0  502  503 -0.00000000000E+00 -0.00000000000E+00 -0.21798502091E+03  0.21798502091E+03  0.00000000000E+00 0.  1.
         -6    2    1    2    0  503 -0.16136508157E+02 -0.22077462298E+03  0.27760443668E+02  0.28248704193E+03  0.17328146345E+03 0.  0.
        -24    2    3    3    0    0 -0.71461630560E+02 -0.13114689883E+03 -0.12284072762E+02  0.16970560994E+03  0.79641835024E+02 0.  0.
          6    2    1    2  501    0  0.16136508157E+02  0.22077462298E+03  0.14416021741E+03  0.32540366096E+03  0.19000935039E+03 0.  0.
         24    2    5    5    0    0 -0.45664686208E+02  0.13426155613E+03  0.23788287416E+02  0.16473197743E+03  0.80369849741E+02 0.  0.
          5    1    5    5  501    0  0.61801194365E+02  0.86513066853E+02  0.12037192999E+03  0.16067168354E+03  0.47000000000E+01 0. -1.
        -11    1    6    6    0    0  0.11778301351E+02  0.44667767819E+02 -0.19100873019E+02  0.49987810662E+02  0.00000000000E+00 0.  1.
         12    1    6    6    0    0 -0.57442987558E+02  0.89593788311E+02  0.42889160435E+02  0.11474416676E+03  0.00000000000E+00 0. -1.
         -5    1    3    3    0  503  0.55325122403E+02 -0.89627724151E+02  0.40044516430E+02  0.11278143199E+03  0.47000000000E+01 0.  1.
         13    1    4    4    0    0 -0.23734304234E+02 -0.10837930865E+02 -0.29218176714E+02  0.39172436654E+02  0.00000000000E+00 0. -1.
        -14    1    4    4    0    0 -0.47727326326E+02 -0.12030896797E+03  0.16934103953E+02  0.13053317329E+03  0.00000000000E+00 0.  1.
</event>
<event>
12    1  0.9873238E-001  0.1958840E+03  0.7818608E-02  0.1153547E+00
         21   -1    0    0  501  502  0.00000000000E+00  0.00000000000E+00  0.22103427573E+03  0.22103427573E+03  0.00000000000E+00 0. -1.
         21   -1    0    0  502  503 -0.00000000000E+00 -0.00000000000E+00 -0.41189283745E+03  0.41189283745E+03  0.00000000000E+00 0. -1.
         -6    2    1    2    0  503 -0.69762354826E+02 -0.52498585342E+02  0.14600654322E+03  0.24324948307E+03  0.17386636459E+03 0.  0.
        -24    2    3    3    0    0 -0.24365406821E+02 -0.90316402139E+02  0.59285399915E+02  0.13820798245E+03  0.82679877999E+02 0.  0.
          6    2    1    2  501    0  0.69762354826E+02  0.52498585342E+02 -0.33686510493E+03  0.38967763011E+03  0.17535013223E+03 0.  0.
         24    2    5    5    0    0  0.10019948230E+03  0.90677390499E+02 -0.22278648651E+03  0.26550009159E+03  0.50932844616E+02 0.  0.
          5    1    5    5  501    0 -0.30437127475E+02 -0.38178805157E+02 -0.11407861842E+03  0.12417753852E+03  0.47000000000E+01 0. -1.
        -13    1    6    6    0    0  0.82786698520E+02  0.43210691281E+02 -0.13406828373E+03  0.16338637029E+03  0.00000000000E+00 0.  1.
         14    1    6    6    0    0  0.17412783780E+02  0.47466699218E+02 -0.88718202779E+02  0.10211372130E+03  0.00000000000E+00 0. -1.
         -5    1    3    3    0  503 -0.45396948005E+02  0.37817816797E+02  0.86721143304E+02  0.10504150061E+03  0.47000000000E+01 0.  1.
         13    1    4    4    0    0  0.14195528586E+02 -0.66496649749E+02  0.63048019071E+02  0.92727397076E+02  0.00000000000E+00 0. -1.
        -14    1    4    4    0    0 -0.38560935407E+02 -0.23819752389E+02 -0.37626191560E+01  0.45480585377E+02  0.00000000000E+00 0.  1.
</event>
<event>
12    1  0.9873238E-001  0.3706517E+03  0.7818608E-02  0.1054529E+00
         21   -1    0    0  503  502  0.00000000000E+00  0.00000000000E+00  0.27544050447E+03  0.27544050447E+03  0.00000000000E+00 0.  1.
         21   -1    0    0  501  503 -0.00000000000E+00 -0.00000000000E+00 -0.49823725674E+03  0.49823725674E+03  0.00000000000E+00 0.  1.
          6    2    1    2  501    0  0.78411382043E+02 -0.31829235434E+03 -0.97466711955E+02  0.38325243908E+03  0.17298642854E+03 0.  0.
         24    2    3    3    0    0  0.59700757127E+02 -0.54226467208E+02 -0.43961677892E+02  0.11313069079E+03  0.66039639063E+02 0.  0.
         -6    2    1    2    0  502 -0.78411382043E+02  0.31829235434E+03 -0.12533004032E+03  0.39042532213E+03  0.17107292446E+03 0.  0.
        -24    2    5    5    0    0 -0.11632176178E+03  0.28428891031E+03 -0.11610770833E+03  0.33845828925E+03  0.81988272597E+02 0.  0.
          5    1    3    3  501    0  0.18710624916E+02 -0.26406588713E+03 -0.53505034063E+02  0.27012174830E+03  0.47000000000E+01 0. -1.
        -13    1    4    4    0    0  0.46489512876E+02 -0.36581145719E+02 -0.61222943638E+02  0.85133447347E+02  0.00000000000E+00 0.  1.
         14    1    4    4    0    0  0.13211244251E+02 -0.17645321490E+02  0.17261265746E+02  0.27997243441E+02  0.00000000000E+00 0. -1.
         -5    1    5    5    0  502  0.37910379739E+02  0.34003444032E+02 -0.92223319976E+01  0.51967032871E+02  0.47000000000E+01 0.  1.
         13    1    6    6    0    0 -0.12220502582E+03  0.24556243401E+03 -0.81374816546E+02  0.28610634054E+03  0.00000000000E+00 0. -1.
        -14    1    6    6    0    0  0.58832640369E+01  0.38726476300E+02 -0.34732891779E+02  0.52351948710E+02  0.00000000000E+00 0.  1.
</event>
<event>
12    1  0.9873238E-001  0.2446997E+03  0.7818608E-02  0.1116824E+00
         21   -1    0    0  503  502  0.00000000000E+00  0.00000000000E+00  0.67482402395E+03  0.67482402395E+03  0.00000000000E+00 0.  1.
         21   -1    0    0  501  503 -0.00000000000E+00 -0.00000000000E+00 -0.93513610412E+02  0.93513610412E+02  0.00000000000E+00 0.  1.
          6    2    1    2  501    0  0.68235856894E+02 -0.16019903586E+03  0.20089074220E+03  0.31601354757E+03  0.17084381373E+03 0.  0.
         24    2    3    3    0    0 -0.15587727654E+02 -0.54987876744E+02  0.11142656637E+03  0.15439142629E+03  0.90300548048E+02 0.  0.
         -6    2    1    2    0  502 -0.68235856894E+02  0.16019903586E+03  0.38041967133E+03  0.45232408679E+03  0.17192466344E+03 0.  0.
        -24    2    5    5    0    0 -0.86123102258E+02  0.12728723474E+03  0.37649566834E+03  0.41436848115E+03  0.79580280391E+02 0.  0.
          5    1    3    3  501    0  0.83823584548E+02 -0.10521115911E+03  0.89464175839E+02  0.16162212128E+03  0.47000000000E+01 0. -1.
        -11    1    4    4    0    0 -0.15740693056E+02 -0.41609866435E+00  0.96553416545E+02  0.97828956871E+02  0.00000000000E+00 0.  1.
         12    1    4    4    0    0  0.15296540167E+00 -0.54571778080E+02  0.14873149820E+02  0.56562469419E+02  0.00000000000E+00 0. -1.
         -5    1    5    5    0  502  0.17887245364E+02  0.32911801119E+02  0.39240029930E+01  0.37955605635E+02  0.47000000000E+01 0.  1.
         11    1    6    6    0    0 -0.65473090929E+02  0.83920732499E+02  0.15700608337E+03  0.18968480486E+03  0.00000000000E+00 0. -1.
        -12    1    6    6    0    0 -0.20650011329E+02  0.43366502239E+02  0.21948958497E+03  0.22468367630E+03  0.00000000000E+00 0.  1.
</event>
<event>
12    1  0.9873238E-001  0.1775873E+03  0.7818608E-02  0.1170378E+00
         21   -1    0    0  501  502  0.00000000000E+00  0.00000000000E+00  0.26898002779E+03  0.26898002779E+03  0.00000000000E+00 0.  1.
         21   -1    0    0  502  503 -0.00000000000E+00 -0.00000000000E+00 -0.12829577365E+03  0.12829577365E+03  0.00000000000E+00 0.  1.
         -6    2    1    2    0  503 -0.27192904893E+02  0.30798154302E+02  0.10362835483E+02  0.17700113026E+03  0.17185468096E+03 0.  0.
        -24    2    3    3    0    0 -0.59775673389E+02  0.53182047066E+02  0.48524102711E+02  0.12185543437E+03  0.78055730621E+02 0.  0.
          6    2    1    2  501    0  0.27192904893E+02 -0.30798154302E+02  0.13032141866E+03  0.22027467119E+03  0.17276943660E+03 0.  0.
         24    2    5    5    0    0  0.21267146225E+02 -0.83160812363E+02  0.56830068395E+02  0.12972064788E+03  0.78928940134E+02 0.  0.
          5    1    5    5  501    0  0.59257586675E+01  0.52362658060E+02  0.73491350263E+02  0.90554023315E+02  0.47000000000E+01 0. -1.
        -13    1    6    6    0    0  0.38279911735E+02 -0.20577317494E+02  0.47189866786E+02  0.64153418965E+02  0.00000000000E+00 0.  1.
         14    1    6    6    0    0 -0.17012765509E+02 -0.62583494868E+02  0.96402016094E+01  0.65567228913E+02  0.00000000000E+00 0. -1.
         -5    1    3    3    0  503  0.32582768496E+02 -0.22383892763E+02 -0.38161267229E+02  0.55145695884E+02  0.47000000000E+01 0.  1.
         13    1    4    4    0    0 -0.29227276766E+02  0.50196244322E+02  0.64874584959E+02  0.87078174216E+02  0.00000000000E+00 0. -1.
        -14    1    4    4    0    0 -0.30548396622E+02  0.29858027438E+01 -0.16350482248E+02  0.34777260156E+02  0.00000000000E+00 0.  1.
</event>
<event>
12    1  0.9873238E-001  0.1821887E+03  0.7818608E-02  0.1165757E+00
         21   -1    0    0  503  502  0.00000000000E+00  0.00000000000E+00  0.23531292913E+03  0.23531292913E+03  0.00000000000E+00 0. -1.
         21   -1    0    0  501  503 -0.00000000000E+00 -0.00000000000E+00 -0.34121366233E+03  0.34121366233E+03  0.00000000000E+00 0. -1.
          6    2    1    2  501    0 -0.34780838229E+02 -0.51893135097E+02 -0.27384378376E+03  0.32891204651E+03  0.17114354285E+03 0.  0.
         24    2    3    3    0    0 -0.64605596557E+02 -0.44075529847E+02 -0.27626294132E+03  0.29762988731E+03  0.78395163314E+02 0.  0.
         -6    2    1    2    0  502  0.34780838229E+02  0.51893135097E+02  0.16794305056E+03  0.24761454495E+03  0.17089613940E+03 0.  0.
        -24    2    5    5    0    0 -0.70619798277E+01 -0.31597758097E+02  0.86322254472E+02  0.12349526754E+03  0.82166049029E+02 0.  0.
          5    1    3    3  501    0  0.29824758328E+02 -0.78176052501E+01  0.24191575652E+01  0.31282159204E+02  0.47000000000E+01 0. -1.
        -13    1    4    4    0    0 -0.29656778518E+02 -0.60054906404E+02 -0.12796641809E+03  0.14443517735E+03  0.00000000000E+00 0.  1.
         14    1    4    4    0    0 -0.34948818038E+02  0.15979376557E+02 -0.14829652323E+03  0.15319470996E+03  0.00000000000E+00 0. -1.
         -5    1    5    5    0  502  0.41842818057E+02  0.83490893194E+02  0.81620796090E+02  0.12411927741E+03  0.47000000000E+01 0.  1.
         11    1    6    6    0    0  0.16757469361E+01 -0.42189474883E+02  0.97202203188E+02  0.10597654563E+03  0.00000000000E+00 0. -1.
        -12    1    6    6    0    0 -0.87377267638E+01  0.10591716787E+02 -0.10879948717E+02  0.17518721916E+02  0.00000000000E+00 0.  1.
</event>
<event>
12    1  0.9873238E-001  0.2057577E+03  0.7818608E-02  0.1145036E+00
         21   -1    0    0  503  502  0.00000000000E+00  0.00000000000E+00  0.27461519709E+02  0.27461519709E+02  0.00000000000E+00 0.  1.
         21   -1    0    0  501  503 -0.00000000000E+00 -0.00000000000E+00 -0.15977889833E+04  0.15977889833E+04  0.00000000000E+00 0.  1.
          6    2    1    2  501    0  0.87564833253E+02  0.71353630233E+02 -0.63019129549E+03  0.66293084279E+03  0.17198050135E+03 0.  0.
         24    2    3    3    0    0 -0.36870758196E+01  0.27451854351E+02 -0.14056424578E+03  0.16291982827E+03  0.77571672772E+02 0.  0.
         -6    2    1    2    0  502 -0.87564833253E+02 -0.71353630233E+02 -0.94013616806E+03  0.96231966017E+03  0.17159304560E+03 0.  0.
        -24    2    5    5    0    0 -0.50252225447E+02 -0.23079629284E+01 -0.20253189195E+03  0.22053687997E+03  0.71321352446E+02 0.  0.
          5    1    3    3  501    0  0.91251909072E+02  0.43901775882E+02 -0.48962704971E+03  0.50001101452E+03  0.47000000000E+01 0. -1.
        -13    1    4    4    0    0  0.26478365160E+02  0.35257487357E+02 -0.47653312529E+02  0.64923281119E+02  0.00000000000E+00 0.  1.
         14    1    4    4    0    0 -0.30165440980E+02 -0.78056330059E+01 -0.92910933248E+02  0.97996547149E+02  0.00000000000E+00 0. -1.
         -5    1    5    5    0  502 -0.37312607805E+02 -0.69045667305E+02 -0.73760427611E+03  0.74178278021E+03  0.47000000000E+01 0.  1.
         11    1    6    6    0    0 -0.34833492814E+02 -0.24482640083E+02 -0.50176920243E+02  0.65806498252E+02  0.00000000000E+00 0. -1.
        -12    1    6    6    0    0 -0.15418732633E+02  0.22174677155E+02 -0.15235497170E+03  0.15473038172E+03  0.00000000000E+00 0.  1.
</event>
<event>
12    1  0.9873238E-001  0.2973218E+03  0.7818608E-02  0.1086625E+00
         21   -1    0    0  501  502  0.00000000000E+00  0.00000000000E+00  0.12316604127E+03  0.12316604127E+03  0.00000000000E+00 0.  1.
         21   -1    0    0  502  503 -0.00000000000E+00 -0.00000000000E+00 -0.73563227348E+03  0.73563227348E+03  0.00000000000E+00 0.  1.
         -6    2    1    2    0  503  0.31093950807E+02  0.24037823915E+03 -0.23805495088E+03  0.38088111192E+03  0.17219677740E+03 0.  0.
        -24    2    3    3    0    0  0.72279884713E+02  0.10052480710E+03 -0.84306359941E+02  0.16894720047E+03  0.78140742528E+02 0.  0.
          6    2    1    2  501    0 -0.31093950807E+02 -0.24037823915E+03 -0.37441128133E+03  0.47791720283E+03  0.17167560554E+03 0.  0.
         24    2    5    5    0    0 -0.37227347798E+02 -0.57644494564E+02 -0.20576821032E+03  0.22913654568E+03  0.73852806394E+02 0.  0.
          5    1    5    5  501    0  0.61333969910E+01 -0.18273374459E+03 -0.16864307101E+03  0.24878065715E+03  0.47000000000E+01 0. -1.
        -11    1    6    6    0    0  0.18768087965E+02 -0.93625678255E+01 -0.19133064321E+02  0.28389662775E+02  0.00000000000E+00 0.  1.
         12    1    6    6    0    0 -0.55995435763E+02 -0.48281926738E+02 -0.18663514600E+03  0.20074688291E+03  0.00000000000E+00 0. -1.
         -5    1    3    3    0  503 -0.41185933907E+02  0.13985343205E+03 -0.15374859094E+03  0.21193391146E+03  0.47000000000E+01 0.  1.
         13    1    4    4    0    0  0.24657850533E+02  0.94880064529E+02 -0.50508407324E+02  0.11027844508E+03  0.00000000000E+00 0. -1.
        -14    1    4    4    0    0  0.47622034180E+02  0.56447425700E+01 -0.33797952617E+02  0.58668755392E+02  0.00000000000E+00 0.  1.
</event>
<event>
12    1  0.9873238E-001  0.2389596E+03  0.7818608E-02  0.1120604E+00
         21   -1    0    0  503  502  0.00000000000E+00  0.00000000000E+00  0.19007851746E+02  0.19007851746E+02  0.00000000000E+00 0.  1.
         21   -1    0    0  501  503 -0.00000000000E+00 -0.00000000000E+00 -0.38395796839E+04  0.38395796839E+04  0.00000000000E+00 0.  1.
          6    2    1    2  501    0  0.79269800470E+02  0.14476211246E+03 -0.10035115573E+04  0.10314104491E+04  0.17184963912E+03 0.  0.
         24    2    3    3    0    0  0.60404635025E+02  0.10458191654E+02 -0.54579951488E+03  0.55400512722E+03  0.72570495628E+02 0.  0.
         -6    2    1    2    0  502 -0.79269800470E+02 -0.14476211246E+03 -0.28170602749E+04  0.28271770866E+04  0.17280600654E+03 0.  0.
        -24    2    5    5    0    0  0.81888456646E+01 -0.14316237734E+02 -0.10445617066E+04  0.10477281815E+04  0.79706785213E+02 0.  0.
          5    1    3    3  501    0  0.18865165446E+02  0.13430392081E+03 -0.45771204238E+03  0.47740532187E+03  0.47000000000E+01 0. -1.
        -13    1    4    4    0    0  0.64756527781E+02  0.24368304452E+02 -0.51815179715E+03  0.52275090344E+03  0.00000000000E+00 0.  1.
         14    1    4    4    0    0 -0.43518927564E+01 -0.13910112798E+02 -0.27647717729E+02  0.31254223782E+02  0.00000000000E+00 0. -1.
         -5    1    5    5    0  502 -0.87458646135E+02 -0.13044587473E+03 -0.17724985683E+04  0.17794489051E+04  0.47000000000E+01 0.  1.
         13    1    6    6    0    0  0.87531349172E+01 -0.74588747668E+01 -0.10384842189E+04  0.10385478925E+04  0.00000000000E+00 0. -1.
        -14    1    6    6    0    0 -0.56428925260E+00 -0.68573629676E+01 -0.60774877061E+01  0.91802889959E+01  0.00000000000E+00 0.  1.
</event>
<event>
12    1  0.9873238E-001  0.1984038E+03  0.7818608E-02  0.1151359E+00
         21   -1    0    0  501  502  0.00000000000E+00  0.00000000000E+00  0.21855311351E+04  0.21855311351E+04  0.00000000000E+00 0. -1.
         21   -1    0    0  502  503 -0.00000000000E+00 -0.00000000000E+00 -0.20481964486E+02  0.20481964486E+02  0.00000000000E+00 0. -1.
         -6    2    1    2    0  503 -0.46277793006E+02 -0.87996771389E+02  0.68781738340E+03  0.71551727197E+03  0.17025612377E+03 0.  0.
        -24    2    3    3    0    0 -0.65682867491E+02 -0.87727685324E+02  0.68127786970E+03  0.69450573793E+03  0.78665738579E+02 0.  0.
          6    2    1    2  501    0  0.46277793006E+02  0.87996771389E+02  0.14772317872E+04  0.14904958276E+04  0.17169447596E+03 0.  0.
         24    2    5    5    0    0  0.88751335937E+02  0.63326107774E+02  0.12828523751E+04  0.12899513454E+04  0.79857758816E+02 0.  0.
          5    1    5    5  501    0 -0.42473542931E+02  0.24670663615E+02  0.19437941211E+03  0.20054448221E+03  0.47000000000E+01 0. -1.
        -11    1    6    6    0    0  0.94771346164E+02  0.68358365810E+02  0.97181684397E+03  0.97881686359E+03  0.00000000000E+00 0.  1.
         12    1    6    6    0    0 -0.60200102279E+01 -0.50322580362E+01  0.31103553111E+03  0.31113448179E+03  0.00000000000E+00 0. -1.
         -5    1    3    3    0  503  0.19405074486E+02 -0.26908606514E+00  0.65395136964E+01  0.21011534035E+02  0.47000000000E+01 0.  1.
         11    1    4    4    0    0  0.94083960562E+01  0.81930095816E+01  0.85100478085E+02  0.86010084831E+02  0.00000000000E+00 0. -1.
        -12    1    4    4    0    0 -0.75091263547E+02 -0.95920694905E+02  0.59617739161E+03  0.60849565310E+03  0.00000000000E+00 0.  1.
</event>
<event>
12    1  0.9873238E-001  0.1761308E+03  0.7818608E-02  0.1171995E+00
         21   -1    0    0  501  502  0.00000000000E+00  0.00000000000E+00  0.30428244920E+03  0.30428244920E+03  0.00000000000E+00 0. -1.
         21   -1    0    0  502  503 -0.00000000000E+00 -0.00000000000E+00 -0.11964668548E+03  0.11964668548E+03  0.00000000000E+00 0. -1.
         -6    2    1    2    0  503  0.14806657280E+02 -0.32902996412E+02  0.83820679043E+01  0.17475566887E+03  0.17078477820E+03 0.  0.
        -24    2    3    3    0    0 -0.27406944727E+02 -0.57972164378E+01  0.57765951100E+02  0.10420377717E+03  0.82077851655E+02 0.  0.
          6    2    1    2  501    0 -0.14806657280E+02  0.32902996412E+02  0.17625369582E+03  0.24917346582E+03  0.17239549445E+03 0.  0.
         24    2    5    5    0    0  0.47234240291E+02  0.56384988450E+02  0.12093215821E+03  0.16266890267E+03  0.80163861119E+02 0.  0.
          5    1    5    5  501    0 -0.62040897571E+02 -0.23481992038E+02  0.55321537609E+02  0.86504563145E+02  0.47000000000E+01 0. -1.
        -11    1    6    6    0    0 -0.18620493269E+02  0.13606424086E+02  0.66411786473E+01  0.23999224984E+02  0.00000000000E+00 0.  1.
         12    1    6    6    0    0  0.65854733560E+02  0.42778564364E+02  0.11429097956E+03  0.13866967769E+03  0.00000000000E+00 0. -1.
         -5    1    3    3    0  503  0.42213602007E+02 -0.27105779974E+02 -0.49383883196E+02  0.70551891696E+02  0.47000000000E+01 0.  1.
         13    1    4    4    0    0 -0.37270572933E+02 -0.99539134639E+01 -0.64408720535E+01  0.39110878702E+02  0.00000000000E+00 0. -1.
        -14    1    4    4    0    0  0.98636282063E+01  0.41566970261E+01  0.64206823154E+02  0.65092898468E+02  0.00000000000E+00 0.  1.
</event>
<event>
12    1  0.9873238E-001  0.2231805E+03  0.7818608E-02  0.1131635E+00
         21   -1    0    0  501  502  0.00000000000E+00  0.00000000000E+00  0.26159712428E+03  0.26159712428E+03  0.00000000000E+00 0.  1.
         21   -1    0    0  502  503 -0.00000000000E+00 -0.00000000000E+00 -0.40246683894E+03  0.40246683894E+03  0.00000000000E+00 0.  1.
         -6    2    1    2    0  503 -0.76281265235E+02  0.11916749899E+03  0.17080775147E+03  0.28104235650E+03  0.17259720144E+03 0.  0.
        -24    2    3    3    0    0 -0.36805481909E+02  0.46211974216E+02  0.11397928546E+02  0.10128021447E+03  0.81471338565E+02 0.  0.
          6    2    1    2  501    0  0.76281265235E+02 -0.11916749899E+03 -0.31167746614E+03  0.38302160672E+03  0.17188072631E+03 0.  0.
         24    2    5    5    0    0  0.43374998350E+01 -0.21071833591E+02 -0.20541754915E+03  0.22142976006E+03  0.79824388916E+02 0.  0.
          5    1    5    5  501    0  0.71943765400E+02 -0.98095665399E+02 -0.10625991699E+03  0.16159184666E+03  0.47000000000E+01 0. -1.
        -11    1    6    6    0    0 -0.32280906995E+02  0.77068696479E+01 -0.11539961107E+03  0.12007715449E+03  0.00000000000E+00 0.  1.
         12    1    6    6    0    0  0.36618406830E+02 -0.28778703239E+02 -0.90017938077E+02  0.10135260556E+03  0.00000000000E+00 0. -1.
         -5    1    3    3    0  503 -0.39475783326E+02  0.72955524774E+02  0.15940982292E+03  0.17976214203E+03  0.47000000000E+01 0.  1.
         13    1    4    4    0    0 -0.36978342880E+02  0.21230015667E+02  0.43293429535E+02  0.60765388572E+02  0.00000000000E+00 0. -1.
        -14    1    4    4    0    0  0.17286097068E+00  0.24981958549E+02 -0.31895500990E+02  0.40514825894E+02  0.00000000000E+00 0.  1.
</event>
<event>
12    1  0.9873238E-001  0.3463756E+03  0.7818608E-02  0.1064129E+00
         21   -1    0    0  503  502  0.00000000000E+00  0.00000000000E+00  0.15517670107E+03  0.15517670107E+03  0.00000000000E+00 0. -1.
         21   -1    0    0  501  503 -0.00000000000E+00 -0.00000000000E+00 -0.96781861850E+03  0.96781861850E+03  0.00000000000E+00 0. -1.
          6    2    1    2  501    0 -0.28202398143E+03 -0.10447008413E+03 -0.15434556640E+03  0.37920790661E+03  0.17182711656E+03 0.  0.
         24    2    3    3    0    0 -0.16979018727E+03 -0.10654341859E+03 -0.15743100164E+03  0.26681425386E+03  0.78899417269E+02 0.  0.
         -6    2    1    2    0  502  0.28202398143E+03  0.10447008413E+03 -0.65829635103E+03  0.74378741297E+03  0.17150540905E+03 0.  0.
        -24    2    5    5    0    0  0.22322722532E+03  0.13856085114E+03 -0.48373109159E+03  0.55639915633E+03  0.80961401910E+02 0.  0.
          5    1    3    3  501    0 -0.11223379416E+03  0.20733344629E+01  0.30854352369E+01  0.11239365275E+03  0.47000000000E+01 0. -1.
        -13    1    4    4    0    0 -0.80929955466E+02 -0.18642653494E+02 -0.29959946275E+02  0.88288190614E+02  0.00000000000E+00 0.  1.
         14    1    4    4    0    0 -0.88860231803E+02 -0.87900765098E+02 -0.12747105537E+03  0.17852606324E+03  0.00000000000E+00 0. -1.
         -5    1    5    5    0  502  0.58796756108E+02 -0.34090767009E+02 -0.17456525944E+03  0.18738825664E+03  0.47000000000E+01 0.  1.
         11    1    6    6    0    0  0.55742208486E+01  0.28360174099E+02 -0.32900679924E+02  0.43792992047E+02  0.00000000000E+00 0. -1.
        -12    1    6    6    0    0  0.21765300447E+03  0.11020067704E+03 -0.45083041166E+03  0.51260616428E+03  0.00000000000E+00 0.  1.
</event>
<event>
12    1  0.9873238E-001  0.1775666E+03  0.7818608E-02  0.1170800E+00
         21   -1    0    0  503  502  0.00000000000E+00  0.00000000000E+00  0.14021413964E+03  0.14021413964E+03  0.00000000000E+00 0.  1.
         21   -1    0    0  501  503 -0.00000000000E+00 -0.00000000000E+00 -0.79403569008E+03  0.79403569008E+03  0.00000000000E+00 0.  1.
          6    2    1    2  501    0 -0.15527445311E+02 -0.17901943648E+02  0.70316018865E+02  0.18865938554E+03  0.17345443234E+03 0.  0.
         24    2    3    3    0    0 -0.71558295917E+02 -0.83141928682E+01  0.12564241093E+02  0.10748833762E+03  0.78779229829E+02 0.  0.
         -6    2    1    2    0  502  0.15527445311E+02  0.17901943648E+02 -0.72413756930E+03  0.74559044418E+03  0.17597815214E+03 0.  0.
        -24    2    5    5    0    0  0.25024475518E+02  0.59529034434E+02 -0.25825584694E+03  0.27773269069E+03  0.79179761825E+02 0.  0.
          5    1    3    3  501    0  0.56030850606E+02 -0.95877507793E+01  0.57751777772E+02  0.81171047920E+02  0.47000000000E+01 0. -1.
        -13    1    4    4    0    0 -0.37303674765E+02  0.14892165555E+02  0.40911970192E+02  0.57333498505E+02  0.00000000000E+00 0.  1.
         14    1    4    4    0    0 -0.34254621152E+02 -0.23206358423E+02 -0.28347729099E+02  0.50154839114E+02  0.00000000000E+00 0. -1.
         -5    1    5    5    0  502 -0.94970302068E+01 -0.41627090786E+02 -0.46588172236E+03  0.46785775349E+03  0.47000000000E+01 0.  1.
         11    1    6    6    0    0 -0.72046176549E+01  0.66973728230E+02 -0.19572607281E+03  0.20699295246E+03  0.00000000000E+00 0. -1.
        -12    1    6    6    0    0  0.32229093173E+02 -0.74446937964E+01 -0.62529774128E+02  0.70739738231E+02  0.00000000000E+00 0.  1.
</event>
<event>
12    1  0.9873238E-001  0.2015586E+03  0.7818608E-02  0.1149145E+00
         21   -1    0    0  503  502  0.00000000000E+00  0.00000000000E+00  0.42537339820E+02  0.42537339820E+02  0.00000000000E+00 0.  1.
         21   -1    0    0  501  503 -0.00000000000E+00 -0.00000000000E+00 -0.18944959268E+04  0.18944959268E+04  0.00000000000E+00 0.  1.
          6    2    1    2  501    0 -0.29147027494E+02 -0.10086801681E+03 -0.16176601651E+04  0.16301687929E+04  0.17205225229E+03 0.  0.
         24    2    3    3    0    0 -0.37156378433E+02  0.67291010113E+01 -0.90741138901E+03  0.91175616535E+03  0.80486016730E+02 0.  0.
         -6    2    1    2    0  502  0.29147027494E+02  0.10086801681E+03 -0.23429842189E+03  0.30686447375E+03  0.16806590588E+03 0.  0.
        -24    2    5    5    0    0  0.33889385329E+01  0.26939171977E+02 -0.20703744629E+03  0.22383313005E+03  0.80619861395E+02 0.  0.
          5    1    3    3  501    0  0.80093509392E+01 -0.10759711782E+03 -0.71024877606E+03  0.71841262750E+03  0.47000000000E+01 0. -1.
        -11    1    4    4    0    0  0.18017257746E+02 -0.18656334165E+02 -0.18712877141E+03  0.18891759439E+03  0.00000000000E+00 0.  1.
         12    1    4    4    0    0 -0.55173636178E+02  0.25385435176E+02 -0.72028261760E+03  0.72283857096E+03  0.00000000000E+00 0. -1.
         -5    1    5    5    0  502  0.25758088961E+02  0.73928844830E+02 -0.27260975602E+02  0.83031343694E+02  0.47000000000E+01 0.  1.
         11    1    6    6    0    0  0.17302726092E+02 -0.25483405400E+02 -0.72194500065E+02  0.78490981142E+02  0.00000000000E+00 0. -1.
        -12    1    6    6    0    0 -0.13913787559E+02  0.52422577377E+02 -0.13484294623E+03  0.14534214891E+03  0.00000000000E+00 0.  1.
</event>
<event>
12    1  0.9873238E-001  0.2622966E+03  0.7818608E-02  0.1106119E+00
         21   -1    0    0  501  502  0.00000000000E+00  0.00000000000E+00  0.24936015190E+03  0.24936015190E+03  0.00000000000E+00 0.  1.
         21   -1    0    0  502  503 -0.00000000000E+00 -0.00000000000E+00 -0.31389616295E+03  0.31389616295E+03  0.00000000000E+00 0. -1.
         -6    2    1    2    0  503 -0.71635227831E+02 -0.18134117587E+03  0.68942177520E+02  0.26895045153E+03  0.17194503076E+03 0.  0.
        -24    2    3    3    0    0 -0.83180934954E+02 -0.14165452995E+03  0.10639454966E+03  0.21297632003E+03  0.83988325993E+02 0.  0.
          6    2    1    2  501    0  0.71635227831E+02  0.18134117587E+03 -0.13347818857E+03  0.29430586332E+03  0.17545166408E+03 0.  0.
         24    2    5    5    0    0 -0.15980781426E+01  0.20007249067E+02 -0.19215106653E+02  0.83427000154E+02  0.78663842787E+02 0.  0.
          5    1    5    5  501    0  0.73233305974E+02  0.16133392681E+03 -0.11426308191E+03  0.21087886317E+03  0.47000000000E+01 0. -1.
        -11    1    6    6    0    0  0.29119826349E+02  0.55486423566E+01 -0.35100869802E+02  0.45943691399E+02  0.00000000000E+00 0.  1.
         12    1    6    6    0    0 -0.30717904491E+02  0.14458606710E+02  0.15885763149E+02  0.37483308754E+02  0.00000000000E+00 0. -1.
         -5    1    3    3    0  503  0.11545707123E+02 -0.39686645928E+02 -0.37452372138E+02  0.55974131496E+02  0.47000000000E+01 0.  1.
         13    1    4    4    0    0 -0.49334513766E+02 -0.12463418989E+02  0.26916855715E+02  0.57565164666E+02  0.00000000000E+00 0. -1.
        -14    1    4    4    0    0 -0.33846421188E+02 -0.12919111096E+03  0.79477693943E+02  0.15541115536E+03  0.00000000000E+00 0.  1.
</event>
<event>
12    1  0.9873238E-001  0.2523208E+03  0.7818608E-02  0.1112330E+00
         21   -1    0    0  503  502  0.00000000000E+00  0.00000000000E+00  0.26062032741E+03  0.26062032741E+03  0.00000000000E+00 0. -1.
         21   -1    0    0  501  503 -0.00000000000E+00 -0.00000000000E+00 -0.35630828582E+03  0.35630828582E+03  0.00000000000E+00 0. -1.
          6    2    1    2  501    0  0.11271164089E+03  0.14428616055E+03  0.12719217485E+03  0.28256619921E+03  0.17361854013E+03 0.  0.
         24    2    3    3    0    0  0.84729958027E+02  0.17097062421E+03  0.82004701030E+02  0.22290856796E+03  0.80952693275E+02 0.  0.
         -6    2    1    2    0  502 -0.11271164089E+03 -0.14428616055E+03 -0.22288013326E+03  0.33436241402E+03  0.16911611392E+03 0.  0.
        -24    2    5    5    0    0 -0.71842042296E+02 -0.15804257231E+03 -0.21270771467E+03  0.28980760447E+03  0.92763904750E+02 0.  0.
          5    1    3    3  501    0  0.27981682865E+02 -0.26684463660E+02  0.45187473816E+02  0.59657631253E+02  0.47000000000E+01 0. -1.
        -11    1    4    4    0    0  0.84723403453E+02  0.10881740994E+03  0.82595978213E+02  0.16075254093E+03  0.00000000000E+00 0.  1.
         12    1    4    4    0    0  0.65545733855E-02  0.62153214275E+02 -0.59127718281E+00  0.62156027031E+02  0.00000000000E+00 0. -1.
         -5    1    5    5    0  502 -0.40869598597E+02  0.13756411760E+02 -0.10172418590E+02  0.44554809549E+02  0.47000000000E+01 0.  1.
         13    1    6    6    0    0 -0.19949029984E+02 -0.10390056914E+03 -0.65050295087E+02  0.12419675099E+03  0.00000000000E+00 0. -1.
        -14    1    6    6    0    0 -0.51893012312E+02 -0.54142003177E+02 -0.14765741958E+03  0.16561085348E+03  0.00000000000E+00 0.  1.
</event>
<event>
12    1  0.9873238E-001  0.1855338E+03  0.7818608E-02  0.1163081E+00
         21   -1    0    0  501  502  0.00000000000E+00  0.00000000000E+00  0.21835150973E+04  0.21835150973E+04  0.00000000000E+00 0.  1.
         21   -1    0    0  502  503 -0.00000000000E+00 -0.00000000000E+00 -0.22387628794E+02  0.22387628794E+02  0.00000000000E+00 0.  1.
         -6    2    1    2    0  503 -0.34016768490E+01 -0.71473280117E+02  0.16936545415E+04  0.17037865204E+04  0.17118060680E+03 0.  0.
        -24    2    3    3    0    0 -0.50293524785E+01 -0.98042490293E+02  0.81521958848E+03  0.82493577718E+03  0.79362678518E+02 0.  0.
          6    2    1    2  501    0  0.34016768490E+01  0.71473280117E+02  0.46747292703E+03  0.50211620567E+03  0.16872979972E+03 0.  0.
         24    2    5    5    0    0  0.60203366830E+02  0.76546394765E+02  0.32060729051E+03  0.34449712793E+03  0.80033995864E+02 0.  0.
          5    1    5    5  501    0 -0.56801689981E+02 -0.50731146478E+01  0.14686563652E+03  0.15761907774E+03  0.47000000000E+01 0. -1.
        -11    1    6    6    0    0 -0.10690677260E+02  0.10113536810E+02  0.12730054688E+03  0.12814836497E+03  0.00000000000E+00 0.  1.
         12    1    6    6    0    0  0.70894044089E+02  0.66432857955E+02  0.19330674363E+03  0.21634876297E+03  0.00000000000E+00 0. -1.
         -5    1    3    3    0  503  0.16276756294E+01  0.26569210176E+02  0.87843495301E+03  0.87885074326E+03  0.47000000000E+01 0.  1.
         11    1    4    4    0    0  0.25655689627E+01 -0.81354005729E+02  0.78753473661E+03  0.79172976309E+03  0.00000000000E+00 0. -1.
        -12    1    4    4    0    0 -0.75949214412E+01 -0.16688484565E+02  0.27684851863E+02  0.33206014085E+02  0.00000000000E+00 0.  1.
</event>
<event>
12    1  0.9873238E-001  0.1937931E+03  0.7818608E-02  0.1155160E+00
         21   -1    0    0  503  502  0.00000000000E+00  0.00000000000E+00  0.86894496236E+03  0.86894496236E+03  0.00000000000E+00 0.  1.
         21   -1    0    0  501  503 -0.00000000000E+00 -0.00000000000E+00 -0.43264802914E+02  0.43264802914E+02  0.00000000000E+00 0.  1.
          6    2    1    2  501    0  0.18909424131E+02  0.87052847303E+02  0.38824207622E+03  0.43376660309E+03  0.17171427334E+03 0.  0.
         24    2    3    3    0    0  0.29906973674E+02 -0.49686908999E+01  0.10583690111E+03  0.13650630888E+03  0.80705686068E+02 0.  0.
         -6    2    1    2    0  502 -0.18909424131E+02 -0.87052847303E+02  0.43743808323E+03  0.47844316218E+03  0.17210467232E+03 0.  0.
        -24    2    5    5    0    0  0.51864521430E+02 -0.75132977410E+02  0.29385146330E+03  0.31784975606E+03  0.79654830757E+02 0.  0.
          5    1    3    3  501    0 -0.10997549543E+02  0.92021538203E+02  0.28240517510E+03  0.29726029421E+03  0.47000000000E+01 0. -1.
        -13    1    4    4    0    0 -0.14288647919E+02 -0.31421151091E+02  0.46923251499E+02  0.58251572738E+02  0.00000000000E+00 0.  1.
         14    1    4    4    0    0  0.44195621592E+02  0.26452460191E+02  0.58913649615E+02  0.78254736145E+02  0.00000000000E+00 0. -1.
         -5    1    5    5    0  502 -0.70773945560E+02 -0.11919869893E+02  0.14358661993E+03  0.16059340612E+03  0.47000000000E+01 0.  1.
         13    1    6    6    0    0  0.12517417348E+02 -0.80462147133E+02  0.20047067930E+03  0.21637776253E+03  0.00000000000E+00 0. -1.
        -14    1    6    6    0    0  0.39347104081E+02  0.53291697229E+01  0.93380783998E+02  0.10147199352E+03  0.00000000000E+00 0.  1.
</event>
<event>
12    1  0.9873238E-001  0.2030011E+03  0.7818608E-02  0.1149100E+00
         21   -1    0    0  501  502  0.00000000000E+00  0.00000000000E+00  0.21667017865E+03  0.21667017865E+03  0.00000000000E+00 0.  1.
         21   -1    0    0  502  503 -0.00000000000E+00 -0.00000000000E+00 -0.18216506301E+03  0.18216506301E+03  0.00000000000E+00 0.  1.
         -6    2    1    2    0  503  0.95654390607E+02 -0.46485007340E+02  0.11291496393E+02  0.19451114741E+03  0.16246990560E+03 0.  0.
        -24    2    3    3    0    0  0.76356249224E+02 -0.93601755998E+02  0.28505824519E+02  0.14055904497E+03  0.65974976837E+02 0.  0.
          6    2    1    2  501    0 -0.95654390607E+02  0.46485007340E+02  0.23213619255E+02  0.20432409425E+03  0.17291282492E+03 0.  0.
         24    2    5    5    0    0 -0.45163779508E+02 -0.18791065076E+02  0.66557680105E+02  0.11099100767E+03  0.74136414113E+02 0.  0.
          5    1    5    5  501    0 -0.50490611098E+02  0.65276072416E+02 -0.43344060850E+02  0.93333086578E+02  0.47000000000E+01 0. -1.
        -11    1    6    6    0    0  0.13341397730E+02 -0.25741911389E+02  0.29643074582E+02  0.41465054757E+02  0.00000000000E+00 0.  1.
         12    1    6    6    0    0 -0.58505177238E+02  0.69508463130E+01  0.36914605522E+02  0.69525952917E+02  0.00000000000E+00 0. -1.
         -5    1    3    3    0  503  0.19298141383E+02  0.47116748658E+02 -0.17214328126E+02  0.53952102441E+02  0.47000000000E+01 0.  1.
         13    1    4    4    0    0 -0.11830542377E+02 -0.14462384855E+02 -0.13930132086E-01  0.18684820114E+02  0.00000000000E+00 0. -1.
        -14    1    4    4    0    0  0.88186791601E+02 -0.79139371144E+02  0.28519754651E+02  0.12187422485E+03  0.00000000000E+00 0.  1.
</event>
<event>
12    1  0.9873238E-001  0.2369971E+03  0.7818608E-02  0.1122042E+00
         21   -1    0    0  503  502  0.00000000000E+00  0.00000000000E+00  0.45741382562E+03  0.45741382562E+03  0.00000000000E+00 0.  1.
         21   -1    0    0  501  503 -0.00000000000E+00 -0.00000000000E+00 -0.16368061789E+03  0.16368061789E+03  0.00000000000E+00 0.  1.
          6    2    1    2  501    0 -0.53616231953E+02  0.15397678301E+03 -0.93657950434E+01  0.23718212031E+03  0.17200026176E+03 0.  0.
         24    2    3    3    0    0 -0.44443492698E+02  0.17283125187E+03 -0.39940964651E+02  0.19981152843E+03  0.80520187339E+02 0.  0.
         -6    2    1    2    0  502  0.53616231953E+02 -0.15397678301E+03  0.30309900277E+03  0.38391232320E+03  0.17010619150E+03 0.  0.
        -24    2    5    5    0    0  0.36769175792E+02 -0.18077777410E+03  0.24430676535E+03  0.31697404113E+03  0.82183765159E+02 0.  0.
          5    1    3    3  501    0 -0.91727392550E+01 -0.18854468862E+02  0.30575169608E+02  0.37370591888E+02  0.47000000000E+01 0. -1.
        -11    1    4    4    0    0 -0.77741203301E+01  0.10053959746E+02 -0.30090745556E+02  0.32664537676E+02  0.00000000000E+00 0.  1.
         12    1    4    4    0    0 -0.36669372368E+02  0.16277729212E+03 -0.98502190955E+01  0.16714699075E+03  0.00000000000E+00 0. -1.
         -5    1    5    5    0  502  0.16847056162E+02  0.26800991099E+02  0.58792237421E+02  0.66938282068E+02  0.47000000000E+01 0.  1.
         13    1    6    6    0    0  0.27077841842E+02 -0.55785893511E+02  0.14273935051E+03  0.15562711080E+03  0.00000000000E+00 0. -1.
        -14    1    6    6    0    0  0.96913339499E+01 -0.12499188059E+03  0.10156741484E+03  0.16134693033E+03  0.00000000000E+00 0.  1.
</event>
<event>
12    1  0.9873238E-001  0.2548999E+03  0.7818608E-02  0.1110950E+00
         21   -1    0    0  503  502  0.00000000000E+00  0.00000000000E+00  0.13230313786E+04  0.13230313786E+04  0.00000000000E+00 0. -1.
         21   -1    0    0  501  503 -0.00000000000E+00 -0.00000000000E+00 -0.51530427453E+02  0.51530427453E+02  0.00000000000E+00 0. -1.
          6    2    1    2  501    0  0.29966881599E+02 -0.17986115680E+03  0.81467654558E+03  0.85362277174E+03  0.17811769369E+03 0.  0.
         24    2    3    3    0    0  0.23098453060E+02 -0.64565641525E+02  0.17294781048E+03  0.20156595627E+03  0.77560485932E+02 0.  0.
         -6    2    1    2    0  502 -0.29966881599E+02  0.17986115680E+03  0.45682440558E+03  0.52093903432E+03  0.17158347889E+03 0.  0.
        -24    2    5    5    0    0 -0.77908534106E+02  0.68893126386E+02  0.16585408787E+03  0.20582298965E+03  0.63557234497E+02 0.  0.
          5    1    3    3  501    0  0.68684285395E+01 -0.11529551527E+03  0.64172873510E+03  0.65205681547E+03  0.47000000000E+01 0. -1.
        -11    1    4    4    0    0 -0.72472031316E+01 -0.55623752239E+02  0.15578145638E+03  0.16557290212E+03  0.00000000000E+00 0.  1.
         12    1    4    4    0    0  0.30345656191E+02 -0.89418892861E+01  0.17166354102E+02  0.35993054147E+02  0.00000000000E+00 0. -1.
         -5    1    5    5    0  502  0.47941652507E+02  0.11096803041E+03  0.29097031771E+03  0.31511604466E+03  0.47000000000E+01 0.  1.
         13    1    6    6    0    0 -0.35801530825E+02  0.53129653627E+02  0.49120029522E+02  0.80729715745E+02  0.00000000000E+00 0. -1.
        -14    1    6    6    0    0 -0.42107003281E+02  0.15763472758E+02  0.11673405835E+03  0.12509327391E+03  0.00000000000E+00 0.  1.
</event>
<event>
12    1  0.9873238E-001  0.2256563E+03  0.7818608E-02  0.1129886E+00
         21   -1    0    0  501  502  0.00000000000E+00  0.00000000000E+00  0.14652459729E+03  0.14652459729E+03  0.00000000000E+00 0. -1.
         21   -1    0    0  502  503 -0.00000000000E+00 -0.00000000000E+00 -0.43434558892E+03  0.43434558892E+03  0.00000000000E+00 0. -1.
         -6    2    1    2    0  503 -0.10372279314E+03  0.10087489627E+03 -0.13313295087E+02  0.22604864730E+03  0.17316634952E+03 0.  0.
        -24    2    3    3    0    0 -0.59299239566E+02  0.22561830483E+02 -0.66319738512E+02  0.12146298179E+03  0.79558231636E+02 0.  0.
          6    2    1    2  501    0  0.10372279314E+03 -0.10087489627E+03 -0.27450769654E+03  0.35482153891E+03  0.17207465386E+03 0.  0.
         24    2    5    5    0    0  0.11669678299E+03 -0.25663086707E+02 -0.20766633526E+03  0.25325875888E+03  0.82085071544E+02 0.  0.
          5    1    5    5  501    0 -0.12973989844E+02 -0.75211809565E+02 -0.66841361276E+02  0.10156278003E+03  0.47000000000E+01 0. -1.
        -13    1    6    6    0    0  0.24163992757E+02 -0.34923539001E+02 -0.27752813781E+02  0.50732344664E+02  0.00000000000E+00 0.  1.
         14    1    6    6    0    0  0.92532790228E+02  0.92604522937E+01 -0.17991352148E+03  0.20252641422E+03  0.00000000000E+00 0. -1.
         -5    1    3    3    0  503 -0.44423553576E+02  0.78313065789E+02  0.53006443425E+02  0.10458566551E+03  0.47000000000E+01 0.  1.
         11    1    4    4    0    0 -0.28102923856E+02  0.50536629093E+02 -0.26317470225E+02  0.63532152870E+02  0.00000000000E+00 0. -1.
        -12    1    4    4    0    0 -0.31196315710E+02 -0.27974798610E+02 -0.40002268287E+02  0.57930828919E+02  0.00000000000E+00 0.  1.
</event>
<event>
12    1  0.9873238E-001  0.3109268E+03  0.7818608E-02  0.1080110E+00
         21   -1    0    0  501  502  0.00000000000E+00  0.00000000000E+00  0.11090934429E+03  0.11090934429E+03  0.00000000000E+00 0.  1.
         21   -1    0    0  502  503 -0.00000000000E+00 -0.00000000000E+00 -0.14298582387E+04  0.14298582387E+04  0.00000000000E+00 0.  1.
         -6    2    1    2    0  503 -0.21799946186E+03  0.14032795967E+03 -0.17716277390E+03  0.35785765443E+03  0.17163843026E+03 0.  0.
        -24    2    3    3    0    0 -0.16268962145E+03  0.85325301873E+02 -0.45536043367E+02  0.20478199666E+03  0.78190887213E+02 0.  0.
          6    2    1    2  501    0  0.21799946186E+03 -0.14032795967E+03 -0.11417861206E+04  0.11829099286E+04  0.16847745383E+03 0.  0.
         24    2    5    5    0    0  0.66463617244E+02 -0.11663410246E+03 -0.58431062715E+03  0.60470103311E+03  0.78889189189E+02 0.  0.
          5    1    5    5  501    0  0.15153584462E+03 -0.23693857208E+02 -0.55747549341E+03  0.57820889549E+03  0.47000000000E+01 0. -1.
        -11    1    6    6    0    0  0.38044036818E+02 -0.55359178340E+02 -0.13993960527E+03  0.15522590147E+03  0.00000000000E+00 0.  1.
         12    1    6    6    0    0  0.28419580426E+02 -0.61274924123E+02 -0.44437102188E+03  0.44947513164E+03  0.00000000000E+00 0. -1.
         -5    1    3    3    0  503 -0.55309840415E+02  0.55002657797E+02 -0.13162673054E+03  0.15307565777E+03  0.47000000000E+01 0.  1.
         11    1    4    4    0    0 -0.83083264304E+02  0.49292359324E+02  0.15980980149E+02  0.97918114880E+02  0.00000000000E+00 0. -1.
        -12    1    4    4    0    0 -0.79606357145E+02  0.36032942549E+02 -0.61517023516E+02  0.10686388178E+03  0.00000000000E+00 0.  1.
</event>
<event>
12    1  0.9873238E-001  0.2441912E+03  0.7818608E-02  0.1117199E+00
         21   -1    0    0  503  502  0.00000000000E+00  0.00000000000E+00  0.30996818014E+03  0.30996818014E+03  0.00000000000E+00 0. -1.
         21   -1    0    0  501  503 -0.00000000000E+00 -0.00000000000E+00 -0.26510460070E+03  0.26510460070E+03  0.00000000000E+00 0. -1.
          6    2    1    2  501    0  0.17151222956E+03 -0.24425588494E+02 -0.12904172118E+03  0.27528556629E+03  0.17063798799E+03 0.  0.
         24    2    3    3    0    0  0.95531265620E+02  0.52855996965E+02 -0.64927689056E+02  0.14927664023E+03  0.78408745607E+02 0.  0.
         -6    2    1    2    0  502 -0.17151222956E+03  0.24425588494E+02  0.17390530062E+03  0.29978721454E+03  0.17209377141E+03 0.  0.
        -24    2    5    5    0    0 -0.41859579129E+02 -0.60976120538E+01  0.29462580227E+02  0.10324901213E+03  0.89458982968E+02 0.  0.
          5    1    3    3  501    0  0.75980963940E+02 -0.77281585458E+02 -0.64114032120E+02  0.12600892606E+03  0.47000000000E+01 0. -1.
        -11    1    4    4    0    0  0.55689705337E+02  0.20432703045E+02 -0.76318815409E+02  0.96661265353E+02  0.00000000000E+00 0.  1.
         12    1    4    4    0    0  0.39841560283E+02  0.32423293919E+02  0.11391126353E+02  0.52615374882E+02  0.00000000000E+00 0. -1.
         -5    1    5    5    0  502 -0.12965265043E+03  0.30523200548E+02  0.14444272039E+03  0.19653820242E+03  0.47000000000E+01 0.  1.
         11    1    6    6    0    0 -0.57978089072E+02 -0.33103930659E+02  0.14053375863E+02  0.68226288267E+02  0.00000000000E+00 0. -1.
        -12    1    6    6    0    0  0.16118509943E+02  0.27006318605E+02  0.15409204364E+02  0.35022723859E+02  0.00000000000E+00 0.  1.
</event>
<event>
12    1  0.9873238E-001  0.4555927E+03  0.7818608E-02  0.1026078E+00
         21   -1    0    0  501  502  0.00000000000E+00  0.00000000000E+00  0.13715192523E+04  0.13715192523E+04  0.00000000000E+00 0.  1.
         21   -1    0    0  502  503 -0.00000000000E+00 -0.00000000000E+00 -0.18134767226E+03  0.18134767226E+03  0.00000000000E+00 0.  1.
         -6    2    1    2    0  503 -0.37428608200E+03  0.19413049135E+03  0.27906117424E+03  0.53426574819E+03  0.17259209680E+03 0.  0.
        -24    2    3    3    0    0 -0.21538799074E+03  0.13656931231E+03  0.24401338559E+03  0.36160327333E+03  0.78557184998E+02 0.  0.
          6    2    1    2  501    0  0.37428608200E+03 -0.19413049135E+03  0.91111040583E+03  0.10186011764E+04  0.17219020327E+03 0.  0.
         24    2    5    5    0    0  0.17469243908E+03 -0.15105084091E+03  0.40621910804E+03  0.47396295597E+03  0.79329156553E+02 0.  0.
          5    1    5    5  501    0  0.19959364292E+03 -0.43079650443E+02  0.50489129779E+03  0.54463822043E+03  0.47000000000E+01 0. -1.
        -11    1    6    6    0    0  0.62139130496E+02 -0.11303812805E+02  0.13076987181E+03  0.14522330080E+03  0.00000000000E+00 0.  1.
         12    1    6    6    0    0  0.11255330858E+03 -0.13974702810E+03  0.27544923623E+03  0.32873965517E+03  0.00000000000E+00 0. -1.
         -5    1    3    3    0  503 -0.15889809126E+03  0.57561179044E+02  0.35047788648E+02  0.17266247487E+03  0.47000000000E+01 0.  1.
         11    1    4    4    0    0 -0.22223819327E+03  0.13088659405E+03  0.23700246565E+03  0.35027315595E+03  0.00000000000E+00 0. -1.
        -12    1    4    4    0    0  0.68502025316E+01  0.56827182564E+01  0.70109199345E+01  0.11330117380E+02  0.00000000000E+00 0.  1.
</event>
<event>
12    1  0.9873238E-001  0.1845960E+03  0.7818608E-02  0.1163643E+00
         21   -1    0    0  501  502  0.00000000000E+00  0.00000000000E+00  0.86768713588E+02  0.86768713588E+02  0.00000000000E+00 0.  1.
         21   -1    0    0  502  503 -0.00000000000E+00 -0.00000000000E+00 -0.40425118510E+03  0.40425118510E+03  0.00000000000E+00 0.  1.
         -6    2    1    2    0  503 -0.55465056353E+02  0.33153512792E+02 -0.20318821737E+03  0.27390504230E+03  0.17193892122E+03 0.  0.
        -24    2    3    3    0    0  0.16497713287E+01  0.99371848959E+01 -0.29042706824E+02  0.89108261304E+02  0.83638113464E+02 0.  0.
          6    2    1    2  501    0  0.55465056353E+02 -0.33153512792E+02 -0.11429425414E+03  0.21711485639E+03  0.17291661704E+03 0.  0.
         24    2    5    5    0    0  0.47748009284E+02 -0.53455288540E+02 -0.14481909704E+03  0.17935812258E+03  0.77842308579E+02 0.  0.
          5    1    5    5  501    0  0.77170470692E+01  0.20301775748E+02  0.30524842898E+02  0.37756733809E+02  0.47000000000E+01 0. -1.
        -13    1    6    6    0    0  0.12472914094E+02 -0.30093273109E+02 -0.13078594964E+03  0.13478183593E+03  0.00000000000E+00 0.  1.
         14    1    6    6    0    0  0.35275095190E+02 -0.23362015431E+02 -0.14033147394E+02  0.44576286650E+02  0.00000000000E+00 0. -1.
         -5    1    3    3    0  503 -0.57114827682E+02  0.23216327896E+02 -0.17414551055E+03  0.18479678100E+03  0.47000000000E+01 0.  1.
         11    1    4    4    0    0 -0.24364175187E+02  0.23624686895E+02 -0.44446519441E+02  0.55921659076E+02  0.00000000000E+00 0. -1.
        -12    1    4    4    0    0  0.26013946516E+02 -0.13687501999E+02  0.15403812616E+02  0.33186602228E+02  0.00000000000E+00 0.  1.
</event>
<event>
12    1  0.9873238E-001  0.2730750E+03  0.7818608E-02  0.1099772E+00
         21   -1    0    0  501  502  0.00000000000E+00  0.00000000000E+00  0.16295044250E+04  0.16295044250E+04  0.00000000000E+00 0.  1.
         21   -1    0    0  502  503 -0.00000000000E+00 -0.00000000000E+00 -0.46699568456E+02  0.46699568456E+02  0.00000000000E+00 0.  1.
         -6    2    1    2    0  503  0.18707587394E+03  0.10005854967E+03  0.92925540811E+03  0.96854816379E+03  0.17193264990E+03 0.  0.
        -24    2    3    3    0    0  0.88401085574E+02  0.10454121645E+03  0.39973762363E+03  0.42987573805E+03  0.79116146002E+02 0.  0.
          6    2    1    2  501    0 -0.18707587394E+03 -0.10005854967E+03  0.65354944845E+03  0.70765582969E+03  0.16923591743E+03 0.  0.
         24    2    5    5    0    0 -0.17628077147E+03 -0.25379065979E+02  0.44871321588E+03  0.48931313644E+03  0.79779621491E+02 0.  0.
          5    1    5    5  501    0 -0.10795102469E+02 -0.74679483689E+02  0.20483623257E+03  0.21834269325E+03  0.47000000000E+01 0. -1.
        -13    1    6    6    0    0 -0.31077697163E+02  0.90396032549E+01  0.27580825561E+02  0.42523400930E+02  0.00000000000E+00 0.  1.
         14    1    6    6    0    0 -0.14520307431E+03 -0.34418669234E+02  0.42113239032E+03  0.44678973551E+03  0.00000000000E+00 0. -1.
         -5    1    3    3    0  503  0.98674788364E+02 -0.44826667779E+01  0.52951778448E+03  0.53867242573E+03  0.47000000000E+01 0.  1.
         11    1    4    4    0    0 -0.40068861608E+01  0.49142368266E+02  0.14976990937E+03  0.15767705365E+03  0.00000000000E+00 0. -1.
        -12    1    4    4    0    0  0.92407971735E+02  0.55398848180E+02  0.24996771426E+03  0.27219868440E+03  0.00000000000E+00 0.  1.
</event>
<event>
12    1  0.9873238E-001  0.1809169E+03  0.7818608E-02  0.1167553E+00
         21   -1    0    0  501  502  0.00000000000E+00  0.00000000000E+00  0.75319605469E+03  0.75319605469E+03  0.00000000000E+00 0. -1.
         21   -1    0    0  502  503 -0.00000000000E+00 -0.00000000000E+00 -0.15430943795E+03  0.15430943795E+03  0.00000000000E+00 0. -1.
         -6    2    1    2    0  503 -0.16078400081E+02  0.44381827391E+02  0.68451010343E+03  0.70734980445E+03  0.17193429735E+03 0.  0.
        -24    2    3    3    0    0 -0.64490497306E+02  0.51740083708E+02  0.31404745878E+03  0.33363529286E+03  0.76489487961E+02 0.  0.
          6    2    1    2  501    0  0.16078400081E+02 -0.44381827391E+02 -0.85623486694E+02  0.20015568819E+03  0.17465009731E+03 0.  0.
         24    2    5    5    0    0 -0.44855413053E+02 -0.44313151521E+02 -0.77620960657E+01  0.10117376838E+03  0.78741461726E+02 0.  0.
          5    1    5    5  501    0  0.60933813135E+02 -0.68675870070E-01 -0.77861390629E+02  0.98981919814E+02  0.47000000000E+01 0. -1.
        -11    1    6    6    0    0  0.21901404628E+02 -0.19531266112E+02 -0.59506717905E+01  0.29942484456E+02  0.00000000000E+00 0.  1.
         12    1    6    6    0    0 -0.66756817682E+02 -0.24781885408E+02 -0.18114242752E+01  0.71231283923E+02  0.00000000000E+00 0. -1.
         -5    1    3    3    0  503  0.48412097224E+02 -0.73582563176E+01  0.37046264465E+03  0.37371451159E+03  0.47000000000E+01 0.  1.
         11    1    4    4    0    0  0.11025833100E+02 -0.30134457994E+01  0.87175171924E+01  0.14375150682E+02  0.00000000000E+00 0. -1.
        -12    1    4    4    0    0 -0.75516330406E+02  0.54753529508E+02  0.30532994159E+03  0.31926014218E+03  0.00000000000E+00 0.  1.
</event>
<event>
12    1  0.9873238E-001  0.2730900E+03  0.7818608E-02  0.1099672E+00
         21   -1    0    0  503  502  0.00000000000E+00  0.00000000000E+00  0.92343313259E+03  0.92343313259E+03  0.00000000000E+00 0.  1.
         21   -1    0    0  501  503 -0.00000000000E+00 -0.00000000000E+00 -0.13678898646E+03  0.13678898646E+03  0.00000000000E+00 0.  1.
          6    2    1    2  501    0  0.16036181154E+03 -0.13805195288E+03  0.53563819032E+02  0.27829342610E+03  0.17263804913E+03 0.  0.
         24    2    3    3    0    0  0.13782415571E+03 -0.56058461879E+02  0.82874398435E+02  0.18822634798E+03  0.80143266161E+02 0.  0.
         -6    2    1    2    0  502 -0.16036181154E+03  0.13805195288E+03  0.73308032710E+03  0.78192869295E+03  0.17097211057E+03 0.  0.
        -24    2    5    5    0    0 -0.55863757359E+02  0.12003050037E+03  0.30797902528E+03  0.34377595373E+03  0.76175756954E+02 0.  0.
          5    1    3    3  501    0  0.22537655827E+02 -0.81993490999E+02 -0.29310579403E+02  0.90067078121E+02  0.47000000000E+01 0. -1.
        -13    1    4    4    0    0  0.31919920793E+02  0.20766010819E+02  0.21201474369E+02  0.43584527808E+02  0.00000000000E+00 0.  1.
         14    1    4    4    0    0  0.10590423492E+03 -0.76824472698E+02  0.61672924066E+02  0.14464182017E+03  0.00000000000E+00 0. -1.
         -5    1    5    5    0  502 -0.10449805418E+03  0.18021452508E+02  0.42510130182E+03  0.43815273922E+03  0.47000000000E+01 0.  1.
         13    1    6    6    0    0 -0.69873911015E+02  0.11306761972E+03  0.24337924159E+03  0.27730868235E+03  0.00000000000E+00 0. -1.
        -14    1    6    6    0    0  0.14010153656E+02  0.69628806498E+01  0.64599783685E+02  0.66467271379E+02  0.00000000000E+00 0.  1.
</event>
<event>
12    1  0.9873238E-001  0.1928482E+03  0.7818608E-02  0.1156518E+00
         21   -1    0    0  501  502  0.00000000000E+00  0.00000000000E+00  0.68557599707E+03  0.68557599707E+03  0.00000000000E+00 0. -1.
         21   -1    0    0  502  503 -0.00000000000E+00 -0.00000000000E+00 -0.57571164629E+02  0.57571164629E+02  0.00000000000E+00 0. -1.
         -6    2    1    2    0  503 -0.75749977631E+02  0.41151573919E+02  0.21303994660E+03  0.28555970307E+03  0.16948986406E+03 0.  0.
        -24    2    3    3    0    0 -0.43358785819E+02 -0.24213642419E+02  0.45206618656E+02  0.10249709961E+03  0.77432113958E+02 0.  0.
          6    2    1    2  501    0  0.75749977631E+02 -0.41151573919E+02  0.41496488584E+03  0.45758745864E+03  0.17250772351E+03 0.  0.
         24    2    5    5    0    0  0.26183642324E+02 -0.88504851094E+02  0.26262312621E+03  0.29046697460E+03  0.82954596754E+02 0.  0.
          5    1    5    5  501    0  0.49566335307E+02  0.47353277175E+02  0.15234175963E+03  0.16712048403E+03  0.47000000000E+01 0. -1.
        -13    1    6    6    0    0  0.33848302257E+02 -0.10223016698E+03  0.23834572039E+03  0.26154425445E+03  0.00000000000E+00 0.  1.
         14    1    6    6    0    0 -0.76646599325E+01  0.13725315883E+02  0.24277405822E+02  0.28922720159E+02  0.00000000000E+00 0. -1.
         -5    1    3    3    0  503 -0.32391191812E+02  0.65365216337E+02  0.16783332795E+03  0.18306260345E+03  0.47000000000E+01 0.  1.
         13    1    4    4    0    0  0.17960959078E+02 -0.23750846350E+02  0.82460589198E+01  0.30898159186E+02  0.00000000000E+00 0. -1.
        -14    1    4    4    0    0 -0.61319744896E+02 -0.46279606844E+00  0.36960559736E+02  0.71598940428E+02  0.00000000000E+00 0.  1.
</event>
<event>
12    1  0.9873238E-001  0.1999986E+03  0.7818608E-02  0.1149830E+00
         21   -1    0    0  503  502  0.00000000000E+00  0.00000000000E+00  0.56236259998E+02  0.56236259998E+02  0.00000000000E+00 0. -1.
         21   -1    0    0  501  503 -0.00000000000E+00 -0.00000000000E+00 -0.98632072246E+03  0.98632072246E+03  0.00000000000E+00 0. -1.
          6    2    1    2  501    0  0.95424019130E+02 -0.39574739341E+02 -0.74143273776E+03  0.76793355864E+03  0.17125286113E+03 0.  0.
         24    2    3    3    0    0  0.11243682176E+03 -0.74187669298E+02 -0.65260718322E+03  0.67098223316E+03  0.78582265557E+02 0.  0.
         -6    2    1    2    0  502 -0.95424019130E+02  0.39574739341E+02 -0.18865172470E+03  0.27462342381E+03  0.17075317934E+03 0.  0.
        -24    2    5    5    0    0 -0.12145539519E+03 -0.58195317770E+01 -0.12196900352E+03  0.18972968026E+03  0.79596694537E+02 0.  0.
          5    1    3    3  501    0 -0.17012802630E+02  0.34612929957E+02 -0.88825554536E+02  0.96951325479E+02  0.47000000000E+01 0. -1.
        -13    1    4    4    0    0  0.93111771469E+02 -0.30430729164E+02 -0.31155907393E+03  0.32659590905E+03  0.00000000000E+00 0.  1.
         14    1    4    4    0    0  0.19325050292E+02 -0.43756940134E+02 -0.34104810930E+03  0.34438632411E+03  0.00000000000E+00 0. -1.
         -5    1    5    5    0  502  0.26031376065E+02  0.45394271118E+02 -0.66682721177E+02  0.84893743549E+02  0.47000000000E+01 0.  1.
         11    1    6    6    0    0 -0.12502799113E+03 -0.14425947124E+02 -0.12728491366E+03  0.17900155240E+03  0.00000000000E+00 0. -1.
        -12    1    6    6    0    0  0.35725959318E+01  0.86064153465E+01  0.53159101424E+01  0.10728127863E+02  0.00000000000E+00 0.  1.
</event>
<event>
12    1  0.9873238E-001  0.2112691E+03  0.7818608E-02  0.1140679E+00
         21   -1    0    0  501  502  0.00000000000E+00  0.00000000000E+00  0.10221121494E+03  0.10221121494E+03  0.00000000000E+00 0.  1.
         21   -1    0    0  502  503 -0.00000000000E+00 -0.00000000000E+00 -0.74723432177E+03  0.74723432177E+03  0.00000000000E+00 0.  1.
         -6    2    1    2    0  503  0.93964498422E+02 -0.78413436254E+02 -0.47920508464E+02  0.21606875360E+03  0.17149733876E+03 0.  0.
        -24    2    3    3    0    0  0.33068525696E+02 -0.39086197320E+01 -0.77606570161E+02  0.11525883624E+03  0.78441155651E+02 0.  0.
          6    2    1    2  501    0 -0.93964498422E+02  0.78413436254E+02 -0.59710259837E+03  0.63337678310E+03  0.17221104042E+03 0.  0.
         24    2    5    5    0    0 -0.55595040672E+02 -0.25097756551E+02 -0.27648723912E+03  0.29425574142E+03  0.80128284839E+02 0.  0.
          5    1    5    5  501    0 -0.38369457750E+02  0.10351119280E+03 -0.32061535925E+03  0.33912104168E+03  0.47000000000E+01 0. -1.
        -11    1    6    6    0    0  0.16429404245E+02 -0.15789113004E+01 -0.11134922679E+03  0.11256584114E+03  0.00000000000E+00 0.  1.
         12    1    6    6    0    0 -0.72024444917E+02 -0.23518845250E+02 -0.16513801233E+03  0.18168990028E+03  0.00000000000E+00 0. -1.
         -5    1    3    3    0  503  0.60895972726E+02 -0.74504816522E+02  0.29686061697E+02  0.10080991736E+03  0.47000000000E+01 0.  1.
         13    1    4    4    0    0 -0.23285905415E+02 -0.70925502149E-01 -0.59833953796E+01  0.24042450825E+02  0.00000000000E+00 0. -1.
        -14    1    4    4    0    0  0.56354431111E+02 -0.38376942299E+01 -0.71623174781E+02  0.91216385417E+02  0.00000000000E+00 0.  1.
</event>
<event>
12    1  0.9873238E-001  0.1775269E+03  0.7818608E-02  0.1170496E+00
         21   -1    0    0  503  502  0.00000000000E+00  0.00000000000E+00  0.16856711036E+03  0.16856711036E+03  0.00000000000E+00 0. -1.
         21   -1    0    0  501  503 -0.00000000000E+00 -0.00000000000E+00 -0.27932130995E+03  0.27932130995E+03  0.00000000000E+00 0. -1.
          6    2    1    2  501    0  0.40898892819E+02  0.13939032017E+02  0.74099586646E+02  0.19237087307E+03  0.17218823426E+03 0.  0.
         24    2    3    3    0    0  0.78953323035E+02 -0.36377668772E+02  0.61823436931E+02  0.12792939661E+03  0.70617498958E+02 0.  0.
         -6    2    1    2    0  502 -0.40898892819E+02 -0.13939032017E+02 -0.18485378624E+03  0.25551754724E+03  0.17103005179E+03 0.  0.
        -24    2    5    5    0    0 -0.35533453778E+02  0.38391003144E+02 -0.44094232099E+02  0.10517606063E+03  0.79882457180E+02 0.  0.
          5    1    3    3  501    0 -0.38054430215E+02  0.50316700789E+02  0.12276149714E+02  0.64441476466E+02  0.47000000000E+01 0. -1.
        -11    1    4    4    0    0 -0.16240572415E+01 -0.28514134255E+02  0.28596769948E+02  0.40416193113E+02  0.00000000000E+00 0.  1.
         12    1    4    4    0    0  0.80577380276E+02 -0.78635345166E+01  0.33226666983E+02  0.87513203495E+02  0.00000000000E+00 0. -1.
         -5    1    5    5    0  502 -0.53654390411E+01 -0.52330035161E+02 -0.14075955414E+03  0.15034148661E+03  0.47000000000E+01 0.  1.
         11    1    6    6    0    0 -0.56129984571E+02  0.18071412296E+02 -0.47930609139E+02  0.75990094109E+02  0.00000000000E+00 0. -1.
        -12    1    6    6    0    0  0.20596530793E+02  0.20319590847E+02  0.38363770392E+01  0.29185966520E+02  0.00000000000E+00 0.  1.
</event>
<event>
12    1  0.9873238E-001  0.1844662E+03  0.7818608E-02  0.1163580E+00
         21   -1    0    0  503  502  0.00000000000E+00  0.00000000000E+00  0.19963435107E+03  0.19963435107E+03  0.00000000000E+00 0.  1.
         21   -1    0    0  501  503 -0.00000000000E+00 -0.00000000000E+00 -0.22720719189E+03  0.22720719189E+03  0.00000000000E+00 0.  1.
          6    2    1    2  501    0 -0.15807487655E+02  0.64317587381E+02  0.92991814100E+02  0.20657989178E+03  0.17216604045E+03 0.  0.
         24    2    3    3    0    0  0.31894267142E+02 -0.95289991056E+01  0.62509056013E+02  0.11341302918E+03  0.88583785216E+02 0.  0.
         -6    2    1    2    0  502  0.15807487655E+02 -0.64317587381E+02 -0.12056465492E+03  0.22026165118E+03  0.17202537677E+03 0.  0.
        -24    2    5    5    0    0  0.57614217233E+02  0.99347125411E+01 -0.63108632029E+02  0.11738069450E+03  0.79858822077E+02 0.  0.
          5    1    3    3  501    0 -0.47701754797E+02  0.73846586486E+02  0.30482758087E+02  0.93166862602E+02  0.47000000000E+01 0. -1.
        -13    1    4    4    0    0  0.27934057045E+02  0.26300928163E+02 -0.31633872044E+01  0.38497498410E+02  0.00000000000E+00 0.  1.
         14    1    4    4    0    0  0.39602100964E+01 -0.35829927268E+02  0.65672443217E+02  0.74915530767E+02  0.00000000000E+00 0. -1.
         -5    1    5    5    0  502 -0.41806729578E+02 -0.74252299922E+02 -0.57456022891E+02  0.10288095668E+03  0.47000000000E+01 0.  1.
         13    1    6    6    0    0  0.40590328001E+02 -0.25483903458E+02 -0.61607728558E+02  0.78054572453E+02  0.00000000000E+00 0. -1.
        -14    1    6    6    0    0  0.17023889232E+02  0.35418615999E+02 -0.15009034707E+01  0.39326122045E+02  0.00000000000E+00 0.  1.
</event>
<event>
12    1  0.9873238E-001  0.2789944E+03  0.7818608E-02  0.1096343E+00
         21   -1    0    0  501  502  0.00000000000E+00  0.00000000000E+00  0.29073354358E+03  0.29073354358E+03  0.00000000000E+00 0.  1.
         21   -1    0    0  502  503 -0.00000000000E+00 -0.00000000000E+00 -0.42497357355E+03  0.42497357355E+03  0.00000000000E+00 0.  1.
         -6    2    1    2    0  503  0.74065385302E+01 -0.21855799095E+03 -0.28523931674E+03  0.39847113973E+03  0.17203293044E+03 0.  0.
        -24    2    3    3    0    0 -0.20205004692E+02 -0.72408728333E+02 -0.50904126519E+02  0.12087957707E+03  0.79808369872E+02 0.  0.
          6    2    1    2  501    0 -0.74065385302E+01  0.21855799095E+03  0.15099928677E+03  0.31723597740E+03  0.17324961336E+03 0.  0.
         24    2    5    5    0    0  0.52050643283E+02  0.71980577901E+02  0.77998865218E+02  0.14296249682E+03  0.80398877237E+02 0.  0.
          5    1    5    5  501    0 -0.59457181813E+02  0.14657741305E+03  0.73000421552E+02  0.17427348058E+03  0.47000000000E+01 0. -1.
        -11    1    6    6    0    0 -0.15762439183E+01  0.90000250205E+01  0.56854558107E+02  0.57584075688E+02  0.00000000000E+00 0.  1.
         12    1    6    6    0    0  0.53626887201E+02  0.62980552881E+02  0.21144307111E+02  0.85378421133E+02  0.00000000000E+00 0. -1.
         -5    1    3    3    0  503  0.27611543222E+02 -0.14614926262E+03 -0.23433519022E+03  0.27759156266E+03  0.47000000000E+01 0.  1.
         11    1    4    4    0    0 -0.11799755382E+02 -0.84071390127E+02 -0.59918865138E+02  0.10391103534E+03  0.00000000000E+00 0. -1.
        -12    1    4    4    0    0 -0.84052493098E+01  0.11662661795E+02  0.90147386188E+01  0.16968541731E+02  0.00000000000E+00 0.  1.
</event>
<event>
12    1  0.9873238E-001  0.2995125E+03  0.7818608E-02  0.1085518E+00
         21   -1    0    0  503  502  0.00000000000E+00  0.00000000000E+00  0.14858072861E+04  0.14858072861E+04  0.00000000000E+00 0.  1.
         21   -1    0    0  501  503 -0.00000000000E+00 -0.00000000000E+00 -0.67103864079E+02  0.67103864079E+02  0.00000000000E+00 0. -1.
          6    2    1    2  501    0 -0.18417798022E+03 -0.16203423661E+03  0.95648192092E+03  0.10022801021E+04  0.17184619826E+03 0.  0.
         24    2    3    3    0    0 -0.79234123309E+02 -0.41000415652E+02  0.22725560501E+03  0.25565067013E+03  0.75849026028E+02 0.  0.
         -6    2    1    2    0  502  0.18417798022E+03  0.16203423661E+03  0.46222150106E+03  0.55063104801E+03  0.17137448104E+03 0.  0.
        -24    2    5    5    0    0  0.11773555011E+03  0.15039643459E+03  0.23208227617E+03  0.31076402696E+03  0.78938901947E+02 0.  0.
          5    1    3    3  501    0 -0.10494385691E+03 -0.12103382096E+03  0.72922631591E+03  0.74662943200E+03  0.47000000000E+01 0. -1.
        -11    1    4    4    0    0 -0.52204557071E+02 -0.18747619999E+02  0.20886147422E+03  0.21610160677E+03  0.00000000000E+00 0.  1.
         12    1    4    4    0    0 -0.27029566239E+02 -0.22252795654E+02  0.18394130795E+02  0.39549063366E+02  0.00000000000E+00 0. -1.
         -5    1    5    5    0  502  0.66442430112E+02  0.11637802023E+02  0.23013922489E+03  0.23986702105E+03  0.47000000000E+01 0.  1.
         11    1    6    6    0    0  0.41778686312E+02  0.62161561772E+02  0.36894554200E+02  0.83490876876E+02  0.00000000000E+00 0. -1.
        -12    1    6    6    0    0  0.75956863796E+02  0.88234872814E+02  0.19518772197E+03  0.22727315008E+03  0.00000000000E+00 0.  1.
</event>
<event>
12    1  0.1073067E+000  0.2990633E+03  0.7818608E-02  0.1085717E+00
         21   -1    0    0  501  502  0.00000000000E+00  0.00000000000E+00  0.36263677133E+03  0.36263677133E+03  0.00000000000E+00 0.  1.
         21   -1    0    0  502  503 -0.00000000000E+00 -0.00000000000E+00 -0.11020390614E+04  0.11020390614E+04  0.00000000000E+00 0. -1.
         -6    2    1    2    0  503  0.15437438933E+03  0.19072512832E+03  0.27552989711E+03  0.40659917225E+03  0.17087608380E+03 0.  0.
        -24    2    3    3    0    0  0.10437568661E+03  0.17100260578E+03  0.27888006486E+03  0.35254214872E+03  0.79847986243E+02 0.  0.
          6    2    1    2  501    0 -0.15437438933E+03 -0.19072512832E+03 -0.10149321871E+04  0.10580766604E+04  0.17097177608E+03 0.  0.
         24    2    5    5    0    0 -0.37483410298E+02 -0.11756521950E+03 -0.36066300730E+03  0.38941671478E+03  0.79630308508E+02 0.  0.
          5    1    5    5  501    0 -0.11689097903E+03 -0.73159908819E+02 -0.65426917984E+03  0.66865994565E+03  0.47000000000E+01 0. -1.
        -13    1    6    6    0    0  0.12403820911E+02 -0.27843221174E+02 -0.17154657703E+03  0.17423354393E+03  0.00000000000E+00 0.  1.
         14    1    6    6    0    0 -0.49887231209E+02 -0.89721998322E+02 -0.18911643027E+03  0.21518317085E+03  0.00000000000E+00 0. -1.
         -5    1    3    3    0  503  0.49998702716E+02  0.19722522535E+02 -0.33501677476E+01  0.54057023525E+02  0.47000000000E+01 0.  1.
         11    1    4    4    0    0  0.10466038568E+03  0.17619297469E+03  0.25029997443E+03  0.32349318055E+03  0.00000000000E+00 0. -1.
        -12    1    4    4    0    0 -0.28469906947E+00 -0.51903689060E+01  0.28580090427E+02  0.29048968170E+02  0.00000000000E+00 0.  1.
</event>
<event>
12    1  0.9873238E-001  0.1774393E+03  0.7818608E-02  0.1171165E+00
         21   -1    0    0  503  502  0.00000000000E+00  0.00000000000E+00  0.28875803908E+03  0.28875803908E+03  0.00000000000E+00 0.  1.
         21   -1    0    0  501  503 -0.00000000000E+00 -0.00000000000E+00 -0.11663451503E+03  0.11663451503E+03  0.00000000000E+00 0.  1.
          6    2    1    2  501    0  0.37197279083E+02 -0.26062127088E+02  0.14377594567E+03  0.22570312649E+03  0.16795090566E+03 0.  0.
         24    2    3    3    0    0 -0.25071977259E+02  0.24674370714E+02  0.44719722210E+02  0.98086991532E+02  0.79898534025E+02 0.  0.
         -6    2    1    2    0  502 -0.37197279083E+02  0.26062127088E+02  0.28347578389E+02  0.17968942762E+03  0.17152793697E+03 0.  0.
        -24    2    5    5    0    0  0.24589099034E+02  0.93603939769E+01 -0.33837272184E+02  0.90327522707E+02  0.79510122644E+02 0.  0.
          5    1    3    3  501    0  0.62269256342E+02 -0.50736497802E+02  0.99056223460E+02  0.12761613495E+03  0.47000000000E+01 0. -1.
        -11    1    4    4    0    0  0.19773017184E+01  0.19739252305E+02  0.62346315883E+02  0.65426377768E+02  0.00000000000E+00 0.  1.
         12    1    4    4    0    0 -0.27049278978E+02  0.49351184095E+01 -0.17626593673E+02  0.32660613764E+02  0.00000000000E+00 0. -1.
         -5    1    5    5    0  502 -0.61786378118E+02  0.16701733111E+02  0.62184850573E+02  0.89361904918E+02  0.47000000000E+01 0.  1.
         11    1    6    6    0    0 -0.21580970139E+02  0.11807213818E+02 -0.36500182535E+02  0.44016041341E+02  0.00000000000E+00 0. -1.
        -12    1    6    6    0    0  0.46170069173E+02 -0.24468198408E+01  0.26629103507E+01  0.46311481366E+02  0.00000000000E+00 0.  1.
</event>
<event>
12    1  0.9873238E-001  0.1985389E+03  0.7818608E-02  0.1151024E+00
         21   -1    0    0  503  502  0.00000000000E+00  0.00000000000E+00  0.37285881003E+03  0.37285881003E+03  0.00000000000E+00 0.  1.
         21   -1    0    0  501  503 -0.00000000000E+00 -0.00000000000E+00 -0.10690475136E+03  0.10690475136E+03  0.00000000000E+00 0.  1.
          6    2    1    2  501    0 -0.62717535431E+02 -0.76737243524E+02  0.10656888314E+03  0.22533226766E+03  0.17203374727E+03 0.  0.
         24    2    3    3    0    0  0.35845803004E+01 -0.13109415088E+02 -0.52178325047E+01  0.80546802583E+02  0.79220298222E+02 0.  0.
         -6    2    1    2    0  502  0.62717535431E+02  0.76737243524E+02  0.15938517553E+03  0.25443129374E+03  0.17178345456E+03 0.  0.
        -24    2    5    5    0    0  0.96094309983E+02  0.97773129156E+02  0.12240433483E+03  0.20015247520E+03  0.79274781276E+02 0.  0.
          5    1    3    3  501    0 -0.66302115732E+02 -0.63627828437E+02  0.11178671565E+03  0.14478546508E+03  0.47000000000E+01 0. -1.
        -11    1    4    4    0    0 -0.33186523309E+02  0.86448279425E+01  0.91112324283E+01  0.35483699580E+02  0.00000000000E+00 0.  1.
         12    1    4    4    0    0  0.36771103609E+02 -0.21754243030E+02 -0.14329064933E+02  0.45063103004E+02  0.00000000000E+00 0. -1.
         -5    1    5    5    0  502 -0.33376774552E+02 -0.21035885631E+02  0.36980840697E+02  0.54278818543E+02  0.47000000000E+01 0.  1.
         13    1    6    6    0    0  0.36978073223E+02  0.19572427538E+02 -0.18544260011E+01  0.41879550078E+02  0.00000000000E+00 0. -1.
        -14    1    6    6    0    0  0.59116236761E+02  0.78200701618E+02  0.12425876083E+03  0.15827292512E+03  0.00000000000E+00 0.  1.
</event>
<event>
12    1  0.9873238E-001  0.1899553E+03  0.7818608E-02  0.1158609E+00
         21   -1    0    0  501  502  0.00000000000E+00  0.00000000000E+00  0.41635867763E+03  0.41635867763E+03  0.00000000000E+00 0. -1.
         21   -1    0    0  502  503 -0.00000000000E+00 -0.00000000000E+00 -0.91735891416E+02  0.91735891416E+02  0.00000000000E+00 0. -1.
         -6    2    1    2    0  503  0.76872700532E+02 -0.19074323105E+02  0.10150522510E+03  0.21537488932E+03  0.17265511965E+03 0.  0.
        -24    2    3    3    0    0  0.36301860068E+02  0.14449212398E+02 -0.11146917910E+02  0.90946533016E+02  0.81365922262E+02 0.  0.
          6    2    1    2  501    0 -0.76872700532E+02  0.19074323105E+02  0.22311756111E+03  0.29271967972E+03  0.17213402607E+03 0.  0.
         24    2    5    5    0    0 -0.44176751287E+02 -0.56545943681E+02  0.13087240385E+03  0.16895090788E+03  0.79169401170E+02 0.  0.
          5    1    5    5  501    0 -0.32695949245E+02  0.75620266786E+02  0.92245157262E+02  0.12376877185E+03  0.47000000000E+01 0. -1.
        -11    1    6    6    0    0  0.17356689609E+02 -0.22646140513E+01  0.53044914465E+02  0.55858267979E+02  0.00000000000E+00 0.  1.
         12    1    6    6    0    0 -0.61533440896E+02 -0.54281329630E+02  0.77827489387E+02  0.11309263990E+03  0.00000000000E+00 0. -1.
         -5    1    3    3    0  503  0.40570840464E+02 -0.33523535503E+02  0.11265214301E+03  0.12442835631E+03  0.47000000000E+01 0.  1.
         13    1    4    4    0    0  0.26816806537E+02 -0.21403236136E+02  0.22369875050E+02  0.40959137438E+02  0.00000000000E+00 0. -1.
        -14    1    4    4    0    0  0.94850535305E+01  0.35852448534E+02 -0.33516792960E+02  0.49987395578E+02  0.00000000000E+00 0.  1.
</event>
<event>
12    1  0.9873238E-001  0.2191809E+03  0.7818608E-02  0.1134765E+00
         21   -1    0    0  503  502  0.00000000000E+00  0.00000000000E+00  0.20521197155E+03  0.20521197155E+03  0.00000000000E+00 0. -1.
         21   -1    0    0  501  503 -0.00000000000E+00 -0.00000000000E+00 -0.23956427873E+03  0.23956427873E+03  0.00000000000E+00 0. -1.
          6    2    1    2  501    0  0.53344236457E+02 -0.12699530497E+03 -0.55127313854E+02  0.22461298301E+03  0.16863735161E+03 0.  0.
         24    2    3    3    0    0  0.17758352730E+02 -0.13768056216E+03 -0.33138568795E+01  0.16068134636E+03  0.80846874598E+02 0.  0.
         -6    2    1    2    0  502 -0.53344236457E+02  0.12699530497E+03  0.20775006677E+02  0.22016326727E+03  0.17049002406E+03 0.  0.
        -24    2    5    5    0    0 -0.24177515170E+02  0.41815674013E+02  0.70601754836E+02  0.11715325808E+03  0.80044832818E+02 0.  0.
          5    1    3    3  501    0  0.35585883726E+02  0.10685257188E+02 -0.51813456974E+02  0.63931636655E+02  0.47000000000E+01 0. -1.
        -11    1    4    4    0    0  0.43837103124E+02 -0.49606922281E+02 -0.15588494237E+02  0.68011318919E+02  0.00000000000E+00 0.  1.
         12    1    4    4    0    0 -0.26078750394E+02 -0.88073639878E+02  0.12274637357E+02  0.92670027440E+02  0.00000000000E+00 0. -1.
         -5    1    5    5    0  502 -0.29166721286E+02  0.85179630958E+02 -0.49826748158E+02  0.10301000919E+03  0.47000000000E+01 0.  1.
         13    1    6    6    0    0  0.24303731876E+02  0.37409984404E+02  0.37564771622E+02  0.58320582844E+02  0.00000000000E+00 0. -1.
        -14    1    6    6    0    0 -0.48481247046E+02  0.44056896086E+01  0.33036983214E+02  0.58832675240E+02  0.00000000000E+00 0.  1.
</event>
<event>
12    1  0.9873238E-001  0.2828583E+03  0.7818608E-02  0.1094472E+00
         21   -1    0    0  501  502  0.00000000000E+00  0.00000000000E+00  0.55819454922E+02  0.55819454922E+02  0.00000000000E+00 0.  1.
         21   -1    0    0  502  503 -0.00000000000E+00 -0.00000000000E+00 -0.16149730701E+04  0.16149730701E+04  0.00000000000E+00 0. -1.
         -6    2    1    2    0  503 -0.14523622153E+03 -0.16634566537E+03 -0.48694581567E+03  0.56190192628E+03  0.17278051665E+03 0.  0.
        -24    2    3    3    0    0 -0.80786070913E+01 -0.87150290703E+02 -0.24789294926E+03  0.27510499202E+03  0.81064204660E+02 0.  0.
          6    2    1    2  501    0  0.14523622153E+03  0.16634566537E+03 -0.10722077995E+04  0.11088905987E+04  0.17676072585E+03 0.  0.
         24    2    5    5    0    0  0.13632181273E+03  0.16308475190E+03 -0.69205020445E+03  0.72858547476E+03  0.81994119449E+02 0.  0.
          5    1    5    5  501    0  0.89144088001E+01  0.32609134681E+01 -0.38015759502E+03  0.38030512394E+03  0.47000000000E+01 0. -1.
        -13    1    6    6    0    0  0.36171603378E+02  0.49281128532E+02 -0.98048985238E+02  0.11554487451E+03  0.00000000000E+00 0.  1.
         14    1    6    6    0    0  0.10015020936E+03  0.11380362337E+03 -0.59400121921E+03  0.61304060024E+03  0.00000000000E+00 0. -1.
         -5    1    3    3    0  503 -0.13715761444E+03 -0.79195374665E+02 -0.23905286640E+03  0.28679693426E+03  0.47000000000E+01 0.  1.
         11    1    4    4    0    0 -0.14714251939E+02  0.12255995415E+02 -0.31227798470E+02  0.36631871793E+02  0.00000000000E+00 0. -1.
        -12    1    4    4    0    0  0.66356448480E+01 -0.99406286117E+02 -0.21666515079E+03  0.23847312023E+03  0.00000000000E+00 0.  1.
</event>
<event>
12    1  0.9873238E-001  0.2485316E+03  0.7818608E-02  0.1114286E+00
         21   -1    0    0  503  502  0.00000000000E+00  0.00000000000E+00  0.24892561354E+03  0.24892561354E+03  0.00000000000E+00 0. -1.
         21   -1    0    0  501  503 -0.00000000000E+00 -0.00000000000E+00 -0.25362516125E+03  0.25362516125E+03  0.00000000000E+00 0. -1.
          6    2    1    2  501    0 -0.15613806139E+03 -0.89033451833E+02 -0.40342887214E+02  0.25147624237E+03  0.17119200380E+03 0.  0.
         24    2    3    3    0    0 -0.17639639582E+03 -0.48187225179E+02 -0.17391510117E+02  0.20021543808E+03  0.79662160979E+02 0.  0.
         -6    2    1    2    0  502  0.15613806139E+03  0.89033451833E+02  0.35643339502E+02  0.25107453242E+03  0.17164475937E+03 0.  0.
        -24    2    5    5    0    0  0.29661367158E+02 -0.15214941729E+02  0.73033694210E+01  0.84673433718E+02  0.77491677096E+02 0.  0.
          5    1    3    3  501    0  0.20258334429E+02 -0.40846226654E+02 -0.22951377097E+02  0.51260804289E+02  0.47000000000E+01 0. -1.
        -11    1    4    4    0    0 -0.26152120130E+02  0.10963919655E+02  0.19715630903E+02  0.34537617511E+02  0.00000000000E+00 0.  1.
         12    1    4    4    0    0 -0.15024427569E+03 -0.59151144834E+02 -0.37107141020E+02  0.16567782057E+03  0.00000000000E+00 0. -1.
         -5    1    5    5    0  502  0.12647669424E+03  0.10424839356E+03  0.28339970081E+02  0.16640109870E+03  0.47000000000E+01 0.  1.
         13    1    6    6    0    0  0.25052603622E+02 -0.33244985003E+01 -0.33477301903E+02  0.41945380928E+02  0.00000000000E+00 0. -1.
        -14    1    6    6    0    0  0.46087635367E+01 -0.11890443229E+02  0.40780671324E+02  0.42728052789E+02  0.00000000000E+00 0.  1.
</event>
<event>
12    1  0.9873238E-001  0.5260342E+03  0.7818608E-02  0.1007227E+00
         21   -1    0    0  503  502  0.00000000000E+00  0.00000000000E+00  0.22351075743E+04  0.22351075743E+04  0.00000000000E+00 0.  1.
         21   -1    0    0  501  503 -0.00000000000E+00 -0.00000000000E+00 -0.28128473544E+03  0.28128473544E+03  0.00000000000E+00 0. -1.
          6    2    1    2  501    0  0.32807292439E+03  0.37309208829E+03  0.19188743225E+04  0.19896710010E+04  0.17286548651E+03 0.  0.
         24    2    3    3    0    0  0.13346017938E+03  0.10636871734E+03  0.80686922641E+03  0.82967406093E+03  0.90527207775E+02 0.  0.
         -6    2    1    2    0  502 -0.32807292439E+03 -0.37309208829E+03  0.34948516405E+02  0.52672130883E+03  0.17141875133E+03 0.  0.
        -24    2    5    5    0    0 -0.19291629151E+03 -0.26997126839E+03 -0.34742006871E+02  0.34292773455E+03  0.79317354979E+02 0.  0.
          5    1    3    3  501    0  0.19461274501E+03  0.26672337095E+03  0.11120050961E+04  0.11599969400E+04  0.47000000000E+01 0. -1.
        -11    1    4    4    0    0  0.13227542849E+03  0.11945597951E+03  0.71550171110E+03  0.73736640730E+03  0.00000000000E+00 0.  1.
         12    1    4    4    0    0  0.11847508879E+01 -0.13087262168E+02  0.91367515305E+02  0.92307653631E+02  0.00000000000E+00 0. -1.
         -5    1    5    5    0  502 -0.13515663288E+03 -0.10312081991E+03  0.69690523276E+02  0.18379357427E+03  0.47000000000E+01 0.  1.
         13    1    6    6    0    0 -0.19421226600E+03 -0.24556873672E+03 -0.18593029363E+02  0.31363690704E+03  0.00000000000E+00 0. -1.
        -14    1    6    6    0    0  0.12959744918E+01 -0.24402531667E+02 -0.16148977508E+02  0.29290827509E+02  0.00000000000E+00 0.  1.
</event>
<event>
12    1  0.1232272E+000  0.2255948E+03  0.7818608E-02  0.1130076E+00
         21   -1    0    0  503  502  0.00000000000E+00  0.00000000000E+00  0.50780543935E+03  0.50780543935E+03  0.00000000000E+00 0.  1.
         21   -1    0    0  501  503 -0.00000000000E+00 -0.00000000000E+00 -0.45843072952E+03  0.45843072952E+03  0.00000000000E+00 0.  1.
          6    2    1    2  501    0 -0.13145807204E+03  0.56387411655E+02  0.45215603488E+03  0.50458067607E+03  0.17232473383E+03 0.  0.
         24    2    3    3    0    0 -0.31542639780E+02 -0.45231923851E+01  0.31210898422E+03  0.32201983228E+03  0.72590336519E+02 0.  0.
         -6    2    1    2    0  502  0.13145807204E+03 -0.56387411655E+02 -0.40278132505E+03  0.46165549280E+03  0.17444836864E+03 0.  0.
        -24    2    5    5    0    0  0.74228634805E+02 -0.20445765299E+02 -0.37656754012E+03  0.38901760358E+03  0.60030526276E+02 0.  0.
          5    1    3    3  501    0 -0.99915432261E+02  0.60910604040E+02  0.14004705066E+03  0.18256084379E+03  0.47000000000E+01 0. -1.
        -11    1    4    4    0    0  0.21552387184E+02  0.97742565443E+01  0.76350438897E+02  0.79933916481E+02  0.00000000000E+00 0.  1.
         12    1    4    4    0    0 -0.53095026964E+02 -0.14297448929E+02  0.23575854532E+03  0.24208591580E+03  0.00000000000E+00 0. -1.
         -5    1    5    5    0  502  0.57229437235E+02 -0.35941646356E+02 -0.26213784937E+02  0.72637889216E+02  0.47000000000E+01 0.  1.
         13    1    6    6    0    0  0.83384806054E+02 -0.11472251627E+02 -0.30981641082E+03  0.32104648706E+03  0.00000000000E+00 0. -1.
        -14    1    6    6    0    0 -0.91561712494E+01 -0.89735136725E+01 -0.66751129294E+02  0.67971116524E+02  0.00000000000E+00 0.  1.
</event>
<event>
12    1  0.9873238E-001  0.1907438E+03  0.7818608E-02  0.1159891E+00
         21   -1    0    0  503  502  0.00000000000E+00  0.00000000000E+00  0.20394786276E+03  0.20394786276E+03  0.00000000000E+00 0.  1.
         21   -1    0    0  501  503 -0.00000000000E+00 -0.00000000000E+00 -0.17626642190E+03  0.17626642190E+03  0.00000000000E+00 0.  1.
          6    2    1    2  501    0 -0.55198502755E+02  0.25236669707E+00  0.49425786748E+02  0.18823510508E+03  0.17303932500E+03 0.  0.
         24    2    3    3    0    0 -0.92436648559E+02  0.22095586615E+02  0.62937670486E+02  0.14275470533E+03  0.85936061021E+02 0.  0.
         -6    2    1    2    0  502  0.55198502755E+02 -0.25236669707E+00 -0.21744345882E+02  0.19197917958E+03  0.18258217443E+03 0.  0.
        -24    2    5    5    0    0  0.46427137952E+02  0.17965761734E+02  0.57506351157E+02  0.11005482407E+03  0.79541411511E+02 0.  0.
          5    1    3    3  501    0  0.37238145805E+02 -0.21843219918E+02 -0.13511883738E+02  0.45480399751E+02  0.47000000000E+01 0. -1.
        -11    1    4    4    0    0 -0.71734335743E+02 -0.24863072373E+02  0.45716603880E+02  0.88622768873E+02  0.00000000000E+00 0.  1.
         12    1    4    4    0    0 -0.20702312816E+02  0.46958658988E+02  0.17221066605E+02  0.54131936460E+02  0.00000000000E+00 0. -1.
         -5    1    5    5    0  502  0.87713648027E+01 -0.18218128431E+02 -0.79250697039E+02  0.81924355506E+02  0.47000000000E+01 0.  1.
         11    1    6    6    0    0 -0.90878493379E+01 -0.22380169504E+02  0.22518077528E+02  0.33023095072E+02  0.00000000000E+00 0. -1.
        -12    1    6    6    0    0  0.55514987290E+02  0.40345931237E+02  0.34988273629E+02  0.77031729000E+02  0.00000000000E+00 0.  1.
</event>
<event>
12    1  0.9873238E-001  0.2377056E+03  0.7818608E-02  0.1121404E+00
         21   -1    0    0  503  502  0.00000000000E+00  0.00000000000E+00  0.86870025888E+03  0.86870025888E+03  0.00000000000E+00 0. -1.
         21   -1    0    0  501  503 -0.00000000000E+00 -0.00000000000E+00 -0.66704923101E+02  0.66704923101E+02  0.00000000000E+00 0. -1.
          6    2    1    2  501    0 -0.16207180605E+03  0.26875257934E+02  0.32496524763E+03  0.40262436149E+03  0.17179759746E+03 0.  0.
         24    2    3    3    0    0 -0.89394103058E+02  0.66234342950E+01  0.29950309542E+03  0.32285847864E+03  0.80624546619E+02 0.  0.
         -6    2    1    2    0  502  0.16207180605E+03 -0.26875257934E+02  0.47703008814E+03  0.53278082048E+03  0.17119622624E+03 0.  0.
        -24    2    5    5    0    0  0.60257779725E+02  0.27594702064E+02  0.32841104397E+03  0.34451828362E+03  0.80290512164E+02 0.  0.
          5    1    3    3  501    0 -0.72677702990E+02  0.20251823639E+02  0.25462152213E+02  0.79765882857E+02  0.47000000000E+01 0. -1.
        -11    1    4    4    0    0 -0.39796408270E+02  0.25619623176E+02  0.23295716492E+03  0.23771655367E+03  0.00000000000E+00 0.  1.
         12    1    4    4    0    0 -0.49597694789E+02 -0.18996188881E+02  0.66545930504E+02  0.85141924967E+02  0.00000000000E+00 0. -1.
         -5    1    5    5    0  502  0.10181402632E+03 -0.54469959998E+02  0.14861904417E+03  0.18826253687E+03  0.47000000000E+01 0.  1.
         11    1    6    6    0    0 -0.18757501368E+02 -0.22202803146E+01  0.77792781611E+02  0.80053047244E+02  0.00000000000E+00 0. -1.
        -12    1    6    6    0    0  0.79015281094E+02  0.29814982378E+02  0.25061826236E+03  0.26446523637E+03  0.00000000000E+00 0.  1.
</event>
<event>
12    1  0.9873238E-001  0.2043065E+03  0.7818608E-02  0.1146367E+00
         21   -1    0    0  503  502  0.00000000000E+00  0.00000000000E+00  0.16430358087E+03  0.16430358087E+03  0.00000000000E+00 0.  1.
         21   -1    0    0  501  503 -0.00000000000E+00 -0.00000000000E+00 -0.27815407298E+03  0.27815407298E+03  0.00000000000E+00 0.  1.
          6    2    1    2  501    0  0.20244046751E+02 -0.10810533115E+03 -0.12388474980E+03  0.23893214248E+03  0.17217593742E+03 0.  0.
         24    2    3    3    0    0  0.26847441803E+02 -0.84010225764E+02 -0.15709392388E+03  0.19710968233E+03  0.79970136814E+02 0.  0.
         -6    2    1    2    0  502 -0.20244046751E+02  0.10810533115E+03  0.10034257687E+02  0.20352551136E+03  0.17095427282E+03 0.  0.
        -24    2    5    5    0    0 -0.52385623489E+02  0.93354885534E+02 -0.41715869496E+02  0.14066994466E+03  0.81169152774E+02 0.  0.
          5    1    3    3  501    0 -0.66033950519E+01 -0.24095105388E+02  0.33209174088E+02  0.41822460156E+02  0.47000000000E+01 0. -1.
        -11    1    4    4    0    0 -0.73275243990E+01 -0.77629529244E+02 -0.13505129213E+03  0.15594514398E+03  0.00000000000E+00 0.  1.
         12    1    4    4    0    0  0.34174966202E+02 -0.63806965201E+01 -0.22042631756E+02  0.41164538352E+02  0.00000000000E+00 0. -1.
         -5    1    5    5    0  502  0.32141576738E+02  0.14750445618E+02  0.51750127183E+02  0.62855566695E+02  0.47000000000E+01 0.  1.
         13    1    6    6    0    0 -0.94927172744E+01  0.38353709804E+02 -0.56913920174E+02  0.69284291484E+02  0.00000000000E+00 0. -1.
        -14    1    6    6    0    0 -0.42892906214E+02  0.55001175731E+02  0.15198050678E+02  0.71385653178E+02  0.00000000000E+00 0.  1.
</event>
<event>
12    1  0.9873238E-001  0.1963782E+03  0.7818608E-02  0.1153758E+00
         21   -1    0    0  503  502  0.00000000000E+00  0.00000000000E+00  0.18578625306E+02  0.18578625306E+02  0.00000000000E+00 0.  1.
         21   -1    0    0  501  503 -0.00000000000E+00 -0.00000000000E+00 -0.21047196037E+04  0.21047196037E+04  0.00000000000E+00 0.  1.
          6    2    1    2  501    0 -0.72567963330E+02 -0.52194283140E+02 -0.85558127650E+03  0.87782898144E+03  0.17485436070E+03 0.  0.
         24    2    3    3    0    0 -0.44094352256E+02 -0.77672497738E+02 -0.34279243731E+03  0.36359715672E+03  0.81968948360E+02 0.  0.
         -6    2    1    2    0  502  0.72567963330E+02  0.52194283140E+02 -0.12305597019E+04  0.12454692475E+04  0.17007678921E+03 0.  0.
        -24    2    5    5    0    0  0.27404305910E+01 -0.79391311709E+01 -0.83834570236E+03  0.84254763823E+03  0.83620967796E+02 0.  0.
          5    1    3    3  501    0 -0.28473611074E+02  0.25478214598E+02 -0.51278883920E+03  0.51423182472E+03  0.47000000000E+01 0. -1.
        -13    1    4    4    0    0  0.19429628071E+01 -0.99920091733E+01 -0.18989728061E+03  0.19016990439E+03  0.00000000000E+00 0.  1.
         14    1    4    4    0    0 -0.46037315063E+02 -0.67680488565E+02 -0.15289515670E+03  0.17342725233E+03  0.00000000000E+00 0. -1.
         -5    1    5    5    0  502  0.69827532739E+02  0.60133414311E+02 -0.39221399951E+03  0.40292160932E+03  0.47000000000E+01 0.  1.
         13    1    6    6    0    0  0.13749471289E+02  0.33563809800E+02 -0.52818120602E+03  0.52942512567E+03  0.00000000000E+00 0. -1.
        -14    1    6    6    0    0 -0.11009040698E+02 -0.41502940970E+02 -0.31016449634E+03  0.31312251256E+03  0.00000000000E+00 0.  1.
</event>
<event>
12    1  0.9873238E-001  0.1755576E+03  0.7818608E-02  0.1172189E+00
         21   -1    0    0  503  502  0.00000000000E+00  0.00000000000E+00  0.17028033684E+03  0.17028033684E+03  0.00000000000E+00 0.  1.
         21   -1    0    0  501  503 -0.00000000000E+00 -0.00000000000E+00 -0.19002303550E+03  0.19002303550E+03  0.00000000000E+00 0.  1.
          6    2    1    2  501    0 -0.25212385815E+02  0.21509987395E+02 -0.49268581203E+02  0.18228019086E+03  0.17233783951E+03 0.  0.
         24    2    3    3    0    0 -0.81291133319E+02  0.30741146563E+02 -0.25256258257E+02  0.12040352421E+03  0.79409468037E+02 0.  0.
         -6    2    1    2    0  502  0.25212385815E+02 -0.21509987395E+02  0.29525882546E+02  0.17802318149E+03  0.17240107729E+03 0.  0.
        -24    2    5    5    0    0  0.83141589618E+01 -0.54189003658E+02 -0.35677694477E+02  0.10300941854E+03  0.79576812378E+02 0.  0.
          5    1    3    3  501    0  0.56078747504E+02 -0.92311591685E+01 -0.24012322946E+02  0.61876666640E+02  0.47000000000E+01 0. -1.
        -13    1    4    4    0    0 -0.86598396519E+02  0.10884133120E+02 -0.39083978042E+02  0.95631082672E+02  0.00000000000E+00 0.  1.
         14    1    4    4    0    0  0.53072631995E+01  0.19857013443E+02  0.13827719785E+02  0.24772441543E+02  0.00000000000E+00 0. -1.
         -5    1    5    5    0  502  0.16898226853E+02  0.32679016264E+02  0.65203577023E+02  0.75013762946E+02  0.47000000000E+01 0.  1.
         13    1    6    6    0    0 -0.77470864993E+00  0.18623585232E+02 -0.21178667533E+02  0.28213012226E+02  0.00000000000E+00 0. -1.
        -14    1    6    6    0    0  0.90888676117E+01 -0.72812588890E+02 -0.14499026945E+02  0.74796406315E+02  0.00000000000E+00 0.  1.
</event>
<event>
12    1  0.9873238E-001  0.1780782E+03  0.7818608E-02  0.1169743E+00
         21   -1    0    0  503  502  0.00000000000E+00  0.00000000000E+00  0.12911093697E+03  0.12911093697E+03  0.00000000000E+00 0. -1.
         21   -1    0    0  501  503 -0.00000000000E+00 -0.00000000000E+00 -0.35422697662E+03  0.35422697662E+03  0.00000000000E+00 0. -1.
          6    2    1    2  501    0 -0.44365325402E+02  0.12374633075E+02 -0.24666549886E+03  0.30422968098E+03  0.17201865253E+03 0.  0.
         24    2    3    3    0    0 -0.78104021988E+02 -0.21761221128E+02 -0.10814198681E+03  0.15755176996E+03  0.80957284486E+02 0.  0.
         -6    2    1    2    0  502  0.44365325402E+02 -0.12374633075E+02  0.21549459211E+02  0.17910823261E+03  0.17173807427E+03 0.  0.
        -24    2    5    5    0    0 -0.73725047655E+01 -0.64982065771E+02  0.24451740948E+02  0.10511594730E+03  0.78577681585E+02 0.  0.
          5    1    3    3  501    0  0.33738696586E+02  0.34135854202E+02 -0.13852351205E+03  0.14667791101E+03  0.47000000000E+01 0. -1.
        -13    1    4    4    0    0  0.38551762822E+01 -0.25416059066E+02 -0.57417528895E+01  0.26340200623E+02  0.00000000000E+00 0.  1.
         14    1    4    4    0    0 -0.81959198270E+02  0.36548379382E+01 -0.10240023392E+03  0.13121156934E+03  0.00000000000E+00 0. -1.
         -5    1    5    5    0  502  0.51737830168E+02  0.52607432696E+02 -0.29022817368E+01  0.73992285305E+02  0.47000000000E+01 0.  1.
         13    1    6    6    0    0 -0.13757419674E+02  0.13617987476E+02 -0.64714769947E+01  0.20410688216E+02  0.00000000000E+00 0. -1.
        -14    1    6    6    0    0  0.63849149084E+01 -0.78600053246E+02  0.30923217943E+02  0.84705259085E+02  0.00000000000E+00 0.  1.
</event>
<event>
12    1  0.9873238E-001  0.1933071E+03  0.7818608E-02  0.1155830E+00
         21   -1    0    0  503  502  0.00000000000E+00  0.00000000000E+00  0.13656764138E+03  0.13656764138E+03  0.00000000000E+00 0.  1.
         21   -1    0    0  501  503 -0.00000000000E+00 -0.00000000000E+00 -0.37232051988E+03  0.37232051988E+03  0.00000000000E+00 0.  1.
          6    2    1    2  501    0  0.86384150522E+02 -0.11851592100E+02  0.14150113701E+02  0.19382430903E+03  0.17252523107E+03 0.  0.
         24    2    3    3    0    0  0.43754483163E+02 -0.60380859569E+02  0.50214996982E+02  0.11969506955E+03  0.79025696788E+02 0.  0.
         -6    2    1    2    0  502 -0.86384150522E+02  0.11851592100E+02 -0.24990299220E+03  0.31506385223E+03  0.17091238627E+03 0.  0.
        -24    2    5    5    0    0 -0.74639153990E+02 -0.50272938965E+02 -0.11429610883E+03  0.16536843106E+03  0.78643154805E+02 0.  0.
          5    1    3    3  501    0  0.42629667360E+02  0.48529267469E+02 -0.36064883281E+02  0.74129239483E+02  0.47000000000E+01 0. -1.
        -13    1    4    4    0    0 -0.91054777465E+01  0.12965849096E+02  0.17354002048E+02  0.23498603253E+02  0.00000000000E+00 0.  1.
         14    1    4    4    0    0  0.52859960909E+02 -0.73346708665E+02  0.32860994934E+02  0.96196466293E+02  0.00000000000E+00 0. -1.
         -5    1    5    5    0  502 -0.11744996532E+02  0.62124531065E+02 -0.13560688337E+03  0.14969542117E+03  0.47000000000E+01 0.  1.
         11    1    6    6    0    0 -0.28737044040E+02  0.20397803845E+02 -0.33266300651E+02  0.48461684462E+02  0.00000000000E+00 0. -1.
        -12    1    6    6    0    0 -0.45902109950E+02 -0.70670742810E+02 -0.81029808178E+02  0.11690674660E+03  0.00000000000E+00 0.  1.
</event>
<event>
12    1  0.9873238E-001  0.1967193E+03  0.7818608E-02  0.1157673E+00
         21   -1    0    0  503  502  0.00000000000E+00  0.00000000000E+00  0.14718920679E+02  0.14718920679E+02  0.00000000000E+00 0.  1.
         21   -1    0    0  501  503 -0.00000000000E+00 -0.00000000000E+00 -0.26643214208E+04  0.26643214208E+04  0.00000000000E+00 0.  1.
          6    2    1    2  501    0 -0.23525354858E+02  0.26973333256E+02 -0.18621928700E+04  0.18725546056E+04  0.19343593956E+03 0.  0.
         24    2    3    3    0    0  0.11941314022E+02  0.29819334634E+02 -0.37696357293E+03  0.38689174368E+03  0.80943797217E+02 0.  0.
         -6    2    1    2    0  502  0.23525354858E+02 -0.26973333256E+02 -0.78740963008E+03  0.80648573588E+03  0.17065847063E+03 0.  0.
        -24    2    5    5    0    0  0.20312550066E+02  0.30536351154E+02 -0.67853196522E+03  0.68322129729E+03  0.70997498594E+02 0.  0.
          5    1    3    3  501    0 -0.35466668880E+02 -0.28460013777E+01 -0.14852292971E+04  0.14856628619E+04  0.47000000000E+01 0. -1.
        -13    1    4    4    0    0 -0.22346679635E+02  0.12260220567E+01 -0.27079052707E+03  0.27171379569E+03  0.00000000000E+00 0.  1.
         14    1    4    4    0    0  0.34287993657E+02  0.28593312577E+02 -0.10617304587E+03  0.11517794798E+03  0.00000000000E+00 0. -1.
         -5    1    5    5    0  502  0.32128047923E+01 -0.57509684410E+02 -0.10887766486E+03  0.12326443859E+03  0.47000000000E+01 0.  1.
         13    1    6    6    0    0 -0.16170737154E+02  0.34097123227E+02 -0.21882335186E+03  0.22205352028E+03  0.00000000000E+00 0. -1.
        -14    1    6    6    0    0  0.36483287220E+02 -0.35607720739E+01 -0.45970861336E+03  0.46116777700E+03  0.00000000000E+00 0.  1.
</event>
<event>
12    1  0.9873238E-001  0.1822325E+03  0.7818608E-02  0.1166059E+00
         21   -1    0    0  501  502  0.00000000000E+00  0.00000000000E+00  0.35647766595E+02  0.35647766595E+02  0.00000000000E+00 0.  1.
         21   -1    0    0  502  503 -0.00000000000E+00 -0.00000000000E+00 -0.10836277200E+04  0.10836277200E+04  0.00000000000E+00 0.  1.
         -6    2    1    2    0  503 -0.46000848520E+02 -0.41266300158E+02 -0.31062679204E+03  0.36013566178E+03  0.17143425958E+03 0.  0.
        -24    2    3    3    0    0 -0.58452107688E+02 -0.10328604630E+02 -0.31192003260E+03  0.32643199239E+03  0.75765493115E+02 0.  0.
          6    2    1    2  501    0  0.46000848520E+02  0.41266300158E+02 -0.73735316140E+03  0.75913982485E+03  0.16966025892E+03 0.  0.
         24    2    5    5    0    0  0.82245584497E+02  0.29003314952E+02 -0.34420312805E+03  0.36410425631E+03  0.80564183447E+02 0.  0.
          5    1    5    5  501    0 -0.36244735977E+02  0.12262985206E+02 -0.39315003335E+03  0.39503556854E+03  0.47000000000E+01 0. -1.
        -13    1    6    6    0    0  0.22744122025E+02  0.43898241825E+02 -0.90845890385E+02  0.10342788078E+03  0.00000000000E+00 0.  1.
         14    1    6    6    0    0  0.59501462472E+02 -0.14894926873E+02 -0.25335723767E+03  0.26067637553E+03  0.00000000000E+00 0. -1.
         -5    1    3    3    0  503  0.12451259168E+02 -0.30937695528E+02  0.12932405613E+01  0.33703669394E+02  0.47000000000E+01 0.  1.
         11    1    4    4    0    0 -0.19353209893E+02  0.12014137536E+02 -0.17865687592E+02  0.28949421877E+02  0.00000000000E+00 0. -1.
        -12    1    4    4    0    0 -0.39098897796E+02 -0.22342742166E+02 -0.29405434501E+03  0.29748257051E+03  0.00000000000E+00 0.  1.
</event>
<event>
12    1  0.9873238E-001  0.1936471E+03  0.7818608E-02  0.1155261E+00
         21   -1    0    0  501  502  0.00000000000E+00  0.00000000000E+00  0.84390835045E+02  0.84390835045E+02  0.00000000000E+00 0.  1.
         21   -1    0    0  502  503 -0.00000000000E+00 -0.00000000000E+00 -0.45642221598E+03  0.45642221598E+03  0.00000000000E+00 0.  1.
         -6    2    1    2    0  503  0.74611976018E+02 -0.49166971328E+02 -0.23079657645E+03  0.30113314261E+03  0.17155107649E+03 0.  0.
        -24    2    3    3    0    0  0.46623870952E+02 -0.59739272759E+01 -0.37613969600E+02  0.10115668733E+03  0.81292013950E+02 0.  0.
          6    2    1    2  501    0 -0.74611976018E+02  0.49166971328E+02 -0.14123480449E+03  0.23967990841E+03  0.17179886630E+03 0.  0.
         24    2    5    5    0    0 -0.30920230999E+02 -0.12892891417E+02 -0.13839820830E+03  0.16358436699E+03  0.80520144855E+02 0.  0.
          5    1    5    5  501    0 -0.43691745019E+02  0.62059862745E+02 -0.28365961833E+01  0.76095541424E+02  0.47000000000E+01 0. -1.
        -13    1    6    6    0    0 -0.46591206451E+01 -0.60444166475E+00  0.10703789578E+02  0.11689476731E+02  0.00000000000E+00 0.  1.
         14    1    6    6    0    0 -0.26261110354E+02 -0.12288449752E+02 -0.14910199788E+03  0.15189489026E+03  0.00000000000E+00 0. -1.
         -5    1    3    3    0  503  0.27988105067E+02 -0.43193044052E+02 -0.19318260685E+03  0.19997645528E+03  0.47000000000E+01 0.  1.
         13    1    4    4    0    0 -0.70562838305E+01 -0.97069315157E+01  0.19367008473E+02  0.22783693251E+02  0.00000000000E+00 0. -1.
        -14    1    4    4    0    0  0.53680154782E+02  0.37330042398E+01 -0.56980978073E+02  0.78372994075E+02  0.00000000000E+00 0.  1.
</event>
<event>
12    1  0.9873238E-001  0.2066260E+03  0.7818608E-02  0.1144323E+00
         21   -1    0    0  501  502  0.00000000000E+00  0.00000000000E+00  0.36950381335E+03  0.36950381335E+03  0.00000000000E+00 0. -1.
         21   -1    0    0  502  503 -0.00000000000E+00 -0.00000000000E+00 -0.14234418150E+03  0.14234418150E+03  0.00000000000E+00 0. -1.
         -6    2    1    2    0  503  0.68556141217E+02  0.93016077946E+02  0.22501480053E+03  0.30549299141E+03  0.17129615316E+03 0.  0.
        -24    2    3    3    0    0  0.87686337246E+01  0.10940730835E+03  0.18662267096E+03  0.23242272318E+03  0.84530780632E+02 0.  0.
          6    2    1    2  501    0 -0.68556141217E+02 -0.93016077946E+02  0.21448313259E+01  0.20635500345E+03  0.17095570155E+03 0.  0.
         24    2    5    5    0    0 -0.65051568421E+02 -0.13283076859E+03 -0.28766048888E+01  0.16579891336E+03  0.74868452501E+02 0.  0.
          5    1    5    5  501    0 -0.35045727964E+01  0.39814690640E+02  0.50214362147E+01  0.40556090084E+02  0.47000000000E+01 0. -1.
        -13    1    6    6    0    0 -0.72351045733E+02 -0.93577079961E+02 -0.23900221926E+02  0.12067545037E+03  0.00000000000E+00 0.  1.
         14    1    6    6    0    0  0.72994773121E+01 -0.39253688625E+02  0.21023617038E+02  0.45123462999E+02  0.00000000000E+00 0. -1.
         -5    1    3    3    0  503  0.59787507492E+02 -0.16391230407E+02  0.38392129565E+02  0.73070268228E+02  0.47000000000E+01 0.  1.
         13    1    4    4    0    0  0.18508433420E+02  0.21385638482E+02  0.11528887603E+03  0.11870734003E+03  0.00000000000E+00 0. -1.
        -14    1    4    4    0    0 -0.97397996958E+01  0.88021669872E+02  0.71333794933E+02  0.11371538315E+03  0.00000000000E+00 0.  1.
</event>
<event>
12    1  0.9873238E-001  0.2139333E+03  0.7818608E-02  0.1139121E+00
         21   -1    0    0  501  502  0.00000000000E+00  0.00000000000E+00  0.62805574119E+02  0.62805574119E+02  0.00000000000E+00 0.  1.
         21   -1    0    0  502  503 -0.00000000000E+00 -0.00000000000E+00 -0.73393786138E+03  0.73393786138E+03  0.00000000000E+00 0.  1.
         -6    2    1    2    0  503  0.10588949517E+03 -0.66609151347E+02 -0.27881334418E+03  0.35143186061E+03  0.17354569290E+03 0.  0.
        -24    2    3    3    0    0  0.69488884708E+02 -0.15984816553E+02 -0.57945009102E+02  0.12188286985E+03  0.80084895110E+02 0.  0.
          6    2    1    2  501    0 -0.10588949517E+03  0.66609151347E+02 -0.39231894308E+03  0.44531157489E+03  0.16952545946E+03 0.  0.
         24    2    5    5    0    0 -0.59336388684E+02 -0.29489499051E+02 -0.21836833453E+03  0.24114731126E+03  0.77954208513E+02 0.  0.
          5    1    5    5  501    0 -0.46553106487E+02  0.96098650398E+02 -0.17395060855E+03  0.20416426364E+03  0.47000000000E+01 0. -1.
        -11    1    6    6    0    0  0.89592882123E+01 -0.24726316267E+02 -0.26092864345E+02  0.37047228386E+02  0.00000000000E+00 0.  1.
         12    1    6    6    0    0 -0.68295676896E+02 -0.47631827842E+01 -0.19227547019E+03  0.20410008287E+03  0.00000000000E+00 0. -1.
         -5    1    3    3    0  503  0.36400610464E+02 -0.50624334794E+02 -0.22086833508E+03  0.22954899076E+03  0.47000000000E+01 0.  1.
         11    1    4    4    0    0  0.16740367895E+02 -0.39222160634E+02 -0.46543084189E+02  0.63125878116E+02  0.00000000000E+00 0. -1.
        -12    1    4    4    0    0  0.52748516813E+02  0.23237344081E+02 -0.11401924913E+02  0.58756991734E+02  0.00000000000E+00 0.  1.
</event>
<event>
12    1  0.9873238E-001  0.1793178E+03  0.7818608E-02  0.1168490E+00
         21   -1    0    0  501  502  0.00000000000E+00  0.00000000000E+00  0.73379315031E+03  0.73379315031E+03  0.00000000000E+00 0. -1.
         21   -1    0    0  502  503 -0.00000000000E+00 -0.00000000000E+00 -0.43950974891E+02  0.43950974891E+02  0.00000000000E+00 0. -1.
         -6    2    1    2    0  503 -0.49057677709E+02  0.25283051076E+01  0.32165336620E+03  0.36821040274E+03  0.17235128263E+03 0.  0.
        -24    2    3    3    0    0  0.23788523807E+02  0.41258981820E+01  0.79876179966E+02  0.11564868916E+03  0.80071831990E+02 0.  0.
          6    2    1    2  501    0  0.49057677709E+02 -0.25283051076E+01  0.36818880921E+03  0.40953372246E+03  0.17245817619E+03 0.  0.
         24    2    5    5    0    0 -0.81186206163E+01 -0.55208785328E+02  0.24969502096E+03  0.26773375793E+03  0.78865960119E+02 0.  0.
          5    1    5    5  501    0  0.57176298325E+02  0.52680480220E+02  0.11849378825E+03  0.14179996453E+03  0.47000000000E+01 0. -1.
        -11    1    6    6    0    0 -0.21840700807E+02  0.13648071682E+02  0.81505790024E+02  0.85477949670E+02  0.00000000000E+00 0.  1.
         12    1    6    6    0    0  0.13722080190E+02 -0.68856857010E+02  0.16818923094E+03  0.18225580826E+03  0.00000000000E+00 0. -1.
         -5    1    3    3    0  503 -0.72846201516E+02 -0.15975930744E+01  0.24177718624E+03  0.25256171357E+03  0.47000000000E+01 0.  1.
         13    1    4    4    0    0  0.10141478251E+02  0.41706012036E+02  0.48948276359E+02  0.65101265576E+02  0.00000000000E+00 0. -1.
        -14    1    4    4    0    0  0.13647045556E+02 -0.37580113854E+02  0.30927903607E+02  0.50547423587E+02  0.00000000000E+00 0.  1.
</event>
<event>
12    1  0.9873238E-001  0.1839512E+03  0.7818608E-02  0.1164729E+00
         21   -1    0    0  503  502  0.00000000000E+00  0.00000000000E+00  0.14778029310E+03  0.14778029310E+03  0.00000000000E+00 0. -1.
         21   -1    0    0  501  503 -0.00000000000E+00 -0.00000000000E+00 -0.23346311674E+03  0.23346311674E+03  0.00000000000E+00 0. -1.
          6    2    1    2  501    0 -0.60909842023E+02  0.18660773781E+02 -0.76174187407E+01  0.18410885602E+03  0.17256828348E+03 0.  0.
         24    2    3    3    0    0 -0.30668153622E+02 -0.30386708214E+02 -0.57329606393E+02  0.10786184422E+03  0.80520841933E+02 0.  0.
         -6    2    1    2    0  502  0.60909842023E+02 -0.18660773781E+02 -0.78065404900E+02  0.19713455383E+03  0.16943904962E+03 0.  0.
        -24    2    5    5    0    0  0.27575099610E+01 -0.23585065626E+02 -0.10610255600E+03  0.13221834463E+03  0.75233497088E+02 0.  0.
          5    1    3    3  501    0 -0.30241688401E+02  0.49047481995E+02  0.49712187652E+02  0.76247011801E+02  0.47000000000E+01 0. -1.
        -13    1    4    4    0    0  0.10706950538E+02 -0.45667750238E+02 -0.24814241013E+02  0.53065325390E+02  0.00000000000E+00 0.  1.
         14    1    4    4    0    0 -0.41375104160E+02  0.15281042024E+02 -0.32515365380E+02  0.54796518826E+02  0.00000000000E+00 0. -1.
         -5    1    5    5    0  502  0.58152332062E+02  0.49242918456E+01  0.28037151104E+02  0.64916209197E+02  0.47000000000E+01 0.  1.
         11    1    6    6    0    0  0.24471434225E+02  0.80817148842E+01 -0.84109900917E+02  0.87969543825E+02  0.00000000000E+00 0. -1.
        -12    1    6    6    0    0 -0.21713924264E+02 -0.31666780511E+02 -0.21992655087E+02  0.44248800805E+02  0.00000000000E+00 0.  1.
</event>
<event>
12    1  0.9873238E-001  0.1799642E+03  0.7818608E-02  0.1168112E+00
         21   -1    0    0  503  502  0.00000000000E+00  0.00000000000E+00  0.13807966878E+03  0.13807966878E+03  0.00000000000E+00 0.  1.
         21   -1    0    0  501  503 -0.00000000000E+00 -0.00000000000E+00 -0.27308484447E+03  0.27308484447E+03  0.00000000000E+00 0.  1.
          6    2    1    2  501    0 -0.41327029511E+02  0.30982990509E+02 -0.14636589432E+03  0.23196999901E+03  0.17239268068E+03 0.  0.
         24    2    3    3    0    0 -0.89294160603E+02  0.26910851263E+02 -0.69166882386E+02  0.14087002411E+03  0.79766315205E+02 0.  0.
         -6    2    1    2    0  502  0.41327029511E+02 -0.30982990509E+02  0.11360718630E+02  0.17919451424E+03  0.17121255485E+03 0.  0.
        -24    2    5    5    0    0 -0.28289741108E+02  0.47718050802E+01  0.44141606025E+02  0.94214653469E+02  0.78133475349E+02 0.  0.
          5    1    3    3  501    0  0.47967131092E+02  0.40721392460E+01 -0.77199011932E+02  0.91099974898E+02  0.47000000000E+01 0. -1.
        -11    1    4    4    0    0 -0.10332528921E+01  0.27920623799E+02  0.12327208070E+01  0.27966916981E+02  0.00000000000E+00 0.  1.
         12    1    4    4    0    0 -0.88260907711E+02 -0.10097725352E+01 -0.70399603193E+02  0.11290310713E+03  0.00000000000E+00 0. -1.
         -5    1    5    5    0  502  0.69616770620E+02 -0.35754795590E+02 -0.32780887395E+02  0.84979860776E+02  0.47000000000E+01 0.  1.
         13    1    6    6    0    0 -0.19755371931E+02 -0.35736290630E+02  0.29215668615E+02  0.50208689295E+02  0.00000000000E+00 0. -1.
        -14    1    6    6    0    0 -0.85343691779E+01  0.40508095710E+02  0.14925937410E+02  0.44005964174E+02  0.00000000000E+00 0.  1.
</event>
<event>
12    1  0.9873238E-001  0.1924617E+03  0.7818608E-02  0.1156530E+00
         21   -1    0    0  503  502  0.00000000000E+00  0.00000000000E+00  0.98540950844E+02  0.98540950844E+02  0.00000000000E+00 0.  1.
         21   -1    0    0  501  503 -0.00000000000E+00 -0.00000000000E+00 -0.43460853717E+03  0.43460853717E+03  0.00000000000E+00 0.  1.
          6    2    1    2  501    0  0.57298107536E+02  0.62705154741E+02 -0.68559349048E+02  0.20430831414E+03  0.17270348383E+03 0.  0.
         24    2    3    3    0    0 -0.60767434904E+01  0.88603881139E+02 -0.56473688752E+02  0.13462855412E+03  0.83952340646E+02 0.  0.
         -6    2    1    2    0  502 -0.57298107536E+02 -0.62705154741E+02 -0.26750823728E+03  0.32884117387E+03  0.17135008334E+03 0.  0.
        -24    2    5    5    0    0 -0.57282186042E+02 -0.10069066297E+03 -0.24881934618E+03  0.28624699892E+03  0.81279880121E+02 0.  0.
          5    1    3    3  501    0  0.63374851026E+02 -0.25898726398E+02 -0.12085660296E+02  0.69679760020E+02  0.47000000000E+01 0. -1.
        -11    1    4    4    0    0  0.13510194248E+02 -0.12895285339E+02 -0.11198217919E+02  0.21776450977E+02  0.00000000000E+00 0.  1.
         12    1    4    4    0    0 -0.19586937738E+02  0.10149916648E+03 -0.45275470833E+02  0.11285210315E+03  0.00000000000E+00 0. -1.
         -5    1    5    5    0  502 -0.15921494202E-01  0.37985508229E+02 -0.18688891098E+02  0.42594174946E+02  0.47000000000E+01 0.  1.
         11    1    6    6    0    0  0.86553926606E+01 -0.43696113416E+02 -0.13948501474E+03  0.14642518734E+03  0.00000000000E+00 0. -1.
        -12    1    6    6    0    0 -0.65937578703E+02 -0.56994549554E+02 -0.10933433144E+03  0.13982181159E+03  0.00000000000E+00 0.  1.
</event>
<event>
12    1  0.9873238E-001  0.1883710E+03  0.7818608E-02  0.1162072E+00
         21   -1    0    0  501  502  0.00000000000E+00  0.00000000000E+00  0.43663992372E+03  0.43663992372E+03  0.00000000000E+00 0. -1.
         21   -1    0    0  502  503 -0.00000000000E+00 -0.00000000000E+00 -0.77502020288E+02  0.77502020288E+02  0.00000000000E+00 0. -1.
         -6    2    1    2    0  503 -0.52113706069E+02 -0.11524142385E+02  0.18518789026E+03  0.25773942457E+03  0.17113273230E+03 0.  0.
        -24    2    3    3    0    0 -0.67142522607E+02 -0.10328458121E+02  0.41359377594E+02  0.11304655660E+03  0.80337602997E+02 0.  0.
          6    2    1    2  501    0  0.52113706069E+02  0.11524142385E+02  0.17395001317E+03  0.25640251943E+03  0.18065160024E+03 0.  0.
         24    2    5    5    0    0  0.95244416316E+02  0.24781780020E+02  0.76123195782E+02  0.14856839068E+03  0.81192304521E+02 0.  0.
          5    1    5    5  501    0 -0.43130710248E+02 -0.13257637635E+02  0.97826817390E+02  0.10783412875E+03  0.47000000000E+01 0. -1.
        -13    1    6    6    0    0  0.14385655266E+02  0.42408042665E+02  0.28627890087E+02  0.53150214026E+02  0.00000000000E+00 0.  1.
         14    1    6    6    0    0  0.80858761050E+02 -0.17626262645E+02  0.47495305694E+02  0.95418176656E+02  0.00000000000E+00 0. -1.
         -5    1    3    3    0  503  0.15028816539E+02 -0.11956842644E+01  0.14382851266E+03  0.14469286797E+03  0.47000000000E+01 0.  1.
         11    1    4    4    0    0 -0.80856195909E+02  0.43335900435E+01  0.45010304869E+02  0.92641416029E+02  0.00000000000E+00 0. -1.
        -12    1    4    4    0    0  0.13713673301E+02 -0.14662048165E+02 -0.36509272751E+01  0.20405140572E+02  0.00000000000E+00 0.  1.
</event>
<event>
12    1  0.9873238E-001  0.1852725E+03  0.7818608E-02  0.1165755E+00
         21   -1    0    0  501  502  0.00000000000E+00  0.00000000000E+00  0.14028336322E+04  0.14028336322E+04  0.00000000000E+00 0. -1.
         21   -1    0    0  502  503 -0.00000000000E+00 -0.00000000000E+00 -0.23335991599E+02  0.23335991599E+02  0.00000000000E+00 0. -1.
         -6    2    1    2    0  503 -0.35172408801E+01 -0.64862692305E+02  0.81262135326E+03  0.83347426341E+03  0.17351179829E+03 0.  0.
        -24    2    3    3    0    0  0.64683384347E+02 -0.89110243540E+01  0.43663336811E+03  0.44724768560E+03  0.71543326437E+02 0.  0.
          6    2    1    2  501    0  0.35172408801E+01  0.64862692305E+02  0.56687628731E+03  0.59269536036E+03  0.16037308143E+03 0.  0.
         24    2    5    5    0    0 -0.33328563872E+02  0.90242731454E+02  0.45839732387E+03  0.47525799313E+03  0.80545078985E+02 0.  0.
          5    1    5    5  501    0  0.36845804752E+02 -0.25380039149E+02  0.10847896343E+03  0.11743736723E+03  0.47000000000E+01 0. -1.
        -13    1    6    6    0    0 -0.40594447917E+02  0.39069912341E+02  0.11574559493E+03  0.12872998873E+03  0.00000000000E+00 0.  1.
         14    1    6    6    0    0  0.72658840453E+01  0.51172819114E+02  0.34265172894E+03  0.34652800440E+03  0.00000000000E+00 0. -1.
         -5    1    3    3    0  503 -0.68200625227E+02 -0.55951667951E+02  0.37598798515E+03  0.38622657781E+03  0.47000000000E+01 0.  1.
         11    1    4    4    0    0 -0.50027972990E+01  0.16641786554E+02  0.15599386012E+03  0.15695878897E+03  0.00000000000E+00 0. -1.
        -12    1    4    4    0    0  0.69686181646E+02 -0.25552810908E+02  0.28063950799E+03  0.29028889663E+03  0.00000000000E+00 0.  1.
</event>
<event>
12    1  0.9873238E-001  0.1969205E+03  0.7818608E-02  0.1152554E+00
         21   -1    0    0  503  502  0.00000000000E+00  0.00000000000E+00  0.63745460675E+03  0.63745460675E+03  0.00000000000E+00 0. -1.
         21   -1    0    0  501  503 -0.00000000000E+00 -0.00000000000E+00 -0.84700239337E+02  0.84700239337E+02  0.00000000000E+00 0. -1.
          6    2    1    2  501    0  0.61307083100E+02 -0.70600195933E+02  0.46958482730E+03  0.50920289535E+03  0.17330531584E+03 0.  0.
         24    2    3    3    0    0  0.24120555816E+02 -0.11287936410E+03  0.35548839821E+03  0.38188262593E+03  0.78350409550E+02 0.  0.
         -6    2    1    2    0  502 -0.61307083100E+02  0.70600195933E+02  0.83169540117E+02  0.21295195074E+03  0.17230326410E+03 0.  0.
        -24    2    5    5    0    0  0.14007916806E+02  0.85928637292E+02  0.43896130966E+02  0.12651237074E+03  0.80613629093E+02 0.  0.
          5    1    3    3  501    0  0.37186527284E+02  0.42279168168E+02  0.11409642909E+03  0.12732026941E+03  0.47000000000E+01 0. -1.
        -13    1    4    4    0    0  0.47578613619E+02 -0.84292068618E+02  0.29976828183E+03  0.31500777784E+03  0.00000000000E+00 0.  1.
         14    1    4    4    0    0 -0.23458057802E+02 -0.28587295483E+02  0.55720116378E+02  0.66874848097E+02  0.00000000000E+00 0. -1.
         -5    1    5    5    0  502 -0.75314999906E+02 -0.15328441359E+02  0.39273409152E+02  0.86439580007E+02  0.47000000000E+01 0.  1.
         13    1    6    6    0    0  0.32204257624E+02  0.17519736698E+02  0.41930345162E+02  0.55697479552E+02  0.00000000000E+00 0. -1.
        -14    1    6    6    0    0 -0.18196340818E+02  0.68408900594E+02  0.19657858037E+01  0.70814891185E+02  0.00000000000E+00 0.  1.
</event>
<event>
12    1  0.9873238E-001  0.1789574E+03  0.7818608E-02  0.1169137E+00
         21   -1    0    0  501  502  0.00000000000E+00  0.00000000000E+00  0.56601605425E+03  0.56601605425E+03  0.00000000000E+00 0. -1.
         21   -1    0    0  502  503 -0.00000000000E+00 -0.00000000000E+00 -0.56275443839E+02  0.56275443839E+02  0.00000000000E+00 0. -1.
         -6    2    1    2    0  503 -0.29918881059E+01  0.45100892306E+02  0.24211989487E+03  0.30107774731E+03  0.17315520366E+03 0.  0.
        -24    2    3    3    0    0 -0.31086179390E+01  0.59992099536E+02  0.56392904067E+02  0.11469543380E+03  0.79788266006E+02 0.  0.
          6    2    1    2  501    0  0.29918881059E+01 -0.45100892306E+02  0.26762071554E+03  0.32121375078E+03  0.17179750994E+03 0.  0.
         24    2    5    5    0    0  0.13003548898E+02  0.10439561045E+02  0.47449751857E+02  0.93876295527E+02  0.79266658765E+02 0.  0.
          5    1    5    5  501    0 -0.10011660792E+02 -0.55540453351E+02  0.22017096368E+03  0.22733745525E+03  0.47000000000E+01 0. -1.
        -11    1    6    6    0    0 -0.26030904316E+02 -0.18117256400E+02  0.25813356935E+02  0.40892204089E+02  0.00000000000E+00 0.  1.
         12    1    6    6    0    0  0.39034453214E+02  0.28556817445E+02  0.21636394923E+02  0.52984091438E+02  0.00000000000E+00 0. -1.
         -5    1    3    3    0  503  0.11672983309E+00 -0.14891207229E+02  0.18572699080E+03  0.18638231352E+03  0.47000000000E+01 0.  1.
         13    1    4    4    0    0 -0.11858012866E+01 -0.18139605367E+02  0.23965530593E+02  0.30079861439E+02  0.00000000000E+00 0. -1.
        -14    1    4    4    0    0 -0.19228166524E+01  0.78131704903E+02  0.32427373473E+02  0.84615572357E+02  0.00000000000E+00 0.  1.
</event>
<event>
12    1  0.9873238E-001  0.3017795E+03  0.7818608E-02  0.1084420E+00
         21   -1    0    0  503  502  0.00000000000E+00  0.00000000000E+00  0.50918803264E+03  0.50918803264E+03  0.00000000000E+00 0.  1.
         21   -1    0    0  501  503 -0.00000000000E+00 -0.00000000000E+00 -0.25654854165E+03  0.25654854165E+03  0.00000000000E+00 0.  1.
          6    2    1    2  501    0  0.24203561811E+03  0.51170783108E+02 -0.84721304220E+02  0.31344627825E+03  0.17283281078E+03 0.  0.
         24    2    3    3    0    0  0.59625379478E+02  0.52974679806E+02 -0.45551938459E+01  0.11413384900E+03  0.81512472159E+02 0.  0.
         -6    2    1    2    0  502 -0.24203561811E+03 -0.51170783108E+02  0.33736079521E+03  0.45229029604E+03  0.17191427011E+03 0.  0.
        -24    2    5    5    0    0 -0.22672923333E+03  0.72826028767E+01  0.27519775001E+03  0.36547199189E+03  0.79854828838E+02 0.  0.
          5    1    3    3  501    0  0.18241023863E+03 -0.18038966979E+01 -0.80166110374E+02  0.19931242925E+03  0.47000000000E+01 0. -1.
        -11    1    4    4    0    0 -0.31978682655E+01 -0.12586845334E+02 -0.18151820975E+02  0.22319131740E+02  0.00000000000E+00 0.  1.
         12    1    4    4    0    0  0.62823247744E+02  0.65561525140E+02  0.13596627129E+02  0.91814717257E+02  0.00000000000E+00 0. -1.
         -5    1    5    5    0  502 -0.15306384781E+02 -0.58453385985E+02  0.62163045195E+02  0.86818304153E+02  0.47000000000E+01 0.  1.
         13    1    6    6    0    0 -0.19824737270E+03  0.12329941675E+01  0.27141571382E+03  0.33611014678E+03  0.00000000000E+00 0. -1.
        -14    1    6    6    0    0 -0.28481860626E+02  0.60496087092E+01  0.37820361921E+01  0.29361845106E+02  0.00000000000E+00 0.  1.
</event>
<event>
12    1  0.9873238E-001  0.1939473E+03  0.7818608E-02  0.1155899E+00
         21   -1    0    0  503  502  0.00000000000E+00  0.00000000000E+00  0.36619465337E+03  0.36619465337E+03  0.00000000000E+00 0.  1.
         21   -1    0    0  501  503 -0.00000000000E+00 -0.00000000000E+00 -0.11496063035E+03  0.11496063035E+03  0.00000000000E+00 0.  1.
          6    2    1    2  501    0  0.96443527865E+01 -0.76817634092E+02  0.20980822112E+03  0.28283316269E+03  0.17315064488E+03 0.  0.
         24    2    3    3    0    0 -0.17952701042E+02 -0.81539257170E+02  0.58896516573E+02  0.12927430208E+03  0.79196562925E+02 0.  0.
         -6    2    1    2    0  502 -0.96443527865E+01  0.76817634092E+02  0.41425801911E+02  0.19832212103E+03  0.17782464446E+03 0.  0.
        -24    2    5    5    0    0 -0.69433934643E+02  0.62528807478E+02  0.45889111379E+02  0.13650807896E+03  0.88304711283E+02 0.  0.
          5    1    3    3  501    0  0.27597053829E+02  0.47216230782E+01  0.15091170454E+03  0.15355886061E+03  0.47000000000E+01 0. -1.
        -13    1    4    4    0    0 -0.48663190689E+02 -0.56882526998E+02  0.45860598809E+02  0.87789079781E+02  0.00000000000E+00 0.  1.
         14    1    4    4    0    0  0.30710489647E+02 -0.24656730173E+02  0.13035917764E+02  0.41485222298E+02  0.00000000000E+00 0. -1.
         -5    1    5    5    0  502  0.59789581856E+02  0.14288826614E+02 -0.44633094673E+01  0.61814042061E+02  0.47000000000E+01 0.  1.
         11    1    6    6    0    0  0.60288199001E+01 -0.15218720306E+02 -0.45571070022E+01  0.16991861033E+02  0.00000000000E+00 0. -1.
        -12    1    6    6    0    0 -0.75462754543E+02  0.77747527784E+02  0.50446218381E+02  0.11951621793E+03  0.00000000000E+00 0.  1.
</event>
<event>
12    1  0.9873238E-001  0.2568217E+03  0.7818608E-02  0.1109096E+00
         21   -1    0    0  501  502  0.00000000000E+00  0.00000000000E+00  0.49860147869E+03  0.49860147869E+03  0.00000000000E+00 0. -1.
         21   -1    0    0  502  503 -0.00000000000E+00 -0.00000000000E+00 -0.39284641190E+03  0.39284641190E+03  0.00000000000E+00 0. -1.
         -6    2    1    2    0  503  0.20628769877E+02  0.19067676938E+03  0.41595133097E+03  0.48884852176E+03  0.17080454023E+03 0.  0.
        -24    2    3    3    0    0 -0.51227443118E+02  0.11412228817E+03  0.28055694771E+03  0.31744947580E+03  0.80086335842E+02 0.  0.
          6    2    1    2  501    0 -0.20628769877E+02 -0.19067676938E+03 -0.31019626417E+03  0.40259936883E+03  0.17053255684E+03 0.  0.
         24    2    5    5    0    0 -0.67989389777E+02 -0.17869590115E+03 -0.23901541860E+03  0.31613913347E+03  0.79125211991E+02 0.  0.
          5    1    5    5  501    0  0.47360619899E+02 -0.11980868230E+02 -0.71180845578E+02  0.86460235357E+02  0.47000000000E+01 0. -1.
        -13    1    6    6    0    0 -0.23191758395E+00 -0.69739131645E+02 -0.13105152282E+03  0.14845235567E+03  0.00000000000E+00 0.  1.
         14    1    6    6    0    0 -0.67757472193E+02 -0.10895676951E+03 -0.10796389577E+03  0.16768677780E+03  0.00000000000E+00 0. -1.
         -5    1    3    3    0  503  0.71856212995E+02  0.76554481210E+02  0.13539438326E+03  0.17139904596E+03  0.47000000000E+01 0.  1.
         11    1    4    4    0    0 -0.30373802088E+02  0.11320767427E+01  0.89324228649E+02  0.94353946790E+02  0.00000000000E+00 0. -1.
        -12    1    4    4    0    0 -0.20853641029E+02  0.11299021143E+03  0.19123271906E+03  0.22309552901E+03  0.00000000000E+00 0.  1.
</event>
<event>
12    1  0.9873238E-001  0.1987818E+03  0.7818608E-02  0.1151227E+00
         21   -1    0    0  501  502  0.00000000000E+00  0.00000000000E+00  0.84653918016E+02  0.84653918016E+02  0.00000000000E+00 0.  1.
         21   -1    0    0  502  503 -0.00000000000E+00 -0.00000000000E+00 -0.10993503912E+04  0.10993503912E+04  0.00000000000E+00 0.  1.
         -6    2    1    2    0  503 -0.92608797522E+02 -0.15414268449E+02 -0.95932924402E+03  0.97970750409E+03  0.17521474281E+03 0.  0.
        -24    2    3    3    0    0 -0.77378975095E+02  0.35939363254E+02 -0.85027848036E+03  0.85812090107E+03  0.78223034155E+02 0.  0.
          6    2    1    2  501    0  0.92608797522E+02  0.15414268449E+02 -0.55367229212E+02  0.20429680517E+03  0.17279370788E+03 0.  0.
         24    2    5    5    0    0  0.10139626726E+03  0.62868543237E+02 -0.21877859995E+02  0.14536671378E+03  0.80119810126E+02 0.  0.
          5    1    5    5  501    0 -0.87874697406E+01 -0.47454274788E+02 -0.33489369217E+02  0.58930091385E+02  0.47000000000E+01 0. -1.
        -13    1    6    6    0    0  0.10659744985E+02 -0.21921284617E+01 -0.31475395393E+02  0.33303695073E+02  0.00000000000E+00 0.  1.
         14    1    6    6    0    0  0.90736522278E+02  0.65060671699E+02  0.95975353979E+01  0.11206301871E+03  0.00000000000E+00 0. -1.
         -5    1    3    3    0  503 -0.15229822427E+02 -0.51353631703E+02 -0.10905076366E+03  0.12158660303E+03  0.47000000000E+01 0.  1.
         11    1    4    4    0    0 -0.36833188076E+01 -0.21623446190E+01 -0.49775889933E+00  0.43000390244E+01  0.00000000000E+00 0. -1.
        -12    1    4    4    0    0 -0.73695656287E+02  0.38101707873E+02 -0.84978072146E+03  0.85382086204E+03  0.00000000000E+00 0.  1.
</event>
<event>
12    1  0.9873238E-001  0.6014369E+03  0.7818608E-02  0.9902616E-01
         21   -1    0    0  501  502  0.00000000000E+00  0.00000000000E+00  0.14061038285E+04  0.14061038285E+04  0.00000000000E+00 0. -1.
         21   -1    0    0  502  503 -0.00000000000E+00 -0.00000000000E+00 -0.25796581733E+03  0.25796581733E+03  0.00000000000E+00 0.  1.
         -6    2    1    2    0  503 -0.47766548793E+03  0.32182951904E+03  0.52569869912E+03  0.79853105831E+03  0.17191326635E+03 0.  0.
        -24    2    3    3    0    0 -0.38587708928E+03  0.27040931953E+03  0.34461299021E+03  0.58904771526E+03  0.78719563720E+02 0.  0.
          6    2    1    2  501    0  0.47766548793E+03 -0.32182951904E+03  0.62243931205E+03  0.86553858752E+03  0.17316983463E+03 0.  0.
         24    2    5    5    0    0  0.17885739479E+03 -0.19625492845E+03  0.30169411845E+03  0.40951794814E+03  0.78610712557E+02 0.  0.
          5    1    5    5  501    0  0.29880809314E+03 -0.12557459058E+03  0.32074519360E+03  0.45602063938E+03  0.47000000000E+01 0. -1.
        -11    1    6    6    0    0  0.41783505784E+02 -0.44635799502E+02  0.26291741422E+02  0.66554275744E+02  0.00000000000E+00 0.  1.
         12    1    6    6    0    0  0.13707388901E+03 -0.15161912895E+03  0.27540237703E+03  0.34296367240E+03  0.00000000000E+00 0. -1.
         -5    1    3    3    0  503 -0.91788398645E+02  0.51420199511E+02  0.18108570891E+03  0.20948334305E+03  0.47000000000E+01 0.  1.
         13    1    4    4    0    0 -0.33084629145E+03  0.21764431206E+03  0.31933313617E+03  0.50872582694E+03  0.00000000000E+00 0. -1.
        -14    1    4    4    0    0 -0.55030797838E+02  0.52765007469E+02  0.25279854037E+02  0.80321888325E+02  0.00000000000E+00 0.  1.
</event>
<event>
12    1  0.9873238E-001  0.2696339E+03  0.7818608E-02  0.1101571E+00
         21   -1    0    0  503  502  0.00000000000E+00  0.00000000000E+00  0.62512631175E+03  0.62512631175E+03  0.00000000000E+00 0. -1.
         21   -1    0    0  501  503 -0.00000000000E+00 -0.00000000000E+00 -0.12074414307E+03  0.12074414307E+03  0.00000000000E+00 0. -1.
          6    2    1    2  501    0 -0.59664111691E+02  0.19808817664E+03  0.32543366471E+03  0.42225799880E+03  0.17203492516E+03 0.  0.
         24    2    3    3    0    0  0.25524745718E+02  0.13412892340E+03  0.22838143282E+03  0.27807355714E+03  0.80775884934E+02 0.  0.
         -6    2    1    2    0  502  0.59664111691E+02 -0.19808817664E+03  0.17894850397E+03  0.32361245602E+03  0.17292692870E+03 0.  0.
        -24    2    5    5    0    0 -0.26947341014E+02 -0.13753106183E+03  0.85413830449E+02  0.18240504458E+03  0.79593502887E+02 0.  0.
          5    1    3    3  501    0 -0.85188857409E+02  0.63959253240E+02  0.97052231887E+02  0.14418444166E+03  0.47000000000E+01 0. -1.
        -11    1    4    4    0    0 -0.11478131009E+02  0.47051943012E+02  0.26703716124E+02  0.55305707549E+02  0.00000000000E+00 0.  1.
         12    1    4    4    0    0  0.37002876727E+02  0.87076980392E+02  0.20167771670E+03  0.22276784959E+03  0.00000000000E+00 0. -1.
         -5    1    5    5    0  502  0.86611452705E+02 -0.60557114814E+02  0.93534673519E+02  0.14120741144E+03  0.47000000000E+01 0.  1.
         11    1    6    6    0    0  0.20193503633E+02 -0.91522719184E+01  0.23420459202E+02  0.32249954721E+02  0.00000000000E+00 0. -1.
        -12    1    6    6    0    0 -0.47140844647E+02 -0.12837878991E+03  0.61993371247E+02  0.15015508986E+03  0.00000000000E+00 0.  1.
</event>
<event>
12    1  0.9873238E-001  0.2543373E+03  0.7818608E-02  0.1110791E+00
         21   -1    0    0  503  502  0.00000000000E+00  0.00000000000E+00  0.71034605042E+02  0.71034605042E+02  0.00000000000E+00 0.  1.
         21   -1    0    0  501  503 -0.00000000000E+00 -0.00000000000E+00 -0.12905735579E+04  0.12905735579E+04  0.00000000000E+00 0.  1.
          6    2    1    2  501    0 -0.44674835612E+02  0.18127873213E+03 -0.23711248746E+03  0.34679329060E+03  0.17083745210E+03 0.  0.
         24    2    3    3    0    0  0.47136417609E+01  0.53656547032E+02 -0.16647999504E+03  0.19272290795E+03  0.80779248819E+02 0.  0.
         -6    2    1    2    0  502  0.44674835612E+02 -0.18127873213E+03 -0.98242646543E+03  0.10148148724E+04  0.17271260967E+03 0.  0.
        -24    2    5    5    0    0 -0.40469034381E+02 -0.11824442334E+03 -0.59952342217E+03  0.61749933879E+03  0.79105077481E+02 0.  0.
          5    1    3    3  501    0 -0.49388477373E+02  0.12762218510E+03 -0.70632492412E+02  0.15407038266E+03  0.47000000000E+01 0. -1.
        -13    1    4    4    0    0 -0.23569191631E+02 -0.90049775087E+01 -0.68755521327E+02  0.73238774751E+02  0.00000000000E+00 0.  1.
         14    1    4    4    0    0  0.28282833392E+02  0.62661524541E+02 -0.97724473718E+02  0.11948413320E+03  0.00000000000E+00 0. -1.
         -5    1    5    5    0  502  0.85143869993E+02 -0.63034308791E+02 -0.38290304327E+03  0.39731553358E+03  0.47000000000E+01 0.  1.
         13    1    6    6    0    0 -0.57597704696E+02 -0.11620134471E+03 -0.50326817391E+03  0.51971059540E+03  0.00000000000E+00 0. -1.
        -14    1    6    6    0    0  0.17128670316E+02 -0.20430786349E+01 -0.96255248255E+02  0.97788743390E+02  0.00000000000E+00 0.  1.
</event>
<event>
12    1  0.9873238E-001  0.1720488E+03  0.7818608E-02  0.1175847E+00
         21   -1    0    0  501  502  0.00000000000E+00  0.00000000000E+00  0.12570713580E+03  0.12570713580E+03  0.00000000000E+00 0.  1.
         21   -1    0    0  502  503 -0.00000000000E+00 -0.00000000000E+00 -0.27303109696E+03  0.27303109696E+03  0.00000000000E+00 0.  1.
         -6    2    1    2    0  503  0.69148531090E+00 -0.29628702088E+01  0.81677307710E+00  0.17205071547E+03  0.17202187309E+03 0.  0.
        -24    2    3    3    0    0  0.41332910396E+02 -0.16185245958E+02  0.49813685081E+02  0.10686372260E+03  0.83475028109E+02 0.  0.
          6    2    1    2  501    0 -0.69148531090E+00  0.29628702088E+01 -0.14814073424E+03  0.22668751729E+03  0.17155843495E+03 0.  0.
         24    2    5    5    0    0  0.96022146185E+01 -0.48264070774E+01 -0.21767432656E+01  0.80078480188E+02  0.79324195850E+02 0.  0.
          5    1    5    5  501    0 -0.10293699929E+02  0.77892772862E+01 -0.14596399097E+03  0.14660903710E+03  0.47000000000E+01 0. -1.
        -11    1    6    6    0    0  0.35128048151E+02 -0.28442572656E+02  0.48705770958E+00  0.45201735934E+02  0.00000000000E+00 0.  1.
         12    1    6    6    0    0 -0.25525833533E+02  0.23616165579E+02 -0.26638009751E+01  0.34876744255E+02  0.00000000000E+00 0. -1.
         -5    1    3    3    0  503 -0.40641425085E+02  0.13222375750E+02 -0.48996912003E+02  0.65186992869E+02  0.47000000000E+01 0.  1.
         13    1    4    4    0    0  0.19781502380E+02  0.19599955273E+02 -0.13550175776E+02  0.30968909355E+02  0.00000000000E+00 0. -1.
        -14    1    4    4    0    0  0.21551408016E+02 -0.35785201231E+02  0.63363860856E+02  0.75894813244E+02  0.00000000000E+00 0.  1.
</event>
<event>
12    1  0.9873238E-001  0.1730133E+03  0.7818608E-02  0.1174746E+00
         21   -1    0    0  501  502  0.00000000000E+00  0.00000000000E+00  0.20687695637E+03  0.20687695637E+03  0.00000000000E+00 0. -1.
         21   -1    0    0  502  503 -0.00000000000E+00 -0.00000000000E+00 -0.14966166884E+03  0.14966166884E+03  0.00000000000E+00 0. -1.
         -6    2    1    2    0  503 -0.12958957282E+02 -0.15417949272E+02  0.61136088081E+02  0.18348093890E+03  0.17181963200E+03 0.  0.
        -24    2    3    3    0    0 -0.27593554568E+01  0.21482101964E+02 -0.27452798380E+02  0.86859375763E+02  0.79509749539E+02 0.  0.
          6    2    1    2  501    0  0.12958957282E+02  0.15417949272E+02 -0.39208005449E+01  0.17305768631E+03  0.17183696453E+03 0.  0.
         24    2    5    5    0    0  0.88009256452E+01  0.19953315726E+02 -0.69862587853E+02  0.10666289668E+03  0.77592533443E+02 0.  0.
          5    1    5    5  501    0  0.41580316372E+01 -0.45353664538E+01  0.65941787309E+02  0.66394789625E+02  0.47000000000E+01 0. -1.
        -13    1    6    6    0    0 -0.34195644201E+02  0.13708623855E+02 -0.36737476513E+02  0.52027979308E+02  0.00000000000E+00 0.  1.
         14    1    6    6    0    0  0.42996569846E+02  0.62446918714E+01 -0.33125111341E+02  0.54634917374E+02  0.00000000000E+00 0. -1.
         -5    1    3    3    0  503 -0.10199601826E+02 -0.36900051236E+02  0.88588886461E+02  0.96621563137E+02  0.47000000000E+01 0.  1.
         13    1    4    4    0    0 -0.13377570866E+02  0.48231921566E+02 -0.48935993735E+01  0.50291400607E+02  0.00000000000E+00 0. -1.
        -14    1    4    4    0    0  0.10618215409E+02 -0.26749819602E+02 -0.22559199007E+02  0.36567975156E+02  0.00000000000E+00 0.  1.
</event>
<event>
12    1  0.1113625E+000  0.2701022E+03  0.7818608E-02  0.1101282E+00
         21   -1    0    0  501  502  0.00000000000E+00  0.00000000000E+00  0.11638593871E+03  0.11638593871E+03  0.00000000000E+00 0. -1.
         21   -1    0    0  502  503 -0.00000000000E+00 -0.00000000000E+00 -0.15500883532E+04  0.15500883532E+04  0.00000000000E+00 0. -1.
         -6    2    1    2    0  503  0.16544912248E+03 -0.12584005992E+03 -0.73678582118E+02  0.27997094856E+03  0.17247047794E+03 0.  0.
        -24    2    3    3    0    0  0.25900833852E+02 -0.19247857055E+02  0.95913427713E+01  0.85570349376E+02  0.78669928440E+02 0.  0.
          6    2    1    2  501    0 -0.16544912248E+03  0.12584005992E+03 -0.13600238324E+04  0.13865033434E+04  0.17180676269E+03 0.  0.
         24    2    5    5    0    0 -0.99532950426E+02  0.12075884837E+03 -0.12052406275E+04  0.12181267091E+04  0.82086549439E+02 0.  0.
          5    1    5    5  501    0 -0.65916172051E+02  0.50812115576E+01 -0.15478320489E+03  0.16837663426E+03  0.47000000000E+01 0. -1.
        -11    1    6    6    0    0 -0.10104120120E+03  0.95727306260E+02 -0.79287259162E+03  0.80499688698E+03  0.00000000000E+00 0.  1.
         12    1    6    6    0    0  0.15082507765E+01  0.25031542105E+02 -0.41236803588E+03  0.41312982214E+03  0.00000000000E+00 0. -1.
         -5    1    3    3    0  503  0.13954828863E+03 -0.10659220287E+03 -0.83269924889E+02  0.19440059918E+03  0.47000000000E+01 0.  1.
         13    1    4    4    0    0 -0.16488993147E+02 -0.28342694416E+02 -0.14633066853E+02  0.35907128364E+02  0.00000000000E+00 0. -1.
        -14    1    4    4    0    0  0.42389826999E+02  0.90948373614E+01  0.24224409625E+02  0.49663221012E+02  0.00000000000E+00 0.  1.
</event>
<event>
12    1  0.9873238E-001  0.2257779E+03  0.7818608E-02  0.1129669E+00
         21   -1    0    0  501  502  0.00000000000E+00  0.00000000000E+00  0.62363832105E+03  0.62363832105E+03  0.00000000000E+00 0. -1.
         21   -1    0    0  502  503 -0.00000000000E+00 -0.00000000000E+00 -0.11123047036E+03  0.11123047036E+03  0.00000000000E+00 0. -1.
         -6    2    1    2    0  503 -0.13791551320E+03  0.45880954750E+02  0.44549034107E+03  0.49938287121E+03  0.17261476551E+03 0.  0.
        -24    2    3    3    0    0 -0.92731025982E+02 -0.29653300634E+02  0.24125744918E+03  0.27694136035E+03  0.94936815136E+02 0.  0.
          6    2    1    2  501    0  0.13791551320E+03 -0.45880954750E+02  0.66917509618E+02  0.23548592021E+03  0.17277127867E+03 0.  0.
         24    2    5    5    0    0  0.15436990498E+03 -0.52025369858E+02  0.94200249098E+02  0.20269966212E+03  0.75344272668E+02 0.  0.
          5    1    5    5  501    0 -0.16454391773E+02  0.61444151085E+01 -0.27282739480E+02  0.32786258084E+02  0.47000000000E+01 0. -1.
        -13    1    6    6    0    0  0.44459305963E+02  0.18795056658E+02  0.31958110186E+02  0.57889591882E+02  0.00000000000E+00 0.  1.
         14    1    6    6    0    0  0.10991059901E+03 -0.70820426516E+02  0.62242138911E+02  0.14481007024E+03  0.00000000000E+00 0. -1.
         -5    1    3    3    0  503 -0.45184487220E+02  0.75534255383E+02  0.20423289190E+03  0.22244151086E+03  0.47000000000E+01 0.  1.
         13    1    4    4    0    0 -0.13846689708E+02  0.28646964402E+02  0.10020248224E+03  0.10513285325E+03  0.00000000000E+00 0. -1.
        -14    1    4    4    0    0 -0.78884336274E+02 -0.58300265036E+02  0.14105496693E+03  0.17180850709E+03  0.00000000000E+00 0.  1.
</event>
<event>
12    1  0.9873238E-001  0.2785795E+03  0.7818608E-02  0.1097062E+00
         21   -1    0    0  501  502  0.00000000000E+00  0.00000000000E+00  0.30547585593E+03  0.30547585593E+03  0.00000000000E+00 0. -1.
         21   -1    0    0  502  503 -0.00000000000E+00 -0.00000000000E+00 -0.28261981983E+03  0.28261981983E+03  0.00000000000E+00 0. -1.
         -6    2    1    2    0  503 -0.32276062909E+01 -0.21763815893E+03 -0.88315162183E+02  0.28815304249E+03  0.16690063619E+03 0.  0.
        -24    2    3    3    0    0  0.14901102498E+02 -0.15542309155E+03  0.28573536413E+01  0.17619821976E+03  0.81604337716E+02 0.  0.
          6    2    1    2  501    0  0.32276062909E+01  0.21763815893E+03  0.11117119828E+03  0.29994263327E+03  0.17386708217E+03 0.  0.
         24    2    5    5    0    0  0.64316816686E+02  0.12756754784E+03  0.33208279326E+02  0.16598400779E+03  0.77703081378E+02 0.  0.
          5    1    5    5  501    0 -0.61089210395E+02  0.90070611087E+02  0.77962918954E+02  0.13395862548E+03  0.47000000000E+01 0. -1.
        -11    1    6    6    0    0  0.88939693687E+01  0.77677286049E+01  0.31860397598E+02  0.33978305342E+02  0.00000000000E+00 0.  1.
         12    1    6    6    0    0  0.55422847318E+02  0.11979981924E+03  0.13478817278E+01  0.13200570245E+03  0.00000000000E+00 0. -1.
         -5    1    3    3    0  503 -0.18128708789E+02 -0.62215067382E+02 -0.91172515825E+02  0.11195482273E+03  0.47000000000E+01 0.  1.
         13    1    4    4    0    0  0.18785974885E+02 -0.10348702584E+02  0.20909293113E+02  0.29953414430E+02  0.00000000000E+00 0. -1.
        -14    1    4    4    0    0 -0.38848723872E+01 -0.14507438896E+03 -0.18051939471E+02  0.14624480533E+03  0.00000000000E+00 0.  1.
</event>
<event>
12    1  0.9873238E-001  0.4557495E+03  0.7818608E-02  0.1026040E+00
         21   -1    0    0  503  502  0.00000000000E+00  0.00000000000E+00  0.71883596747E+03  0.71883596747E+03  0.00000000000E+00 0.  1.
         21   -1    0    0  501  503 -0.00000000000E+00 -0.00000000000E+00 -0.29386033618E+03  0.29386033618E+03  0.00000000000E+00 0.  1.
          6    2    1    2  501    0  0.17535449496E+03  0.38421268892E+03  0.27898035190E+03  0.53413363694E+03  0.17058756150E+03 0.  0.
         24    2    3    3    0    0  0.10022071703E+03  0.17699017641E+03  0.21016169049E+03  0.30316967344E+03  0.79838587648E+02 0.  0.
         -6    2    1    2    0  502 -0.17535449496E+03 -0.38421268892E+03  0.14599527939E+03  0.47856266671E+03  0.17128635421E+03 0.  0.
        -24    2    5    5    0    0 -0.14742958601E+03 -0.17094607569E+03  0.59783679733E+02  0.24679343068E+03  0.79842754439E+02 0.  0.
          5    1    3    3  501    0  0.75133777923E+02  0.20722251251E+03  0.68818661410E+02  0.23096396350E+03  0.47000000000E+01 0. -1.
        -13    1    4    4    0    0  0.42379108200E+02  0.12629576328E+02  0.44937344256E+02  0.63046490139E+02  0.00000000000E+00 0.  1.
         14    1    4    4    0    0  0.57841608834E+02  0.16436060008E+03  0.16522434624E+03  0.24012318330E+03  0.00000000000E+00 0. -1.
         -5    1    5    5    0  502 -0.27924908948E+02 -0.21326661323E+03  0.86211599654E+02  0.23176923604E+03  0.47000000000E+01 0.  1.
         13    1    6    6    0    0 -0.85246680782E+02 -0.11923109044E+03  0.59630860410E+00  0.14657218391E+03  0.00000000000E+00 0. -1.
        -14    1    6    6    0    0 -0.62182905227E+02 -0.51714985252E+02  0.59187371129E+02  0.10022124677E+03  0.00000000000E+00 0.  1.
</event>
<event>
12    1  0.9873238E-001  0.1746158E+03  0.7818608E-02  0.1173727E+00
         21   -1    0    0  501  502  0.00000000000E+00  0.00000000000E+00  0.56864377756E+03  0.56864377756E+03  0.00000000000E+00 0. -1.
         21   -1    0    0  502  503 -0.00000000000E+00 -0.00000000000E+00 -0.62394488352E+02  0.62394488352E+02  0.00000000000E+00 0. -1.
         -6    2    1    2    0  503  0.53445402703E+01 -0.53501630881E+01  0.37481502699E+03  0.41248477818E+03  0.17204708490E+03 0.  0.
        -24    2    3    3    0    0 -0.51225079666E+02  0.33296015734E+02  0.18545093829E+03  0.21105365565E+03  0.80118422355E+02 0.  0.
          6    2    1    2  501    0 -0.53445402703E+01  0.53501630881E+01  0.13143426223E+03  0.21855348773E+03  0.17445192277E+03 0.  0.
         24    2    5    5    0    0  0.80254422092E+01  0.54411556275E+02  0.27598521919E+02  0.10283949680E+03  0.82396956923E+02 0.  0.
          5    1    5    5  501    0 -0.13369982480E+02 -0.49061393187E+02  0.10383574031E+03  0.11571399094E+03  0.47000000000E+01 0. -1.
        -11    1    6    6    0    0 -0.25701984490E+02  0.59634716167E+02  0.18096616810E+02  0.67412008715E+02  0.00000000000E+00 0.  1.
         12    1    6    6    0    0  0.33727426699E+02 -0.52231598921E+01  0.95019051098E+01  0.35427488081E+02  0.00000000000E+00 0. -1.
         -5    1    3    3    0  503  0.56569619936E+02 -0.38646178822E+02  0.18936408869E+03  0.20143112253E+03  0.47000000000E+01 0.  1.
         11    1    4    4    0    0 -0.44425131359E+02  0.50895528592E+02  0.83670891817E+02  0.10753959859E+03  0.00000000000E+00 0. -1.
        -12    1    4    4    0    0 -0.67999483073E+01 -0.17599512858E+02  0.10178004647E+03  0.10351405707E+03  0.00000000000E+00 0.  1.
</event>
<event>
12    1  0.9873238E-001  0.1772028E+03  0.7818608E-02  0.1170876E+00
         21   -1    0    0  503  502  0.00000000000E+00  0.00000000000E+00  0.45093502025E+03  0.45093502025E+03  0.00000000000E+00 0. -1.
         21   -1    0    0  501  503 -0.00000000000E+00 -0.00000000000E+00 -0.77491034106E+02  0.77491034106E+02  0.00000000000E+00 0. -1.
          6    2    1    2  501    0 -0.29603864546E+02  0.23385844591E+02  0.99136185166E+02  0.20185969096E+03  0.17174418506E+03 0.  0.
         24    2    3    3    0    0  0.33983548239E+02  0.57914139600E+02  0.60416399095E+02  0.11965948382E+03  0.78481346006E+02 0.  0.
         -6    2    1    2    0  502  0.29603864546E+02 -0.23385844591E+02  0.27430780098E+03  0.32656636340E+03  0.17314021342E+03 0.  0.
        -24    2    5    5    0    0  0.97842223204E+01  0.54172496292E+02  0.12932195935E+03  0.16088263235E+03  0.78285770504E+02 0.  0.
          5    1    3    3  501    0 -0.63587412785E+02 -0.34528295009E+02  0.38719786072E+02  0.82200207143E+02  0.47000000000E+01 0. -1.
        -11    1    4    4    0    0  0.39114282932E+02  0.44682951205E+02  0.18657426851E+01  0.59413586438E+02  0.00000000000E+00 0.  1.
         12    1    4    4    0    0 -0.51307346931E+01  0.13231188395E+02  0.58550656410E+02  0.60245897378E+02  0.00000000000E+00 0. -1.
         -5    1    5    5    0  502  0.19819642226E+02 -0.77558340884E+02  0.14498584163E+03  0.16568373104E+03  0.47000000000E+01 0.  1.
         13    1    6    6    0    0 -0.26129809532E+02  0.37758786479E+02  0.32322109385E+02  0.56153465232E+02  0.00000000000E+00 0. -1.
        -14    1    6    6    0    0  0.35914031852E+02  0.16413709814E+02  0.96999849961E+02  0.10472916712E+03  0.00000000000E+00 0.  1.
</event>
<event>
12    1  0.9873238E-001  0.1872475E+03  0.7818608E-02  0.1161290E+00
         21   -1    0    0  503  502  0.00000000000E+00  0.00000000000E+00  0.11122951856E+03  0.11122951856E+03  0.00000000000E+00 0.  1.
         21   -1    0    0  501  503 -0.00000000000E+00 -0.00000000000E+00 -0.43690253391E+03  0.43690253391E+03  0.00000000000E+00 0.  1.
          6    2    1    2  501    0 -0.57001697669E+02  0.40962528708E+02 -0.30842473529E+03  0.36009179579E+03  0.17208475168E+03 0.  0.
         24    2    3    3    0    0  0.23587042745E+01 -0.45154375587E+01 -0.25578903513E+03  0.26852482759E+03  0.81557341016E+02 0.  0.
         -6    2    1    2    0  502  0.57001697669E+02 -0.40962528708E+02 -0.17248280061E+02  0.18804025668E+03  0.17359295110E+03 0.  0.
        -24    2    5    5    0    0  0.96429804315E+02 -0.12160777212E+02  0.18286567162E+02  0.12746854835E+03  0.80419155778E+02 0.  0.
          5    1    3    3  501    0 -0.59360401943E+02  0.45477966267E+02 -0.52635700153E+02  0.91566968199E+02  0.47000000000E+01 0. -1.
        -13    1    4    4    0    0 -0.18400406673E+01  0.30413227223E+02 -0.20178711183E+03  0.20407446837E+03  0.00000000000E+00 0.  1.
         14    1    4    4    0    0  0.41987449418E+01 -0.34928664782E+02 -0.54001923299E+02  0.64450359212E+02  0.00000000000E+00 0. -1.
         -5    1    5    5    0  502 -0.39428106647E+02 -0.28801751496E+02 -0.35534847223E+02  0.60571708331E+02  0.47000000000E+01 0.  1.
         11    1    6    6    0    0  0.71672887388E+02 -0.28344996493E+02  0.43587835974E+02  0.88545700390E+02  0.00000000000E+00 0. -1.
        -12    1    6    6    0    0  0.24756916928E+02  0.16184219281E+02 -0.25301268812E+02  0.38922847956E+02  0.00000000000E+00 0.  1.
</event>
<event>
12    1  0.9873238E-001  0.1921349E+03  0.7818608E-02  0.1157309E+00
         21   -1    0    0  503  502  0.00000000000E+00  0.00000000000E+00  0.44961234017E+03  0.44961234017E+03  0.00000000000E+00 0. -1.
         21   -1    0    0  501  503 -0.00000000000E+00 -0.00000000000E+00 -0.92092577405E+02  0.92092577405E+02  0.00000000000E+00 0.  1.
          6    2    1    2  501    0 -0.27039613136E+02  0.76031774091E+02  0.81968770934E+02  0.20578207598E+03  0.17063238860E+03 0.  0.
         24    2    3    3    0    0 -0.32609496178E+01  0.10744841101E+03  0.24887119270E+02  0.13626348228E+03  0.79953568247E+02 0.  0.
         -6    2    1    2    0  502  0.27039613136E+02 -0.76031774091E+02  0.27555099183E+03  0.33592284159E+03  0.17436695517E+03 0.  0.
        -24    2    5    5    0    0 -0.39471238315E+02 -0.32215886743E+02  0.11405190786E+03  0.15579075265E+03  0.93097147703E+02 0.  0.
          5    1    3    3  501    0 -0.23778663518E+02 -0.31416636922E+02  0.57081651664E+02  0.69518593706E+02  0.47000000000E+01 0. -1.
        -13    1    4    4    0    0  0.21958148454E+02  0.48205278343E+02 -0.21227160596E+02  0.57065764611E+02  0.00000000000E+00 0.  1.
         14    1    4    4    0    0 -0.25219098072E+02  0.59243132670E+02  0.46114279866E+02  0.79197717668E+02  0.00000000000E+00 0. -1.
         -5    1    5    5    0  502  0.66510851451E+02 -0.43815887348E+02  0.16149908397E+03  0.18013208895E+03  0.47000000000E+01 0.  1.
         13    1    6    6    0    0 -0.32586336950E+02 -0.64947901019E+02  0.79285628848E+02  0.10754678119E+03  0.00000000000E+00 0. -1.
        -14    1    6    6    0    0 -0.68849013645E+01  0.32732014276E+02  0.34766279015E+02  0.48243971457E+02  0.00000000000E+00 0.  1.
</event>
<event>
12    1  0.9873238E-001  0.1758448E+03  0.7818608E-02  0.1172051E+00
         21   -1    0    0  503  502  0.00000000000E+00  0.00000000000E+00  0.40258827398E+03  0.40258827398E+03  0.00000000000E+00 0. -1.
         21   -1    0    0  501  503 -0.00000000000E+00 -0.00000000000E+00 -0.85025998405E+02  0.85025998405E+02  0.00000000000E+00 0. -1.
          6    2    1    2  501    0 -0.26813524478E+02  0.21716682996E+02  0.23563048701E+03  0.29361887039E+03  0.17175486958E+03 0.  0.
         24    2    3    3    0    0  0.16188615811E+02 -0.23412147707E+02  0.20919449061E+03  0.22574584677E+03  0.79929046588E+02 0.  0.
         -6    2    1    2    0  502  0.26813524478E+02 -0.21716682996E+02  0.81931788566E+02  0.19399540199E+03  0.17242627005E+03 0.  0.
        -24    2    5    5    0    0  0.76774778240E+02 -0.22900556136E+02  0.20343677313E+02  0.11454281311E+03  0.79293056336E+02 0.  0.
          5    1    3    3  501    0 -0.43002140288E+02  0.45128830703E+02  0.26435996396E+02  0.67873023621E+02  0.47000000000E+01 0. -1.
        -11    1    4    4    0    0  0.25635463324E+02 -0.32774981006E+01  0.20002734394E+03  0.20169000297E+03  0.00000000000E+00 0.  1.
         12    1    4    4    0    0 -0.94468475131E+01 -0.20134649606E+02  0.91671466683E+01  0.24055843796E+02  0.00000000000E+00 0. -1.
         -5    1    5    5    0  502 -0.49961253762E+02  0.11838731403E+01  0.61588111252E+02  0.79452588886E+02  0.47000000000E+01 0.  1.
         13    1    6    6    0    0  0.35796888319E+02  0.21244570539E+02  0.32847997768E+02  0.53025842267E+02  0.00000000000E+00 0. -1.
        -14    1    6    6    0    0  0.40977889921E+02 -0.44145126675E+02 -0.12504320455E+02  0.61516970842E+02  0.00000000000E+00 0.  1.
</event>
<event>
12    1  0.9873238E-001  0.2380538E+03  0.7818608E-02  0.1121171E+00
         21   -1    0    0  501  502  0.00000000000E+00  0.00000000000E+00  0.10909859548E+04  0.10909859548E+04  0.00000000000E+00 0.  1.
         21   -1    0    0  502  503 -0.00000000000E+00 -0.00000000000E+00 -0.18209378343E+03  0.18209378343E+03  0.00000000000E+00 0.  1.
         -6    2    1    2    0  503 -0.65586495277E+01  0.16409008207E+03  0.99291290310E+03  0.10210512490E+04  0.17233992281E+03 0.  0.
        -24    2    3    3    0    0 -0.61794235198E+02  0.13260846069E+03  0.59026056208E+03  0.61338341834E+03  0.80175778175E+02 0.  0.
          6    2    1    2  501    0  0.65586495277E+01 -0.16409008207E+03 -0.84020731756E+02  0.25202848921E+03  0.17172741508E+03 0.  0.
         24    2    5    5    0    0  0.43547963880E+02 -0.13786420450E+03 -0.11059969919E+03  0.19925977176E+03  0.81050596189E+02 0.  0.
          5    1    5    5  501    0 -0.36989314352E+02 -0.26225877580E+02  0.26578967434E+02  0.52768717446E+02  0.47000000000E+01 0. -1.
        -13    1    6    6    0    0 -0.17673288154E+02 -0.56294260947E+02 -0.64252649266E+02  0.87234121004E+02  0.00000000000E+00 0.  1.
         14    1    6    6    0    0  0.61221252033E+02 -0.81569943548E+02 -0.46347049924E+02  0.11202565076E+03  0.00000000000E+00 0. -1.
         -5    1    3    3    0  503  0.55235585671E+02  0.31481621386E+02  0.40265234103E+03  0.40766783065E+03  0.47000000000E+01 0.  1.
         11    1    4    4    0    0 -0.32058693958E+02  0.12532511922E+03  0.53276597125E+03  0.54824604466E+03  0.00000000000E+00 0. -1.
        -12    1    4    4    0    0 -0.29735541240E+02  0.72833414691E+01  0.57494590826E+02  0.65137373681E+02  0.00000000000E+00 0.  1.
</event>
<event>
12    1  0.9873238E-001  0.1766460E+03  0.7818608E-02  0.1171555E+00
         21   -1    0    0  501  502  0.00000000000E+00  0.00000000000E+00  0.19049341062E+03  0.19049341062E+03  0.00000000000E+00 0. -1.
         21   -1    0    0  502  503 -0.00000000000E+00 -0.00000000000E+00 -0.23432738955E+03  0.23432738955E+03  0.00000000000E+00 0. -1.
         -6    2    1    2    0  503  0.27011615139E+02  0.20027746887E+01 -0.13978090486E+03  0.22379931108E+03  0.17266670732E+03 0.  0.
        -24    2    3    3    0    0  0.10051289821E+02  0.52693447921E+02 -0.14004760713E+03  0.17013966033E+03  0.80352622083E+02 0.  0.
          6    2    1    2  501    0 -0.27011615139E+02 -0.20027746887E+01  0.95946925930E+02  0.20102148908E+03  0.17455711965E+03 0.  0.
         24    2    5    5    0    0 -0.43907700800E+02  0.26575567688E+02  0.12456681537E+03  0.15693762089E+03  0.80488374135E+02 0.  0.
          5    1    5    5  501    0  0.16896085661E+02 -0.28578342377E+02 -0.28619889440E+02  0.44083868197E+02  0.47000000000E+01 0. -1.
        -11    1    6    6    0    0  0.15347383249E+02 -0.38092748598E+01  0.67225483747E+02  0.69060252045E+02  0.00000000000E+00 0.  1.
         12    1    6    6    0    0 -0.59255084049E+02  0.30384842548E+02  0.57341331623E+02  0.87877368842E+02  0.00000000000E+00 0. -1.
         -5    1    3    3    0  503  0.16960325318E+02 -0.50690673232E+02  0.26670226671E+00  0.53659650742E+02  0.47000000000E+01 0.  1.
         13    1    4    4    0    0  0.26125302892E+02  0.79076941697E+01 -0.60691531068E+01  0.27962433687E+02  0.00000000000E+00 0. -1.
        -14    1    4    4    0    0 -0.16074013071E+02  0.44785753751E+02 -0.13397845402E+03  0.14217722665E+03  0.00000000000E+00 0.  1.
</event>
<event>
12    1  0.9873238E-001  0.2710737E+03  0.7818608E-02  0.1100926E+00
         21   -1    0    0  501  502  0.00000000000E+00  0.00000000000E+00  0.23836278157E+03  0.23836278157E+03  0.00000000000E+00 0.  1.
         21   -1    0    0  502  503 -0.00000000000E+00 -0.00000000000E+00 -0.31072038165E+03  0.31072038165E+03  0.00000000000E+00 0.  1.
         -6    2    1    2    0  503 -0.41201739869E+01  0.20714882968E+03 -0.69352437294E+02  0.27980474768E+03  0.17479508801E+03 0.  0.
        -24    2    3    3    0    0  0.40468291916E+02  0.61793874097E+02  0.73555490196E+01  0.10944512931E+03  0.80423670036E+02 0.  0.
          6    2    1    2  501    0  0.41201739869E+01 -0.20714882968E+03 -0.30051627859E+01  0.26927841554E+03  0.17197156916E+03 0.  0.
         24    2    5    5    0    0  0.67684084967E+02 -0.11118200105E+03  0.19372373279E+02  0.15192064163E+03  0.75907969221E+02 0.  0.
          5    1    5    5  501    0 -0.63563910980E+02 -0.95966828632E+02 -0.22377536065E+02  0.11735777391E+03  0.47000000000E+01 0. -1.
        -13    1    6    6    0    0  0.49605418194E+01  0.99385056682E+01  0.10418387515E+02  0.15229040300E+02  0.00000000000E+00 0.  1.
         14    1    6    6    0    0  0.62723543147E+02 -0.12112050672E+03  0.89539857644E+01  0.13669160133E+03  0.00000000000E+00 0. -1.
         -5    1    3    3    0  503 -0.44588465903E+02  0.14535495559E+03 -0.76707986314E+02  0.17035961837E+03  0.47000000000E+01 0.  1.
         13    1    4    4    0    0  0.63243972515E+02  0.36140208389E+02 -0.49253113535E+01  0.73008036638E+02  0.00000000000E+00 0. -1.
        -14    1    4    4    0    0 -0.22775680599E+02  0.25653665708E+02  0.12280860373E+02  0.36437092674E+02  0.00000000000E+00 0.  1.
</event>
<event>
12    1  0.9873238E-001  0.1833408E+03  0.7818608E-02  0.1164818E+00
         21   -1    0    0  501  502  0.00000000000E+00  0.00000000000E+00  0.34868169752E+03  0.34868169752E+03  0.00000000000E+00 0. -1.
         21   -1    0    0  502  503 -0.00000000000E+00 -0.00000000000E+00 -0.16071064769E+03  0.16071064769E+03  0.00000000000E+00 0. -1.
         -6    2    1    2    0  503 -0.38449763290E+02  0.50005995900E+02 -0.67573249865E+02  0.19539698920E+03  0.17214777189E+03 0.  0.
        -24    2    3    3    0    0  0.35215068988E+02  0.66323269481E+02 -0.39278432589E+02  0.11467866652E+03  0.77262695584E+02 0.  0.
          6    2    1    2  501    0  0.38449763290E+02 -0.50005995900E+02  0.25554429970E+03  0.31399535601E+03  0.17120517097E+03 0.  0.
         24    2    5    5    0    0  0.96462817950E+01 -0.44950135313E+02  0.26715540369E+03  0.28218167958E+03  0.78364055227E+02 0.  0.
          5    1    5    5  501    0  0.28803481495E+02 -0.50558605875E+01 -0.11611103992E+02  0.31813676437E+02  0.47000000000E+01 0. -1.
        -11    1    6    6    0    0  0.42222880727E+02 -0.39504841451E+02  0.16883983233E+03  0.17846650424E+03  0.00000000000E+00 0.  1.
         12    1    6    6    0    0 -0.32576598932E+02 -0.54452938623E+01  0.98315571364E+02  0.10371517534E+03  0.00000000000E+00 0. -1.
         -5    1    3    3    0  503 -0.73664832278E+02 -0.16317273581E+02 -0.28294817276E+02  0.80718322680E+02  0.47000000000E+01 0.  1.
         13    1    4    4    0    0  0.53938844451E+02  0.19572341828E+02 -0.21189519678E+02  0.61167566974E+02  0.00000000000E+00 0. -1.
        -14    1    4    4    0    0 -0.18723775463E+02  0.46750927653E+02 -0.18088912911E+02  0.53511099543E+02  0.00000000000E+00 0.  1.
</event>
<event>
12    1  0.9873238E-001  0.2168879E+03  0.7818608E-02  0.1136582E+00
         21   -1    0    0  501  502  0.00000000000E+00  0.00000000000E+00  0.65813025907E+03  0.65813025907E+03  0.00000000000E+00 0.  1.
         21   -1    0    0  502  503 -0.00000000000E+00 -0.00000000000E+00 -0.10423981779E+03  0.10423981779E+03  0.00000000000E+00 0.  1.
         -6    2    1    2    0  503  0.59988106975E+02  0.11697074088E+03  0.49183201653E+03  0.53677842929E+03  0.17015176306E+03 0.  0.
        -24    2    3    3    0    0  0.69003818956E+02  0.25797481696E+02  0.36023851968E+03  0.37636401390E+03  0.80318383988E+02 0.  0.
          6    2    1    2  501    0 -0.59988106975E+02 -0.11697074088E+03  0.62058424750E+02  0.22559164757E+03  0.17250975674E+03 0.  0.
         24    2    5    5    0    0 -0.32306825850E+02 -0.14956215834E+03  0.42843827889E+02  0.17847748251E+03  0.81277598227E+02 0.  0.
          5    1    5    5  501    0 -0.27681281126E+02  0.32591417458E+02  0.19214596860E+02  0.47114165059E+02  0.47000000000E+01 0. -1.
        -13    1    6    6    0    0  0.19093241655E+02 -0.50912365776E+02  0.39468089918E+02  0.67188920125E+02  0.00000000000E+00 0.  1.
         14    1    6    6    0    0 -0.51400067504E+02 -0.98649792561E+02  0.33757379708E+01  0.11128856239E+03  0.00000000000E+00 0. -1.
         -5    1    3    3    0  503 -0.90157119812E+01  0.91173259183E+02  0.13159349685E+03  0.16041441539E+03  0.47000000000E+01 0.  1.
         13    1    4    4    0    0  0.22980306598E+02 -0.23134103754E+02  0.56036687251E+02  0.64833568203E+02  0.00000000000E+00 0. -1.
        -14    1    4    4    0    0  0.46023512359E+02  0.48931585450E+02  0.30420183243E+03  0.31153044570E+03  0.00000000000E+00 0.  1.
</event>
<event>
12    1  0.9873238E-001  0.1777284E+03  0.7818608E-02  0.1170237E+00
         21   -1    0    0  501  502  0.00000000000E+00  0.00000000000E+00  0.51109947900E+03  0.51109947900E+03  0.00000000000E+00 0. -1.
         21   -1    0    0  502  503 -0.00000000000E+00 -0.00000000000E+00 -0.72159127585E+02  0.72159127585E+02  0.00000000000E+00 0. -1.
         -6    2    1    2    0  503  0.32083474114E+02  0.24445209872E+02  0.33203465084E+03  0.37660907652E+03  0.17309092859E+03 0.  0.
        -24    2    3    3    0    0 -0.24241995856E+02  0.12885308822E+02  0.29803239846E+03  0.30964316693E+03  0.79384348271E+02 0.  0.
          6    2    1    2  501    0 -0.32083474114E+02 -0.24445209872E+02  0.10690570058E+03  0.20664953007E+03  0.17218676448E+03 0.  0.
         24    2    5    5    0    0 -0.26539640389E+02 -0.83319790198E+02  0.71581326811E+02  0.13760713959E+03  0.78519415222E+02 0.  0.
          5    1    5    5  501    0 -0.55438337251E+01  0.58874580326E+02  0.35324373765E+02  0.69042390478E+02  0.47000000000E+01 0. -1.
        -11    1    6    6    0    0  0.27924624924E+02 -0.30960446796E+02  0.20958360494E+02  0.46664620619E+02  0.00000000000E+00 0.  1.
         12    1    6    6    0    0 -0.54464265313E+02 -0.52359343403E+02  0.50622966316E+02  0.90942518968E+02  0.00000000000E+00 0. -1.
         -5    1    3    3    0  503  0.56325469970E+02  0.11559901051E+02  0.34002252377E+02  0.66965909583E+02  0.47000000000E+01 0.  1.
         13    1    4    4    0    0 -0.36040093468E+01 -0.32501906894E+02  0.14701503081E+03  0.15060804135E+03  0.00000000000E+00 0. -1.
        -14    1    4    4    0    0 -0.20637986509E+02  0.45387215716E+02  0.15101736765E+03  0.15903512558E+03  0.00000000000E+00 0.  1.
</event>
<event>
12    1  0.9873238E-001  0.2740310E+03  0.7818608E-02  0.1099215E+00
         21   -1    0    0  501  502  0.00000000000E+00  0.00000000000E+00  0.18523906458E+03  0.18523906458E+03  0.00000000000E+00 0.  1.
         21   -1    0    0  502  503 -0.00000000000E+00 -0.00000000000E+00 -0.48840386178E+03  0.48840386178E+03  0.00000000000E+00 0.  1.
         -6    2    1    2    0  503 -0.15925172793E+03  0.13900460875E+03 -0.11150146468E+02  0.27425771803E+03  0.17438341674E+03 0.  0.
        -24    2    3    3    0    0 -0.85993098591E+02  0.66042963597E+02 -0.74389336293E+02  0.15296668965E+03  0.78157205319E+02 0.  0.
          6    2    1    2  501    0  0.15925172793E+03 -0.13900460875E+03 -0.29201465074E+03  0.39938520833E+03  0.17190868007E+03 0.  0.
         24    2    5    5    0    0  0.20301374696E+02 -0.56938512257E+02 -0.61057748724E+02  0.11759588020E+03  0.80290736508E+02 0.  0.
          5    1    5    5  501    0  0.13895035323E+03 -0.82066096490E+02 -0.23095690201E+03  0.28178932812E+03  0.47000000000E+01 0. -1.
        -13    1    6    6    0    0  0.56758695711E+01 -0.75934197994E+02 -0.41935305950E+02  0.86929786641E+02  0.00000000000E+00 0.  1.
         14    1    6    6    0    0  0.14625505125E+02  0.18995685737E+02 -0.19122442774E+02  0.30666093563E+02  0.00000000000E+00 0. -1.
         -5    1    3    3    0  503 -0.73258629337E+02  0.72961645150E+02  0.63239189825E+02  0.12129102838E+03  0.47000000000E+01 0.  1.
         13    1    4    4    0    0 -0.12801645144E+02  0.23658410896E+02  0.14257297741E+02  0.30444590051E+02  0.00000000000E+00 0. -1.
        -14    1    4    4    0    0 -0.73191453447E+02  0.42384552701E+02 -0.88646634034E+02  0.12252209960E+03  0.00000000000E+00 0.  1.
</event>
<event>
12    1  0.9873238E-001  0.2047421E+03  0.7818608E-02  0.1145866E+00
         21   -1    0    0  501  502  0.00000000000E+00  0.00000000000E+00  0.78133802162E+02  0.78133802162E+02  0.00000000000E+00 0.  1.
         21   -1    0    0  502  503 -0.00000000000E+00 -0.00000000000E+00 -0.53567869935E+03  0.53567869935E+03  0.00000000000E+00 0.  1.
         -6    2    1    2    0  503  0.10993822018E+03 -0.80396841448E+01 -0.22618022519E+03  0.30486439277E+03  0.17214457568E+03 0.  0.
        -24    2    3    3    0    0  0.10537927155E+03 -0.64225977144E+02 -0.14736638179E+03  0.20785204590E+03  0.79093966219E+02 0.  0.
          6    2    1    2  501    0 -0.10993822018E+03  0.80396841448E+01 -0.23136467200E+03  0.30894810874E+03  0.17253484769E+03 0.  0.
         24    2    5    5    0    0 -0.30115846383E+02  0.48197511741E+02 -0.18098613730E+03  0.20626242700E+03  0.80982976949E+02 0.  0.
          5    1    5    5  501    0 -0.79822373800E+02 -0.40157827597E+02 -0.50378534703E+02  0.10268568174E+03  0.47000000000E+01 0. -1.
        -11    1    6    6    0    0 -0.38851029701E+02  0.55976605274E+02 -0.82123032029E+02  0.10670977104E+03  0.00000000000E+00 0.  1.
         12    1    6    6    0    0  0.87351833176E+01 -0.77790935321E+01 -0.98863105273E+02  0.99552655956E+02  0.00000000000E+00 0. -1.
         -5    1    3    3    0  503  0.45589486329E+01  0.56186292999E+02 -0.78813843399E+02  0.97012346869E+02  0.47000000000E+01 0.  1.
         11    1    4    4    0    0  0.73851009149E+02 -0.12704505937E+02 -0.12014511132E+03  0.14159881284E+03  0.00000000000E+00 0. -1.
        -12    1    4    4    0    0  0.31528262401E+02 -0.51521471207E+02 -0.27221270466E+02  0.66253233062E+02  0.00000000000E+00 0.  1.
</event>
<event>
12    1  0.9873238E-001  0.5321733E+03  0.7818608E-02  0.1005740E+00
         21   -1    0    0  501  502  0.00000000000E+00  0.00000000000E+00  0.59180193748E+03  0.59180193748E+03  0.00000000000E+00 0.  1.
         21   -1    0    0  502  503 -0.00000000000E+00 -0.00000000000E+00 -0.51431220703E+03  0.51431220703E+03  0.00000000000E+00 0.  1.
         -6    2    1    2    0  503 -0.10572604528E+03  0.49263713487E+03  0.18556162083E+03  0.56307827648E+03  0.16957207025E+03 0.  0.
        -24    2    3    3    0    0 -0.15762762223E+02  0.36463631209E+03  0.14790605062E+03  0.40208872743E+03  0.81185221281E+02 0.  0.
          6    2    1    2  501    0  0.10572604528E+03 -0.49263713487E+03 -0.10807189038E+03  0.54303586803E+03  0.17128653529E+03 0.  0.
         24    2    5    5    0    0  0.21142917030E+02 -0.99573921811E+02 -0.40510760967E+02  0.13531097150E+03  0.79410001936E+02 0.  0.
          5    1    5    5  501    0  0.84583128254E+02 -0.39306321306E+03 -0.67561129415E+02  0.40772489653E+03  0.47000000000E+01 0. -1.
        -11    1    6    6    0    0 -0.21619359447E+02 -0.75677341737E+02 -0.15152159311E+02  0.80150138410E+02  0.00000000000E+00 0.  1.
         12    1    6    6    0    0  0.42762276477E+02 -0.23896580074E+02 -0.25358601656E+02  0.55160833085E+02  0.00000000000E+00 0. -1.
         -5    1    3    3    0  503 -0.89963283061E+02  0.12800082279E+03  0.37655570208E+02  0.16098954904E+03  0.47000000000E+01 0.  1.
         13    1    4    4    0    0 -0.30787199017E+02  0.99555104283E+02  0.15349691265E+02  0.10533130320E+03  0.00000000000E+00 0. -1.
        -14    1    4    4    0    0  0.15024436794E+02  0.26508120780E+03  0.13255635936E+03  0.29675742423E+03  0.00000000000E+00 0.  1.
</event>
<event>
12    1  0.9873238E-001  0.1751721E+03  0.7818608E-02  0.1172766E+00
         21   -1    0    0  503  502  0.00000000000E+00  0.00000000000E+00  0.75351771817E+03  0.75351771817E+03  0.00000000000E+00 0.  1.
         21   -1    0    0  501  503 -0.00000000000E+00 -0.00000000000E+00 -0.42471545135E+02  0.42471545135E+02  0.00000000000E+00 0.  1.
          6    2    1    2  501    0 -0.20164509087E+01  0.27500037323E+02  0.43978902838E+03  0.47308727778E+03  0.17215360811E+03 0.  0.
         24    2    3    3    0    0  0.49690856147E+02  0.45770278905E+02  0.37271206587E+03  0.38631829582E+03  0.75917336790E+02 0.  0.
         -6    2    1    2    0  502  0.20164509087E+01 -0.27500037323E+02  0.27125714465E+03  0.32290198552E+03  0.17298825279E+03 0.  0.
        -24    2    5    5    0    0 -0.12004856312E+02 -0.11259269363E+02  0.28826026219E+03  0.29512509574E+03  0.61106101638E+02 0.  0.
          5    1    3    3  501    0 -0.51707307056E+02 -0.18270241582E+02  0.67076962511E+02  0.86768981959E+02  0.47000000000E+01 0. -1.
        -13    1    4    4    0    0  0.29189801529E+02  0.66183671717E+02  0.25100485080E+03  0.26121975048E+03  0.00000000000E+00 0.  1.
         14    1    4    4    0    0  0.20501054618E+02 -0.20413392812E+02  0.12170721507E+03  0.12509854534E+03  0.00000000000E+00 0. -1.
         -5    1    5    5    0  502  0.14021307221E+02 -0.16240767959E+02 -0.17003117536E+02  0.27776889783E+02  0.47000000000E+01 0.  1.
         11    1    6    6    0    0 -0.76123829248E+01 -0.34673688543E+02  0.11855261217E+03  0.12375352481E+03  0.00000000000E+00 0. -1.
        -12    1    6    6    0    0 -0.43924733871E+01  0.23414419179E+02  0.16970765002E+03  0.17137157093E+03  0.00000000000E+00 0.  1.
</event>
<event>
12    1  0.9873238E-001  0.1921903E+03  0.7818608E-02  0.1156730E+00
         21   -1    0    0  503  502  0.00000000000E+00  0.00000000000E+00  0.10901896744E+03  0.10901896744E+03  0.00000000000E+00 0. -1.
         21   -1    0    0  501  503 -0.00000000000E+00 -0.00000000000E+00 -0.35213648346E+03  0.35213648346E+03  0.00000000000E+00 0. -1.
          6    2    1    2  501    0  0.84649322732E+02  0.13915728594E+02 -0.73438826811E+02  0.20478081175E+03  0.17082963512E+03 0.  0.
         24    2    3    3    0    0 -0.66481235256E+01  0.49475086262E+02 -0.36003465273E+02  0.99789441130E+02  0.78547446441E+02 0.  0.
         -6    2    1    2    0  502 -0.84649322732E+02 -0.13915728594E+02 -0.16967868921E+03  0.25637463916E+03  0.17198239064E+03 0.  0.
        -24    2    5    5    0    0 -0.39348670533E+02 -0.14609962660E+02 -0.18419279734E+03  0.20856898692E+03  0.88387028634E+02 0.  0.
          5    1    3    3  501    0  0.91297446258E+02 -0.35559357668E+02 -0.37435361538E+02  0.10499137062E+03  0.47000000000E+01 0. -1.
        -13    1    4    4    0    0  0.27190080916E+02  0.50203161735E+02 -0.32669522923E+02  0.65779599242E+02  0.00000000000E+00 0.  1.
         14    1    4    4    0    0 -0.33838204441E+02 -0.72807547314E+00 -0.33339423502E+01  0.34009841889E+02  0.00000000000E+00 0. -1.
         -5    1    5    5    0  502 -0.45300652199E+02  0.69423406652E+00  0.14514108135E+02  0.47805652234E+02  0.47000000000E+01 0.  1.
         11    1    6    6    0    0 -0.58304343378E+02 -0.36580193300E+02 -0.12945696297E+03  0.14661723043E+03  0.00000000000E+00 0. -1.
        -12    1    6    6    0    0  0.18955672845E+02  0.21970230640E+02 -0.54735834373E+02  0.61951756488E+02  0.00000000000E+00 0.  1.
</event>
<event>
12    1  0.9873238E-001  0.1822420E+03  0.7818608E-02  0.1165829E+00
         21   -1    0    0  503  502  0.00000000000E+00  0.00000000000E+00  0.33648148934E+02  0.33648148934E+02  0.00000000000E+00 0.  1.
         21   -1    0    0  501  503 -0.00000000000E+00 -0.00000000000E+00 -0.18651481498E+04  0.18651481498E+04  0.00000000000E+00 0.  1.
          6    2    1    2  501    0 -0.59169484727E+02 -0.36974674783E+01 -0.26183806310E+03  0.31859038075E+03  0.17153996686E+03 0.  0.
         24    2    3    3    0    0  0.20908385293E+02 -0.66394994363E+01 -0.59385531713E+02  0.10080553673E+03  0.78446614526E+02 0.  0.
         -6    2    1    2    0  502  0.59169484727E+02  0.36974674783E+01 -0.15696619378E+04  0.15802059180E+04  0.17232946693E+03 0.  0.
        -24    2    5    5    0    0  0.75666414403E+02 -0.29500495964E+02 -0.14571841682E+04  0.14616833795E+04  0.80851199997E+02 0.  0.
          5    1    3    3  501    0 -0.80077870020E+02  0.29420319580E+01 -0.20245253139E+03  0.21778484402E+03  0.47000000000E+01 0. -1.
        -13    1    4    4    0    0  0.33460267692E+02 -0.27148320365E+02 -0.63168384711E+02  0.76464800004E+02  0.00000000000E+00 0.  1.
         14    1    4    4    0    0 -0.12551882399E+02  0.20508820928E+02  0.37828529974E+01  0.24340736728E+02  0.00000000000E+00 0. -1.
         -5    1    5    5    0  502 -0.16496929676E+02  0.33197963442E+02 -0.11247776964E+03  0.11852253848E+03  0.47000000000E+01 0.  1.
         11    1    6    6    0    0 -0.10367945122E+02 -0.12800674700E+02 -0.55688472927E+03  0.55712830950E+03  0.00000000000E+00 0. -1.
        -12    1    6    6    0    0  0.86034359525E+02 -0.16699821264E+02 -0.90029943889E+03  0.90455507003E+03  0.00000000000E+00 0.  1.
</event>
<event>
12    1  0.9873238E-001  0.1989503E+03  0.7818608E-02  0.1150734E+00
         21   -1    0    0  501  502  0.00000000000E+00  0.00000000000E+00  0.49636663361E+03  0.49636663361E+03  0.00000000000E+00 0.  1.
         21   -1    0    0  502  503 -0.00000000000E+00 -0.00000000000E+00 -0.79747591545E+02  0.79747591545E+02  0.00000000000E+00 0.  1.
         -6    2    1    2    0  503  0.91153032492E+02 -0.36183131602E+02  0.19391469946E+03  0.27782030075E+03  0.17309856872E+03 0.  0.
        -24    2    3    3    0    0  0.11875535212E+03 -0.11143028522E+02  0.92436352880E+02  0.16961290896E+03  0.77440679307E+02 0.  0.
          6    2    1    2  501    0 -0.91153032492E+02  0.36183131602E+02  0.22270434260E+03  0.29829392441E+03  0.17252230807E+03 0.  0.
         24    2    5    5    0    0 -0.69100327844E+02  0.13737135625E+02  0.23830210827E+03  0.26286053886E+03  0.85698330670E+02 0.  0.
          5    1    5    5  501    0 -0.22052704648E+02  0.22445995977E+02 -0.15597765668E+02  0.35433385550E+02  0.47000000000E+01 0. -1.
        -13    1    6    6    0    0  0.19173531240E+02 -0.52532536595E+01  0.32128828983E+02  0.37782041052E+02  0.00000000000E+00 0.  1.
         14    1    6    6    0    0 -0.88273859084E+02  0.18990389285E+02  0.20617327929E+03  0.22507849781E+03  0.00000000000E+00 0. -1.
         -5    1    3    3    0  503 -0.27602319629E+02 -0.25040103079E+02  0.10147834658E+03  0.10820739178E+03  0.47000000000E+01 0.  1.
         13    1    4    4    0    0  0.99483689121E+02 -0.17843824300E+02  0.32296063610E+02  0.10610580659E+03  0.00000000000E+00 0. -1.
        -14    1    4    4    0    0  0.19271663000E+02  0.67007957773E+01  0.60140289270E+02  0.63507102377E+02  0.00000000000E+00 0.  1.
</event>
<event>
12    1  0.9873238E-001  0.2572505E+03  0.7818608E-02  0.1108908E+00
         21   -1    0    0  501  502  0.00000000000E+00  0.00000000000E+00  0.86170974915E+02  0.86170974915E+02  0.00000000000E+00 0.  1.
         21   -1    0    0  502  503 -0.00000000000E+00 -0.00000000000E+00 -0.12259966145E+04  0.12259966145E+04  0.00000000000E+00 0.  1.
         -6    2    1    2    0  503 -0.16552072831E+03 -0.95883620684E+02 -0.16757182312E+03  0.30645625495E+03  0.17100976604E+03 0.  0.
        -24    2    3    3    0    0 -0.61069090619E+02  0.19294613660E+02 -0.79484610386E+02  0.12768931917E+03  0.76714033890E+02 0.  0.
          6    2    1    2  501    0  0.16552072831E+03  0.95883620684E+02 -0.97225381643E+03  0.10057113344E+04  0.17200879171E+03 0.  0.
         24    2    5    5    0    0  0.10491916020E+03  0.12638805513E+03 -0.79323092471E+03  0.81420583493E+03  0.82060167350E+02 0.  0.
          5    1    5    5  501    0  0.60601568110E+02 -0.30504434447E+02 -0.17902289173E+03  0.19150549950E+03  0.47000000000E+01 0. -1.
        -11    1    6    6    0    0  0.44551806752E+01  0.56992725640E+02 -0.34208457675E+03  0.34682831064E+03  0.00000000000E+00 0.  1.
         12    1    6    6    0    0  0.10046397952E+03  0.69395329492E+02 -0.45114634795E+03  0.46737752429E+03  0.00000000000E+00 0. -1.
         -5    1    3    3    0  503 -0.10445163769E+03 -0.11517823434E+03 -0.88087212738E+02  0.17876693579E+03  0.47000000000E+01 0.  1.
         13    1    4    4    0    0 -0.56293866169E+02 -0.14362400121E+02 -0.24514975819E+02  0.63057608144E+02  0.00000000000E+00 0. -1.
        -14    1    4    4    0    0 -0.47752244504E+01  0.33657013782E+02 -0.54969634567E+02  0.64631711023E+02  0.00000000000E+00 0.  1.
</event>
<event>
12    1  0.9873238E-001  0.2731464E+03  0.7818608E-02  0.1099510E+00
         21   -1    0    0  501  502  0.00000000000E+00  0.00000000000E+00  0.22892417066E+03  0.22892417066E+03  0.00000000000E+00 0. -1.
         21   -1    0    0  502  503 -0.00000000000E+00 -0.00000000000E+00 -0.88761630641E+03  0.88761630641E+03  0.00000000000E+00 0. -1.
         -6    2    1    2    0  503  0.66048367486E+02  0.20206224637E+03  0.11484645361E+03  0.29619242805E+03  0.17131464698E+03 0.  0.
        -24    2    3    3    0    0  0.34168872573E+02  0.85837069116E+02  0.12580587090E+03  0.17508589291E+03  0.79324891790E+02 0.  0.
          6    2    1    2  501    0 -0.66048367486E+02 -0.20206224637E+03 -0.77353858935E+03  0.82034804902E+03  0.17151511320E+03 0.  0.
         24    2    5    5    0    0  0.30727698784E+02 -0.87497940004E+02 -0.35772142915E+03  0.37828856432E+03  0.80855031025E+02 0.  0.
          5    1    5    5  501    0 -0.96776066271E+02 -0.11456430637E+03 -0.41581716020E+03  0.44205948470E+03  0.47000000000E+01 0. -1.
        -13    1    6    6    0    0 -0.20747640987E+02 -0.60609301894E+02 -0.16471849531E+03  0.17673747418E+03  0.00000000000E+00 0.  1.
         14    1    6    6    0    0  0.51475339771E+02 -0.26888638110E+02 -0.19300293385E+03  0.20155109014E+03  0.00000000000E+00 0. -1.
         -5    1    3    3    0  503  0.31879494914E+02  0.11622517726E+03 -0.10959417295E+02  0.12110653513E+03  0.47000000000E+01 0.  1.
         13    1    4    4    0    0  0.19363916200E+02 -0.35277586377E+01  0.59936955951E+02  0.63086012874E+02  0.00000000000E+00 0. -1.
        -14    1    4    4    0    0  0.14804956373E+02  0.89364827754E+02  0.65868914949E+02  0.11199988004E+03  0.00000000000E+00 0.  1.
</event>
<event>
12    1  0.9873238E-001  0.2716367E+03  0.7818608E-02  0.1100367E+00
         21   -1    0    0  503  502  0.00000000000E+00  0.00000000000E+00  0.20642951458E+03  0.20642951458E+03  0.00000000000E+00 0. -1.
         21   -1    0    0  501  503 -0.00000000000E+00 -0.00000000000E+00 -0.36530463564E+03  0.36530463564E+03  0.00000000000E+00 0. -1.
          6    2    1    2  501    0  0.13399207892E+03 -0.16180750677E+03 -0.12185395494E+03  0.29758629465E+03  0.17196996821E+03 0.  0.
         24    2    3    3    0    0  0.11164692284E+03 -0.14875815711E+03 -0.33117132623E+02  0.20503411929E+03  0.79675723510E+02 0.  0.
         -6    2    1    2    0  502 -0.13399207892E+03  0.16180750677E+03 -0.37021166113E+02  0.27414785558E+03  0.17219446425E+03 0.  0.
        -24    2    5    5    0    0 -0.40647085309E+02  0.14945100845E+03 -0.42887320432E+02  0.17968901455E+03  0.80380533860E+02 0.  0.
          5    1    3    3  501    0  0.22345156077E+02 -0.13049349663E+02 -0.88736822321E+02  0.92552175352E+02  0.47000000000E+01 0. -1.
        -11    1    4    4    0    0  0.90263647470E+02 -0.11488218523E+03 -0.58754771222E+02  0.15747242831E+03  0.00000000000E+00 0.  1.
         12    1    4    4    0    0  0.21383275370E+02 -0.33875971877E+02  0.25637638599E+02  0.47561690982E+02  0.00000000000E+00 0. -1.
         -5    1    5    5    0  502 -0.93344993608E+02  0.12356498317E+02  0.58661543190E+01  0.94458841030E+02  0.47000000000E+01 0.  1.
         11    1    6    6    0    0  0.31553898872E+01  0.20451161934E+02  0.20767919575E+02  0.29317452025E+02  0.00000000000E+00 0. -1.
        -12    1    6    6    0    0 -0.43802475196E+02  0.12899984652E+03 -0.63655240006E+02  0.15037156252E+03  0.00000000000E+00 0.  1.
</event>
<event>
12    1  0.1316411E+000  0.3287125E+03  0.7818608E-02  0.1071950E+00
         21   -1    0    0  501  502  0.00000000000E+00  0.00000000000E+00  0.38458898204E+03  0.38458898204E+03  0.00000000000E+00 0. -1.
         21   -1    0    0  502  503 -0.00000000000E+00 -0.00000000000E+00 -0.49709574028E+03  0.49709574028E+03  0.00000000000E+00 0. -1.
         -6    2    1    2    0  503  0.27711340029E+03 -0.21569447240E+02  0.23557437047E+03  0.40440970298E+03  0.17548460380E+03 0.  0.
        -24    2    3    3    0    0  0.76229753833E+02  0.27378785130E+02  0.12832614316E+03  0.17144094729E+03  0.79773593040E+02 0.  0.
          6    2    1    2  501    0 -0.27711340029E+03  0.21569447240E+02 -0.34808112871E+03  0.47727501935E+03  0.17138813918E+03 0.  0.
         24    2    5    5    0    0 -0.28012735691E+03 -0.87179793925E+01 -0.28560659260E+03  0.40762180830E+03  0.77698607513E+02 0.  0.
          5    1    5    5  501    0  0.30139566256E+01  0.30287426632E+02 -0.62474536107E+02  0.69653211041E+02  0.47000000000E+01 0. -1.
        -11    1    6    6    0    0 -0.16235802559E+03  0.24167950723E+02 -0.19805003585E+03  0.25723148139E+03  0.00000000000E+00 0.  1.
         12    1    6    6    0    0 -0.11776933132E+03 -0.32885930116E+02 -0.87556556755E+02  0.15039032692E+03  0.00000000000E+00 0. -1.
         -5    1    3    3    0  503  0.20088364646E+03 -0.48948232369E+02  0.10724822731E+03  0.23296875569E+03  0.47000000000E+01 0.  1.
         13    1    4    4    0    0 -0.10461136301E+01 -0.21587249195E+02  0.18056134857E+02  0.28162522748E+02  0.00000000000E+00 0. -1.
        -14    1    4    4    0    0  0.77275867463E+02  0.48966034325E+02  0.11027000830E+03  0.14327842455E+03  0.00000000000E+00 0.  1.
</event>
<event>
12    1  0.9873238E-001  0.1824243E+03  0.7818608E-02  0.1165759E+00
         21   -1    0    0  503  502  0.00000000000E+00  0.00000000000E+00  0.28749386444E+03  0.28749386444E+03  0.00000000000E+00 0. -1.
         21   -1    0    0  501  503 -0.00000000000E+00 -0.00000000000E+00 -0.11619381222E+03  0.11619381222E+03  0.00000000000E+00 0. -1.
          6    2    1    2  501    0 -0.37538027998E+02  0.46967938342E+02  0.65518354252E+02  0.19383309787E+03  0.17223102017E+03 0.  0.
         24    2    3    3    0    0  0.27032689857E+02  0.19996235879E+02  0.83581724220E+02  0.12140916762E+03  0.81385905346E+02 0.  0.
         -6    2    1    2    0  502  0.37538027998E+02 -0.46967938342E+02  0.10578169797E+03  0.20985457879E+03  0.17097978195E+03 0.  0.
        -24    2    5    5    0    0  0.70803042440E+02 -0.23794341684E+02  0.12484955000E+02  0.10802163217E+03  0.77029587826E+02 0.  0.
          5    1    3    3  501    0 -0.64570717854E+02  0.26971702463E+02 -0.18063369969E+02  0.72423930248E+02  0.47000000000E+01 0. -1.
        -13    1    4    4    0    0  0.26412751872E+02 -0.22648103632E+02  0.97314602384E+01  0.36128539660E+02  0.00000000000E+00 0.  1.
         14    1    4    4    0    0  0.61993798468E+00  0.42644339511E+02  0.73850263982E+02  0.85280627962E+02  0.00000000000E+00 0. -1.
         -5    1    5    5    0  502 -0.33265014442E+02 -0.23173596658E+02  0.93296742970E+02  0.10183294662E+03  0.47000000000E+01 0.  1.
         13    1    6    6    0    0  0.58484894623E+02  0.12105293657E+02 -0.14491084651E+02  0.61457404501E+02  0.00000000000E+00 0. -1.
        -14    1    6    6    0    0  0.12318147817E+02 -0.35899635341E+02  0.26976039651E+02  0.46564227670E+02  0.00000000000E+00 0.  1.
</event>
<event>
12    1  0.9873238E-001  0.2457477E+03  0.7818608E-02  0.1116268E+00
         21   -1    0    0  501  502  0.00000000000E+00  0.00000000000E+00  0.84663571279E+03  0.84663571279E+03  0.00000000000E+00 0. -1.
         21   -1    0    0  502  503 -0.00000000000E+00 -0.00000000000E+00 -0.70974018580E+02  0.70974018580E+02  0.00000000000E+00 0.  1.
         -6    2    1    2    0  503 -0.12867683022E+03 -0.11689442773E+03  0.37335233373E+03  0.44697189403E+03  0.17369477563E+03 0.  0.
        -24    2    3    3    0    0 -0.70321743753E+02 -0.83795205069E+01  0.26174428482E+03  0.28066119748E+03  0.72424257861E+02 0.  0.
          6    2    1    2  501    0  0.12867683022E+03  0.11689442773E+03  0.40230936048E+03  0.47063783734E+03  0.17153751350E+03 0.  0.
         24    2    5    5    0    0  0.11324191490E+03  0.10188219736E+03  0.18731343173E+03  0.25451531873E+03  0.80548198815E+02 0.  0.
          5    1    5    5  501    0  0.15434915318E+02  0.15012230364E+02  0.21499592875E+03  0.21612251861E+03  0.47000000000E+01 0. -1.
        -13    1    6    6    0    0  0.40443483696E+02  0.18078968655E+02  0.10151729878E+02  0.45448675455E+02  0.00000000000E+00 0.  1.
         14    1    6    6    0    0  0.72798431202E+02  0.83803228709E+02  0.17716170185E+03  0.20906664327E+03  0.00000000000E+00 0. -1.
         -5    1    3    3    0  503 -0.58355086463E+02 -0.10851490722E+03  0.11160804891E+03  0.16631069655E+03  0.47000000000E+01 0.  1.
         13    1    4    4    0    0 -0.69963808501E+02 -0.49616648388E+01  0.12088178132E+03  0.13975678042E+03  0.00000000000E+00 0. -1.
        -14    1    4    4    0    0 -0.35793525196E+00 -0.34178556681E+01  0.14086250350E+03  0.14090441706E+03  0.00000000000E+00 0.  1.
</event>
<event>
12    1  0.9873238E-001  0.2297492E+03  0.7818608E-02  0.1127202E+00
         21   -1    0    0  501  502  0.00000000000E+00  0.00000000000E+00  0.71045934392E+02  0.71045934392E+02  0.00000000000E+00 0. -1.
         21   -1    0    0  502  503 -0.00000000000E+00 -0.00000000000E+00 -0.10438068077E+04  0.10438068077E+04  0.00000000000E+00 0. -1.
         -6    2    1    2    0  503 -0.10871554271E+03  0.10650811406E+03 -0.79074195832E+03  0.82344249566E+03  0.17210941697E+03 0.  0.
        -24    2    3    3    0    0 -0.57184113503E+02  0.13162640012E+03 -0.65258109083E+03  0.67378645068E+03  0.86778850919E+02 0.  0.
          6    2    1    2  501    0  0.10871554271E+03 -0.10650811406E+03 -0.18201891494E+03  0.29141024639E+03  0.16919219462E+03 0.  0.
         24    2    5    5    0    0  0.59719970867E+02  0.77054203327E+01 -0.53658835262E+02  0.11268224760E+03  0.78690341840E+02 0.  0.
          5    1    5    5  501    0  0.48995571847E+02 -0.11421353439E+03 -0.12836007968E+03  0.17872799879E+03  0.47000000000E+01 0. -1.
        -11    1    6    6    0    0  0.22566722902E+02 -0.34036137260E+02 -0.10754251257E+02  0.42229960244E+02  0.00000000000E+00 0.  1.
         12    1    6    6    0    0  0.37153247964E+02  0.41741557593E+02 -0.42904584004E+02  0.70452287352E+02  0.00000000000E+00 0. -1.
         -5    1    3    3    0  503 -0.51531429211E+02 -0.25118286060E+02 -0.13816086749E+03  0.14965604497E+03  0.47000000000E+01 0.  1.
         11    1    4    4    0    0 -0.46652312227E+02  0.40766800401E+02 -0.40769805221E+03  0.41237855428E+03  0.00000000000E+00 0. -1.
        -12    1    4    4    0    0 -0.10531801276E+02  0.90859599716E+02 -0.24488303862E+03  0.26140789640E+03  0.00000000000E+00 0.  1.
</event>
<event>
12    1  0.9873238E-001  0.1890459E+03  0.7818608E-02  0.1159982E+00
         21   -1    0    0  503  502  0.00000000000E+00  0.00000000000E+00  0.40971542970E+03  0.40971542970E+03  0.00000000000E+00 0. -1.
         21   -1    0    0  501  503 -0.00000000000E+00 -0.00000000000E+00 -0.13979414204E+03  0.13979414204E+03  0.00000000000E+00 0. -1.
          6    2    1    2  501    0 -0.65743136149E+02 -0.40543034884E+02  0.30617843132E+03  0.35983827897E+03  0.17254697209E+03 0.  0.
         24    2    3    3    0    0 -0.10666239759E+03 -0.16241884376E+02  0.17871738783E+03  0.22370107068E+03  0.80384068330E+02 0.  0.
         -6    2    1    2    0  502  0.65743136149E+02  0.40543034884E+02 -0.36257143657E+02  0.18967129278E+03  0.16939516289E+03 0.  0.
        -24    2    5    5    0    0  0.15287486781E+02  0.84178556731E+02 -0.90608540692E+01  0.11748016114E+03  0.79998453232E+02 0.  0.
          5    1    3    3  501    0  0.40919261446E+02 -0.24301150509E+02  0.12746104348E+03  0.13613720828E+03  0.47000000000E+01 0. -1.
        -13    1    4    4    0    0 -0.71642835631E+02 -0.46871527945E+02  0.94702673385E+02  0.12766453061E+03  0.00000000000E+00 0.  1.
         14    1    4    4    0    0 -0.35019561964E+02  0.30629643570E+02  0.84014714449E+02  0.96036540074E+02  0.00000000000E+00 0. -1.
         -5    1    5    5    0  502  0.50455649367E+02 -0.43635521847E+02 -0.27196289587E+02  0.72191131638E+02  0.47000000000E+01 0.  1.
         11    1    6    6    0    0  0.40329760661E+02  0.82356352517E+02 -0.35249423336E+01  0.91768641775E+02  0.00000000000E+00 0. -1.
        -12    1    6    6    0    0 -0.25042273880E+02  0.18222042141E+01 -0.55359117356E+01  0.25711519364E+02  0.00000000000E+00 0.  1.
</event>
<event>
12    1  0.9873238E-001  0.2462374E+03  0.7818608E-02  0.1117756E+00
         21   -1    0    0  503  502  0.00000000000E+00  0.00000000000E+00  0.46284673393E+02  0.46284673393E+02  0.00000000000E+00 0. -1.
         21   -1    0    0  501  503 -0.00000000000E+00 -0.00000000000E+00 -0.13427846007E+04  0.13427846007E+04  0.00000000000E+00 0. -1.
          6    2    1    2  501    0 -0.66536386446E+02 -0.14457486289E+03 -0.82013843985E+03  0.85282948095E+03  0.17135367332E+03 0.  0.
         24    2    3    3    0    0  0.19301111326E+02 -0.72421655848E+02 -0.54332293773E+03  0.55412716506E+03  0.78991589745E+02 0.  0.
         -6    2    1    2    0  502  0.66536386446E+02  0.14457486289E+03 -0.47636148748E+03  0.53623979316E+03  0.18789323382E+03 0.  0.
        -24    2    5    5    0    0  0.27392816415E+02  0.17377156965E+03 -0.41104728316E+03  0.45455318443E+03  0.81925598421E+02 0.  0.
          5    1    3    3  501    0 -0.85837497772E+02 -0.72153207046E+02 -0.27681550211E+03  0.29870231589E+03  0.47000000000E+01 0. -1.
        -11    1    4    4    0    0  0.40786395153E+01  0.84471699793E+01 -0.22960135496E+03  0.22979288975E+03  0.00000000000E+00 0.  1.
         12    1    4    4    0    0  0.15222471811E+02 -0.80868825827E+02 -0.31372158277E+03  0.32433427530E+03  0.00000000000E+00 0. -1.
         -5    1    5    5    0  502  0.39143570031E+02 -0.29196706752E+02 -0.65314204320E+02  0.81686608730E+02  0.47000000000E+01 0.  1.
         11    1    6    6    0    0 -0.28170877160E+02  0.51027334173E+02 -0.10342851307E+03  0.11872171018E+03  0.00000000000E+00 0. -1.
        -12    1    6    6    0    0  0.55563693575E+02  0.12274423547E+03 -0.30761877009E+03  0.33583147425E+03  0.00000000000E+00 0.  1.
</event>
<event>
12    1  0.9873238E-001  0.1856439E+03  0.7818608E-02  0.1162623E+00
         21   -1    0    0  501  502  0.00000000000E+00  0.00000000000E+00  0.36349297073E+03  0.36349297073E+03  0.00000000000E+00 0.  1.
         21   -1    0    0  502  503 -0.00000000000E+00 -0.00000000000E+00 -0.95119007119E+02  0.95119007119E+02  0.00000000000E+00 0.  1.
         -6    2    1    2    0  503  0.32151202381E+02  0.61143836375E+02  0.11498263700E+03  0.21836817582E+03  0.17231188252E+03 0.  0.
        -24    2    3    3    0    0  0.55275509363E+02  0.11821486528E+02  0.11402248282E+02  0.10124253945E+03  0.83216050431E+02 0.  0.
          6    2    1    2  501    0 -0.32151202381E+02 -0.61143836375E+02  0.15339132661E+03  0.24024380203E+03  0.17151069003E+03 0.  0.
         24    2    5    5    0    0 -0.57063138176E+02 -0.60277817810E+02  0.42781080481E+02  0.12676221285E+03  0.85725262916E+02 0.  0.
          5    1    5    5  501    0  0.24911935795E+02 -0.86601856498E+00  0.11061024613E+03  0.11348158918E+03  0.47000000000E+01 0. -1.
        -13    1    6    6    0    0 -0.61507191954E+02 -0.75018060160E+02  0.50689259356E+02  0.10945430565E+03  0.00000000000E+00 0.  1.
         14    1    6    6    0    0  0.44440537777E+01  0.14740242350E+02 -0.79081788747E+01  0.17307907200E+02  0.00000000000E+00 0. -1.
         -5    1    3    3    0  503 -0.23124306982E+02  0.49322349847E+02  0.10358038872E+03  0.11712563637E+03  0.47000000000E+01 0.  1.
         11    1    4    4    0    0  0.54323251072E+02  0.37001352336E+02  0.27600327848E+02  0.71287402668E+02  0.00000000000E+00 0. -1.
        -12    1    4    4    0    0  0.95225829057E+00 -0.25179865808E+02 -0.16198079567E+02  0.29955136782E+02  0.00000000000E+00 0.  1.
</event>
<event>
12    1  0.9873238E-001  0.1791972E+03  0.7818608E-02  0.1169176E+00
         21   -1    0    0  501  502  0.00000000000E+00  0.00000000000E+00  0.68576554567E+03  0.68576554567E+03  0.00000000000E+00 0. -1.
         21   -1    0    0  502  503 -0.00000000000E+00 -0.00000000000E+00 -0.51158782323E+02  0.51158782323E+02  0.00000000000E+00 0. -1.
         -6    2    1    2    0  503 -0.26809171748E+02 -0.33752126928E+02  0.43011762404E+03  0.46502827725E+03  0.17144150714E+03 0.  0.
        -24    2    3    3    0    0 -0.48576004080E+02 -0.32323216127E+02  0.43155568034E+03  0.44266771415E+03  0.79435391645E+02 0.  0.
          6    2    1    2  501    0  0.26809171748E+02  0.33752126928E+02  0.20448913931E+03  0.27189605075E+03  0.17393595532E+03 0.  0.
         24    2    5    5    0    0 -0.17382574958E+01 -0.24768440215E+02  0.35716323571E+02  0.90937586374E+02  0.79859199071E+02 0.  0.
          5    1    5    5  501    0  0.28547429243E+02  0.58520567144E+02  0.16877281574E+03  0.18095846437E+03  0.47000000000E+01 0. -1.
        -13    1    6    6    0    0 -0.14231481693E+02 -0.51656093854E+02  0.18682612247E+02  0.56744401519E+02  0.00000000000E+00 0.  1.
         14    1    6    6    0    0  0.12493224197E+02  0.26887653638E+02  0.17033711324E+02  0.34193184854E+02  0.00000000000E+00 0. -1.
         -5    1    3    3    0  503  0.21766832333E+02 -0.14289108009E+01 -0.14380563068E+01  0.22360563093E+02  0.47000000000E+01 0.  1.
         11    1    4    4    0    0 -0.54418700565E+02  0.10381386128E+02  0.23507788007E+03  0.24151765535E+03  0.00000000000E+00 0. -1.
        -12    1    4    4    0    0  0.58426964842E+01 -0.42704602255E+02  0.19647780027E+03  0.20115005880E+03  0.00000000000E+00 0.  1.
</event>
<event>
12    1  0.9873238E-001  0.1746569E+03  0.7818608E-02  0.1173483E+00
         21   -1    0    0  503  502  0.00000000000E+00  0.00000000000E+00  0.14543364301E+03  0.14543364301E+03  0.00000000000E+00 0. -1.
         21   -1    0    0  501  503 -0.00000000000E+00 -0.00000000000E+00 -0.26070165700E+03  0.26070165700E+03  0.00000000000E+00 0. -1.
          6    2    1    2  501    0 -0.30139835729E+02  0.13029783479E+02  0.34030287080E+02  0.17636365254E+03  0.16990554006E+03 0.  0.
         24    2    3    3    0    0 -0.14480909830E+02 -0.54633042990E+02 -0.68568150580E+01  0.95633824299E+02  0.76839744282E+02 0.  0.
         -6    2    1    2    0  502  0.30139835729E+02 -0.13029783479E+02 -0.14929830107E+03  0.22977164747E+03  0.17154253795E+03 0.  0.
        -24    2    5    5    0    0  0.79402981008E+02 -0.17221890879E+02 -0.65871957438E+02  0.13268160649E+03  0.81632511935E+02 0.  0.
          5    1    3    3  501    0 -0.15658925899E+02  0.67662826469E+02  0.40887102138E+02  0.80729828238E+02  0.47000000000E+01 0. -1.
        -11    1    4    4    0    0 -0.44082388815E+02 -0.18524050775E+02 -0.99474349744E+01  0.48840034023E+02  0.00000000000E+00 0.  1.
         12    1    4    4    0    0  0.29601478985E+02 -0.36108992215E+02  0.30906199163E+01  0.46793790276E+02  0.00000000000E+00 0. -1.
         -5    1    5    5    0  502 -0.49263145279E+02  0.41921074003E+01 -0.83426343627E+02  0.97090040984E+02  0.47000000000E+01 0.  1.
         13    1    6    6    0    0  0.27549037633E+02  0.22862553764E+02 -0.55907824321E+02  0.66387729736E+02  0.00000000000E+00 0. -1.
        -14    1    6    6    0    0  0.51853943375E+02 -0.40084444643E+02 -0.99641331164E+01  0.66293876751E+02  0.00000000000E+00 0.  1.
</event>
<event>
12    1  0.9873238E-001  0.1817948E+03  0.7818608E-02  0.1166130E+00
         21   -1    0    0  503  502  0.00000000000E+00  0.00000000000E+00  0.95566290021E+03  0.95566290021E+03  0.00000000000E+00 0.  1.
         21   -1    0    0  501  503 -0.00000000000E+00 -0.00000000000E+00 -0.35120712411E+02  0.35120712411E+02  0.00000000000E+00 0.  1.
          6    2    1    2  501    0  0.86511435394E+01  0.58468369954E+02  0.52366021673E+03  0.55424650567E+03  0.17168510098E+03 0.  0.
         24    2    3    3    0    0  0.24731268096E+02 -0.27513578179E+02  0.18097602080E+03  0.20054322049E+03  0.78080923243E+02 0.  0.
         -6    2    1    2    0  502 -0.86511435394E+01 -0.58468369954E+02  0.39688197107E+03  0.43653710695E+03  0.17191845221E+03 0.  0.
        -24    2    5    5    0    0  0.12809313350E+02 -0.96137020809E+02  0.21481314663E+03  0.24931898469E+03  0.81294913029E+02 0.  0.
          5    1    3    3  501    0 -0.16080124556E+02  0.85981948132E+02  0.34268419593E+03  0.35370328518E+03  0.47000000000E+01 0. -1.
        -13    1    4    4    0    0 -0.22619443167E+02 -0.29071846898E+02  0.10199563236E+03  0.10844316720E+03  0.00000000000E+00 0.  1.
         14    1    4    4    0    0  0.47350711263E+02  0.15582687193E+01  0.78980388435E+02  0.92100053289E+02  0.00000000000E+00 0. -1.
         -5    1    5    5    0  502 -0.21460456889E+02  0.37668650856E+02  0.18206882445E+03  0.18721812226E+03  0.47000000000E+01 0.  1.
         13    1    6    6    0    0 -0.92853717893E+01 -0.49547448603E+02  0.32796528758E+02  0.60139671524E+02  0.00000000000E+00 0. -1.
        -14    1    6    6    0    0  0.22094685139E+02 -0.46589572206E+02  0.18201661787E+03  0.18917931316E+03  0.00000000000E+00 0.  1.
</event>
<event>
12    1  0.9873238E-001  0.1815388E+03  0.7818608E-02  0.1166748E+00
         21   -1    0    0  501  502  0.00000000000E+00  0.00000000000E+00  0.86795933637E+02  0.86795933637E+02  0.00000000000E+00 0.  1.
         21   -1    0    0  502  503 -0.00000000000E+00 -0.00000000000E+00 -0.54001554605E+03  0.54001554605E+03  0.00000000000E+00 0.  1.
         -6    2    1    2    0  503 -0.84213303396E+01 -0.56087003311E+02 -0.54664423930E+02  0.18959043293E+03  0.17245191292E+03 0.  0.
        -24    2    3    3    0    0 -0.13033508095E+02  0.32002644937E+02 -0.52340572849E+02  0.10122444062E+03  0.79453195006E+02 0.  0.
          6    2    1    2  501    0  0.84213303396E+01  0.56087003311E+02 -0.39855518849E+03  0.43722104677E+03  0.17058527111E+03 0.  0.
         24    2    5    5    0    0  0.71593179606E+02  0.54282723147E+02 -0.27131767411E+03  0.29507530102E+03  0.73375442710E+02 0.  0.
          5    1    5    5  501    0 -0.63171849266E+02  0.18042801647E+01 -0.12723751438E+03  0.14214574574E+03  0.47000000000E+01 0. -1.
        -11    1    6    6    0    0  0.61251115864E+02  0.41473431671E+02 -0.10784497946E+03  0.13077570234E+03  0.00000000000E+00 0.  1.
         12    1    6    6    0    0  0.10342063742E+02  0.12809291476E+02 -0.16347269465E+03  0.16429959868E+03  0.00000000000E+00 0. -1.
         -5    1    3    3    0  503  0.46121777549E+01 -0.88089648249E+02 -0.23238510808E+01  0.88365992305E+02  0.47000000000E+01 0.  1.
         13    1    4    4    0    0  0.31667506682E+02  0.26114865534E+02 -0.30426211911E+02  0.51093752579E+02  0.00000000000E+00 0. -1.
        -14    1    4    4    0    0 -0.44701014776E+02  0.58877794034E+01 -0.21914360938E+02  0.50130688043E+02  0.00000000000E+00 0.  1.
</event>
<event>
12    1  0.9873238E-001  0.3888388E+03  0.7818608E-02  0.1047760E+00
         21   -1    0    0  503  502  0.00000000000E+00  0.00000000000E+00  0.21286420716E+03  0.21286420716E+03  0.00000000000E+00 0.  1.
         21   -1    0    0  501  503 -0.00000000000E+00 -0.00000000000E+00 -0.11240271325E+04  0.11240271325E+04  0.00000000000E+00 0.  1.
          6    2    1    2  501    0  0.32981142671E+03 -0.11182256838E+03 -0.49768350323E+02  0.39201089236E+03  0.17296180806E+03 0.  0.
         24    2    3    3    0    0  0.70196721708E+02 -0.59972797153E+02 -0.33887042493E+02  0.12675158570E+03  0.79958218418E+02 0.  0.
         -6    2    1    2    0  502 -0.32981142671E+03  0.11182256838E+03 -0.86139457500E+03  0.94488044729E+03  0.17180972570E+03 0.  0.
        -24    2    5    5    0    0 -0.18356352944E+03  0.99059071881E+00 -0.37552622784E+03  0.42549396739E+03  0.79552610783E+02 0.  0.
          5    1    3    3  501    0  0.25961470500E+03 -0.51849771222E+02 -0.15881307830E+02  0.26525930665E+03  0.47000000000E+01 0. -1.
        -13    1    4    4    0    0 -0.46708792224E+01 -0.23673473876E+02  0.16729027839E+02  0.29361724243E+02  0.00000000000E+00 0.  1.
         14    1    4    4    0    0  0.74867600930E+02 -0.36299323277E+02 -0.50616070332E+02  0.97389861461E+02  0.00000000000E+00 0. -1.
         -5    1    5    5    0  502 -0.14624789727E+03  0.11083197766E+03 -0.48586834716E+03  0.51938647989E+03  0.47000000000E+01 0.  1.
         11    1    6    6    0    0 -0.12928975696E+03  0.29898972197E+02 -0.20483358171E+03  0.24406266815E+03  0.00000000000E+00 0. -1.
        -12    1    6    6    0    0 -0.54273772480E+02 -0.28908381478E+02 -0.17069264613E+03  0.18143129924E+03  0.00000000000E+00 0.  1.
</event>
<event>
12    1  0.9873238E-001  0.2608167E+03  0.7818608E-02  0.1106658E+00
         21   -1    0    0  503  502  0.00000000000E+00  0.00000000000E+00  0.43540880038E+03  0.43540880038E+03  0.00000000000E+00 0. -1.
         21   -1    0    0  501  503 -0.00000000000E+00 -0.00000000000E+00 -0.20019238430E+03  0.20019238430E+03  0.00000000000E+00 0. -1.
          6    2    1    2  501    0 -0.82987561810E+02 -0.17645596454E+03  0.26655637845E+03  0.37290830557E+03  0.17316078837E+03 0.  0.
         24    2    3    3    0    0 -0.88984521170E+02 -0.82827371370E+02  0.78287716946E+02  0.16250522601E+03  0.74164434875E+02 0.  0.
         -6    2    1    2    0  502  0.82987561810E+02  0.17645596454E+03 -0.31339962371E+02  0.26269287911E+03  0.17321002471E+03 0.  0.
        -24    2    5    5    0    0  0.56025304901E+02  0.86394130027E+02 -0.83690603806E+02  0.15498597594E+03  0.80085923101E+02 0.  0.
          5    1    3    3  501    0  0.59969593600E+01 -0.93628593169E+02  0.18826866151E+03  0.21040307956E+03  0.47000000000E+01 0. -1.
        -11    1    4    4    0    0 -0.59675620199E+02 -0.64141714359E+01  0.40178083038E+02  0.72226031305E+02  0.00000000000E+00 0.  1.
         12    1    4    4    0    0 -0.29308900971E+02 -0.76413199934E+02  0.38109633907E+02  0.90279194706E+02  0.00000000000E+00 0. -1.
         -5    1    5    5    0  502  0.26962256909E+02  0.90061834512E+02  0.52350641435E+02  0.10770690318E+03  0.47000000000E+01 0.  1.
         13    1    6    6    0    0  0.54899413380E+02  0.99615960486E+02 -0.84494541503E+02  0.14169196419E+03  0.00000000000E+00 0. -1.
        -14    1    6    6    0    0  0.11258915215E+01 -0.13221830459E+02  0.80393769668E+00  0.13294011743E+02  0.00000000000E+00 0.  1.
</event>
<event>
12    1  0.9873238E-001  0.1878764E+03  0.7818608E-02  0.1160622E+00
         21   -1    0    0  503  502  0.00000000000E+00  0.00000000000E+00  0.87656904438E+03  0.87656904438E+03  0.00000000000E+00 0. -1.
         21   -1    0    0  501  503 -0.00000000000E+00 -0.00000000000E+00 -0.51474898947E+02  0.51474898947E+02  0.00000000000E+00 0. -1.
          6    2    1    2  501    0 -0.13893694447E+02 -0.73075773250E+02  0.19309834962E+03  0.26871381954E+03  0.17142648804E+03 0.  0.
         24    2    3    3    0    0 -0.14394575402E+02 -0.11638646075E+03  0.14113802972E+03  0.20090503413E+03  0.81791669869E+02 0.  0.
         -6    2    1    2    0  502  0.13893694447E+02  0.73075773250E+02  0.63199579582E+03  0.65933012379E+03  0.17252368775E+03 0.  0.
        -24    2    5    5    0    0 -0.57705989769E+02  0.45934573785E+02  0.41922639199E+03  0.43315305004E+03  0.80192460330E+02 0.  0.
          5    1    3    3  501    0  0.50088095542E+00  0.43310687501E+02  0.51960319903E+02  0.67808785404E+02  0.47000000000E+01 0. -1.
        -11    1    4    4    0    0  0.18748985675E+02 -0.10683966360E+03  0.10833397078E+03  0.15330520998E+03  0.00000000000E+00 0.  1.
         12    1    4    4    0    0 -0.33143561077E+02 -0.95467971550E+01  0.32804058938E+02  0.47599824155E+02  0.00000000000E+00 0. -1.
         -5    1    5    5    0  502  0.71599684215E+02  0.27141199465E+02  0.21276940382E+03  0.22617707375E+03  0.47000000000E+01 0.  1.
         13    1    6    6    0    0  0.79641673098E+01 -0.12088112261E+02  0.21719054843E+02  0.26101106533E+02  0.00000000000E+00 0. -1.
        -14    1    6    6    0    0 -0.65670157078E+02  0.58022686047E+02  0.39750733715E+03  0.40705194351E+03  0.00000000000E+00 0.  1.
</event>
<event>
12    1  0.9873238E-001  0.2511438E+03  0.7818608E-02  0.1112824E+00
         21   -1    0    0  503  502  0.00000000000E+00  0.00000000000E+00  0.20593042775E+03  0.20593042775E+03  0.00000000000E+00 0.  1.
         21   -1    0    0  501  503 -0.00000000000E+00 -0.00000000000E+00 -0.30455024754E+03  0.30455024754E+03  0.00000000000E+00 0.  1.
          6    2    1    2  501    0  0.13102976825E+03  0.12643823583E+03 -0.54309837227E+02  0.25545792520E+03  0.17074473778E+03 0.  0.
         24    2    3    3    0    0  0.75008690955E+02  0.15190173181E+03 -0.35057406042E+02  0.19080889709E+03  0.80489587185E+02 0.  0.
         -6    2    1    2    0  502 -0.13102976825E+03 -0.12643823583E+03 -0.44309982567E+02  0.25502275009E+03  0.17296762951E+03 0.  0.
        -24    2    5    5    0    0 -0.15277350375E+03 -0.11369108533E+03 -0.16576502728E+01  0.20525738734E+03  0.76566578348E+02 0.  0.
          5    1    3    3  501    0  0.56021077297E+02 -0.25463495977E+02 -0.19252431185E+02  0.64649028109E+02  0.47000000000E+01 0. -1.
        -13    1    4    4    0    0  0.59948847671E+02  0.10750781572E+03 -0.60840584332E+02  0.13730757983E+03  0.00000000000E+00 0.  1.
         14    1    4    4    0    0  0.15059843284E+02  0.44393916086E+02  0.25783178290E+02  0.53501317254E+02  0.00000000000E+00 0. -1.
         -5    1    5    5    0  502  0.21743735503E+02 -0.12747150503E+02 -0.42652332294E+02  0.49765362751E+02  0.47000000000E+01 0.  1.
         11    1    6    6    0    0 -0.56915929858E+02 -0.85719545759E+02  0.15129620126E+02  0.10400081251E+03  0.00000000000E+00 0. -1.
        -12    1    6    6    0    0 -0.95857573897E+02 -0.27971539567E+02 -0.16787270399E+02  0.10125657483E+03  0.00000000000E+00 0.  1.
</event>
<event>
12    1  0.9873238E-001  0.2803901E+03  0.7818608E-02  0.1096006E+00
         21   -1    0    0  501  502  0.00000000000E+00  0.00000000000E+00  0.18864419352E+03  0.18864419352E+03  0.00000000000E+00 0. -1.
         21   -1    0    0  502  503 -0.00000000000E+00 -0.00000000000E+00 -0.95510620531E+03  0.95510620531E+03  0.00000000000E+00 0. -1.
         -6    2    1    2    0  503  0.21548148504E+03 -0.19838039781E+02  0.49525293449E+02  0.28093299066E+03  0.17217657312E+03 0.  0.
        -24    2    3    3    0    0  0.13175751207E+03 -0.58491916596E+02  0.81827029404E+02  0.18311009973E+03  0.77796526846E+02 0.  0.
          6    2    1    2  501    0 -0.21548148504E+03  0.19838039781E+02 -0.81598730524E+03  0.86281740818E+03  0.17830529808E+03 0.  0.
         24    2    5    5    0    0 -0.46389383263E+02  0.92849377666E+01 -0.15064392657E+03  0.17622625736E+03  0.78255454894E+02 0.  0.
          5    1    5    5  501    0 -0.16909210178E+03  0.10553102014E+02 -0.66534337867E+03  0.68659115082E+03  0.47000000000E+01 0. -1.
        -11    1    6    6    0    0 -0.85345695255E+01 -0.32709540169E+02 -0.70033093761E+02  0.77764947867E+02  0.00000000000E+00 0.  1.
         12    1    6    6    0    0 -0.37854813737E+02  0.41994477936E+02 -0.80610832814E+02  0.98461309493E+02  0.00000000000E+00 0. -1.
         -5    1    3    3    0  503  0.83723972977E+02  0.38653876815E+02 -0.32301735955E+02  0.97822890928E+02  0.47000000000E+01 0.  1.
         13    1    4    4    0    0  0.59560397069E+02 -0.32618994538E+02  0.81933646710E+02  0.10641692613E+03  0.00000000000E+00 0. -1.
        -14    1    4    4    0    0  0.72197114998E+02 -0.25872922057E+02 -0.10661730545E+00  0.76693173602E+02  0.00000000000E+00 0.  1.
</event>
<event>
12    1  0.9873238E-001  0.3814225E+03  0.7818608E-02  0.1050603E+00
         21   -1    0    0  503  502  0.00000000000E+00  0.00000000000E+00  0.13597534403E+03  0.13597534403E+03  0.00000000000E+00 0.  1.
         21   -1    0    0  501  503 -0.00000000000E+00 -0.00000000000E+00 -0.10644197506E+04  0.10644197506E+04  0.00000000000E+00 0.  1.
          6    2    1    2  501    0 -0.18312328849E+03  0.28527408043E+03 -0.45398254048E+03  0.59294455271E+03  0.17483608260E+03 0.  0.
         24    2    3    3    0    0 -0.20848156125E+03  0.27327755430E+03 -0.41349600543E+03  0.54346518169E+03  0.78932085593E+02 0.  0.
         -6    2    1    2    0  502  0.18312328849E+03 -0.28527408043E+03 -0.47446186614E+03  0.60745054196E+03  0.17019594226E+03 0.  0.
        -24    2    5    5    0    0  0.91142680718E+02 -0.68935731239E+02 -0.13109106384E+03  0.19129154422E+03  0.79677252589E+02 0.  0.
          5    1    3    3  501    0  0.25358272761E+02  0.11996526129E+02 -0.40486535049E+02  0.49479371024E+02  0.47000000000E+01 0. -1.
        -13    1    4    4    0    0 -0.11784429284E+03  0.94284468551E+02 -0.19908099018E+03  0.24982009330E+03  0.00000000000E+00 0.  1.
         14    1    4    4    0    0 -0.90637268408E+02  0.17899308575E+03 -0.21441501525E+03  0.29364508839E+03  0.00000000000E+00 0. -1.
         -5    1    5    5    0  502  0.91980607767E+02 -0.21633834919E+03 -0.34337080229E+03  0.41615899774E+03  0.47000000000E+01 0.  1.
         11    1    6    6    0    0  0.92158357391E+02 -0.32255592225E+02 -0.11597952430E+03  0.15160750682E+03  0.00000000000E+00 0. -1.
        -12    1    6    6    0    0 -0.10156766730E+01 -0.36680139013E+02 -0.15111539547E+02  0.39684037403E+02  0.00000000000E+00 0.  1.
</event>
<event>
12    1  0.9873238E-001  0.1842767E+03  0.7818608E-02  0.1163914E+00
         21   -1    0    0  501  502  0.00000000000E+00  0.00000000000E+00  0.49228612710E+03  0.49228612710E+03  0.00000000000E+00 0. -1.
         21   -1    0    0  502  503 -0.00000000000E+00 -0.00000000000E+00 -0.78871215062E+02  0.78871215062E+02  0.00000000000E+00 0. -1.
         -6    2    1    2    0  503 -0.33331874030E+02 -0.56978610760E+02  0.30896046044E+03  0.35933520101E+03  0.17119475652E+03 0.  0.
        -24    2    3    3    0    0  0.16625641275E+02 -0.55352812023E+02  0.15120770675E+03  0.19378636274E+03  0.10653186404E+03 0.  0.
          6    2    1    2  501    0  0.33331874030E+02  0.56978610760E+02  0.10445445159E+03  0.21182214115E+03  0.17204740949E+03 0.  0.
         24    2    5    5    0    0  0.59398909395E+02  0.55432325504E+02  0.13220590915E+03  0.17342793940E+03  0.77445946322E+02 0.  0.
          5    1    5    5  501    0 -0.26067035365E+02  0.15462852559E+01 -0.27751457561E+02  0.38394201744E+02  0.47000000000E+01 0. -1.
        -11    1    6    6    0    0 -0.54558823221E+01  0.14117046296E+02 -0.51711155908E+01  0.15993688895E+02  0.00000000000E+00 0.  1.
         12    1    6    6    0    0  0.64854791717E+02  0.41315279209E+02  0.13737702475E+03  0.15743425051E+03  0.00000000000E+00 0. -1.
         -5    1    3    3    0  503 -0.49957515305E+02 -0.16257987370E+01  0.15775275369E+03  0.16554883828E+03  0.47000000000E+01 0.  1.
         11    1    4    4    0    0  0.90615865598E+01  0.30629349662E+02  0.23540353052E+02  0.39678931860E+02  0.00000000000E+00 0. -1.
        -12    1    4    4    0    0  0.75640547154E+01 -0.85982161685E+02  0.12766735369E+03  0.15410743088E+03  0.00000000000E+00 0.  1.
</event>
<event>
12    1  0.9910214E-001  0.2192165E+03  0.7818608E-02  0.1137615E+00
         21   -1    0    0  503  502  0.00000000000E+00  0.00000000000E+00  0.39994790974E+03  0.39994790974E+03  0.00000000000E+00 0.  1.
         21   -1    0    0  501  503 -0.00000000000E+00 -0.00000000000E+00 -0.20662350470E+03  0.20662350470E+03  0.00000000000E+00 0.  1.
          6    2    1    2  501    0  0.99666902317E+01  0.10966743574E+03  0.30438163995E+03  0.37510541130E+03  0.18955106298E+03 0.  0.
         24    2    3    3    0    0  0.27685523487E+02  0.66479173836E+02  0.57026921896E+02  0.12334038283E+03  0.82309242808E+02 0.  0.
         -6    2    1    2    0  502 -0.99666902317E+01 -0.10966743574E+03 -0.11105723492E+03  0.23146600314E+03  0.17063563462E+03 0.  0.
        -24    2    5    5    0    0  0.90788593573E+01 -0.11744556849E+03 -0.27937354929E+02  0.14570915643E+03  0.81084987634E+02 0.  0.
          5    1    3    3  501    0 -0.17718833255E+02  0.43188261907E+02  0.24735471805E+03  0.25176502847E+03  0.47000000000E+01 0. -1.
        -11    1    4    4    0    0 -0.23001764781E+02 -0.27559752068E+01  0.16521772506E+02  0.28454271193E+02  0.00000000000E+00 0.  1.
         12    1    4    4    0    0  0.50687288268E+02  0.69235149043E+02  0.40505149390E+02  0.94886111639E+02  0.00000000000E+00 0. -1.
         -5    1    5    5    0  502 -0.19045549589E+02  0.77781327506E+01 -0.83119879989E+02  0.85756846710E+02  0.47000000000E+01 0.  1.
         13    1    6    6    0    0 -0.33761489835E+02 -0.29538743882E+02 -0.40374277310E+01  0.45040830462E+02  0.00000000000E+00 0. -1.
        -14    1    6    6    0    0  0.42840349192E+02 -0.87906824611E+02 -0.23899927198E+02  0.10066832596E+03  0.00000000000E+00 0.  1.
</event>
<event>
12    1  0.9873238E-001  0.2196634E+03  0.7818608E-02  0.1134504E+00
         21   -1    0    0  503  502  0.00000000000E+00  0.00000000000E+00  0.15096822721E+04  0.15096822721E+04  0.00000000000E+00 0.  1.
         21   -1    0    0  501  503 -0.00000000000E+00 -0.00000000000E+00 -0.46069976764E+02  0.46069976764E+02  0.00000000000E+00 0.  1.
          6    2    1    2  501    0  0.39106745104E+01 -0.13503573341E+03  0.11643412223E+04  0.11845175754E+04  0.17070870462E+03 0.  0.
         24    2    3    3    0    0 -0.68894272265E+01  0.92457125416E+01  0.43885564075E+03  0.44473031080E+03  0.71118411934E+02 0.  0.
         -6    2    1    2    0  502 -0.39106745104E+01  0.13503573341E+03  0.29927107305E+03  0.37123467347E+03  0.17321104164E+03 0.  0.
        -24    2    5    5    0    0 -0.35723839908E+02  0.15768835842E+03  0.24091589201E+03  0.30085970586E+03  0.79588218133E+02 0.  0.
          5    1    3    3  501    0  0.10800101737E+02 -0.14428144596E+03  0.72548558153E+03  0.73978726459E+03  0.47000000000E+01 0. -1.
        -13    1    4    4    0    0  0.27968775381E+02 -0.57321360579E+01  0.10813038629E+03  0.11183599697E+03  0.00000000000E+00 0.  1.
         14    1    4    4    0    0 -0.34858202608E+02  0.14977848600E+02  0.33072525447E+03  0.33289431383E+03  0.00000000000E+00 0. -1.
         -5    1    5    5    0  502  0.31813165397E+02 -0.22652625007E+02  0.58355181035E+02  0.70374967609E+02  0.47000000000E+01 0.  1.
         11    1    6    6    0    0 -0.42635187787E+02  0.30295192712E+02  0.61987002741E+02  0.81104540242E+02  0.00000000000E+00 0. -1.
        -12    1    6    6    0    0  0.69113478797E+01  0.12739316571E+03  0.17892888927E+03  0.21975516561E+03  0.00000000000E+00 0.  1.
</event>
<event>
12    1  0.9873238E-001  0.2008351E+03  0.7818608E-02  0.1149526E+00
         21   -1    0    0  501  502  0.00000000000E+00  0.00000000000E+00  0.15208617834E+03  0.15208617834E+03  0.00000000000E+00 0. -1.
         21   -1    0    0  502  503 -0.00000000000E+00 -0.00000000000E+00 -0.38122886494E+03  0.38122886494E+03  0.00000000000E+00 0. -1.
         -6    2    1    2    0  503  0.18789851478E+01 -0.10333091176E+03 -0.26405569574E+03  0.33175316073E+03  0.17220319768E+03 0.  0.
        -24    2    3    3    0    0 -0.41852747541E+02 -0.92319889043E+02 -0.25481329970E+03  0.28547985363E+03  0.79336717453E+02 0.  0.
          6    2    1    2  501    0 -0.18789851478E+01  0.10333091176E+03  0.34913009138E+02  0.20156188255E+03  0.16949178854E+03 0.  0.
         24    2    5    5    0    0  0.16377958212E+02  0.11214236885E+03  0.76303834284E+02  0.15523426484E+03  0.73697038258E+02 0.  0.
          5    1    5    5  501    0 -0.18256943360E+02 -0.88114570896E+01 -0.41390825146E+02  0.46327617715E+02  0.47000000000E+01 0. -1.
        -13    1    6    6    0    0 -0.53951384100E+01  0.47613047413E+02  0.72654125239E+02  0.87032934666E+02  0.00000000000E+00 0.  1.
         14    1    6    6    0    0  0.21773096623E+02  0.64529321435E+02  0.36497090453E+01  0.68201330174E+02  0.00000000000E+00 0. -1.
         -5    1    3    3    0  503  0.43731732689E+02 -0.11011022715E+02 -0.92423960377E+01  0.46273307097E+02  0.47000000000E+01 0.  1.
         11    1    4    4    0    0 -0.30947473570E+02 -0.10268488209E+02 -0.24621202700E+02  0.40858188810E+02  0.00000000000E+00 0. -1.
        -12    1    4    4    0    0 -0.10905273972E+02 -0.82051400833E+02 -0.23019209700E+03  0.24462166482E+03  0.00000000000E+00 0.  1.
</event>
<event>
12    1  0.9873238E-001  0.1797042E+03  0.7818608E-02  0.1168094E+00
         21   -1    0    0  501  502  0.00000000000E+00  0.00000000000E+00  0.28688824873E+02  0.28688824873E+02  0.00000000000E+00 0. -1.
         21   -1    0    0  502  503 -0.00000000000E+00 -0.00000000000E+00 -0.11380640007E+04  0.11380640007E+04  0.00000000000E+00 0. -1.
         -6    2    1    2    0  503 -0.34960708672E+02  0.35635998314E+02 -0.61589724697E+03  0.64157852443E+03  0.17263084505E+03 0.  0.
        -24    2    3    3    0    0 -0.36739926563E+02 -0.49026472957E+02 -0.20452493345E+03  0.22155451323E+03  0.59182232763E+02 0.  0.
          6    2    1    2  501    0  0.34960708672E+02 -0.35635998314E+02 -0.49347792889E+03  0.52517430117E+03  0.17261345482E+03 0.  0.
         24    2    5    5    0    0  0.70861915005E+02  0.89994030648E+01 -0.21069079666E+03  0.23660564760E+03  0.80555697645E+02 0.  0.
          5    1    5    5  501    0 -0.35901206333E+02 -0.44635401379E+02 -0.28278713223E+03  0.28856865358E+03  0.47000000000E+01 0. -1.
        -11    1    6    6    0    0  0.46163910193E+02  0.13213187689E+02 -0.20547831294E+03  0.21101429341E+03  0.00000000000E+00 0.  1.
         12    1    6    6    0    0  0.24698004812E+02 -0.42137846244E+01 -0.52124837175E+01  0.25591354186E+02  0.00000000000E+00 0. -1.
         -5    1    3    3    0  503  0.17792178912E+01  0.84662471271E+02 -0.41137231352E+03  0.42002401120E+03  0.47000000000E+01 0.  1.
         13    1    4    4    0    0 -0.11135955336E+02 -0.23675868485E+02 -0.16879798552E+03  0.17081368846E+03  0.00000000000E+00 0. -1.
        -14    1    4    4    0    0 -0.25603971227E+02 -0.25350604472E+02 -0.35726947926E+02  0.50740824764E+02  0.00000000000E+00 0.  1.
</event>
<event>
12    1  0.9873238E-001  0.2508005E+03  0.7818608E-02  0.1113024E+00
         21   -1    0    0  503  502  0.00000000000E+00  0.00000000000E+00  0.17417738864E+04  0.17417738864E+04  0.00000000000E+00 0. -1.
         21   -1    0    0  501  503 -0.00000000000E+00 -0.00000000000E+00 -0.37794496652E+02  0.37794496652E+02  0.00000000000E+00 0. -1.
          6    2    1    2  501    0 -0.18132676796E+03 -0.54706549807E+01  0.10484432021E+04  0.10776933383E+04  0.17111533732E+03 0.  0.
         24    2    3    3    0    0 -0.59941514032E+02 -0.59029037956E+02  0.43035655322E+03  0.44550976076E+03  0.78706871420E+02 0.  0.
         -6    2    1    2    0  502  0.18132676796E+03  0.54706549807E+01  0.65553618769E+03  0.70187504473E+03  0.17318071546E+03 0.  0.
        -24    2    5    5    0    0  0.18710713134E+03 -0.97940562697E+01  0.43002725696E+03  0.47572732343E+03  0.79297177751E+02 0.  0.
          5    1    3    3  501    0 -0.12138525393E+03  0.53558382975E+02  0.61808664884E+03  0.63218357756E+03  0.47000000000E+01 0. -1.
        -13    1    4    4    0    0 -0.46483507083E+02 -0.29617742519E+02  0.10534511334E+03  0.11889289301E+03  0.00000000000E+00 0.  1.
         14    1    4    4    0    0 -0.13458006948E+02 -0.29411295437E+02  0.32501143988E+03  0.32661686776E+03  0.00000000000E+00 0. -1.
         -5    1    5    5    0  502 -0.57803633788E+01  0.15264711250E+02  0.22550893073E+03  0.22614772130E+03  0.47000000000E+01 0.  1.
         13    1    6    6    0    0  0.86726745243E+02  0.13090044825E+02  0.11714679399E+03  0.14634291564E+03  0.00000000000E+00 0. -1.
        -14    1    6    6    0    0  0.10038038609E+03 -0.22884101095E+02  0.31288046296E+03  0.32938440780E+03  0.00000000000E+00 0.  1.
</event>
<event>
12    1  0.9873238E-001  0.2503991E+03  0.7818608E-02  0.1113257E+00
         21   -1    0    0  501  502  0.00000000000E+00  0.00000000000E+00  0.82766595492E+02  0.82766595492E+02  0.00000000000E+00 0. -1.
         21   -1    0    0  502  503 -0.00000000000E+00 -0.00000000000E+00 -0.75793223734E+03  0.75793223734E+03  0.00000000000E+00 0. -1.
         -6    2    1    2    0  503 -0.12582775345E+03 -0.13029617349E+03 -0.30687113650E+03  0.39606770436E+03  0.17288729178E+03 0.  0.
        -24    2    3    3    0    0 -0.20463392615E+02 -0.11790226364E+01 -0.11592797791E+03  0.14258345043E+03  0.80440063053E+02 0.  0.
          6    2    1    2  501    0  0.12582775345E+03  0.13029617349E+03 -0.36829450535E+03  0.44463112848E+03  0.17101544191E+03 0.  0.
         24    2    5    5    0    0  0.28641727824E+02  0.42349032223E+02 -0.25130192048E+03  0.26887795454E+03  0.80801671385E+02 0.  0.
          5    1    5    5  501    0  0.97186025622E+02  0.87947141264E+02 -0.11699258488E+03  0.17575317394E+03  0.47000000000E+01 0. -1.
        -11    1    6    6    0    0  0.40714150378E+01  0.36905805624E+02 -0.23708296434E+03  0.23997280448E+03  0.00000000000E+00 0.  1.
         12    1    6    6    0    0  0.24570312786E+02  0.54432265993E+01 -0.14218956132E+02  0.28905150055E+02  0.00000000000E+00 0. -1.
         -5    1    3    3    0  503 -0.10536436083E+03 -0.12911715085E+03 -0.19094315859E+03  0.25348425393E+03  0.47000000000E+01 0.  1.
         13    1    4    4    0    0  0.20878905939E+02 -0.21955285421E+02 -0.74701890188E+02  0.80612255078E+02  0.00000000000E+00 0. -1.
        -14    1    4    4    0    0 -0.41342298554E+02  0.20776262785E+02 -0.41226087718E+02  0.61971195353E+02  0.00000000000E+00 0.  1.
</event>
<event>
12    1  0.9873238E-001  0.1968880E+03  0.7818608E-02  0.1152407E+00
         21   -1    0    0  501  502  0.00000000000E+00  0.00000000000E+00  0.32901150335E+03  0.32901150335E+03  0.00000000000E+00 0. -1.
         21   -1    0    0  502  503 -0.00000000000E+00 -0.00000000000E+00 -0.14337794936E+03  0.14337794936E+03  0.00000000000E+00 0. -1.
         -6    2    1    2    0  503  0.59968943073E+02  0.75627550817E+02  0.19260409174E+03  0.27537812192E+03  0.17152543048E+03 0.  0.
        -24    2    3    3    0    0 -0.28334189123E+02  0.30514056497E+02  0.13025607968E+03  0.15815169515E+03  0.79444184615E+02 0.  0.
          6    2    1    2  501    0 -0.59968943073E+02 -0.75627550817E+02 -0.69705377468E+01  0.19701133080E+03  0.17160732936E+03 0.  0.
         24    2    5    5    0    0 -0.23545971874E+02  0.15995199805E+02  0.31816055402E+02  0.90955444252E+02  0.80314209511E+02 0.  0.
          5    1    5    5  501    0 -0.36422971199E+02 -0.91622750622E+02 -0.38786593149E+02  0.10605588654E+03  0.47000000000E+01 0. -1.
        -13    1    6    6    0    0 -0.51196186178E+02 -0.22533712656E+01  0.13053601251E+02  0.52882167759E+02  0.00000000000E+00 0.  1.
         14    1    6    6    0    0  0.27650214304E+02  0.18248571071E+02  0.18762454150E+02  0.38073276493E+02  0.00000000000E+00 0. -1.
         -5    1    3    3    0  503  0.88303132196E+02  0.45113494319E+02  0.62348012064E+02  0.11722642677E+03  0.47000000000E+01 0.  1.
         13    1    4    4    0    0  0.12059936113E+02  0.35016681126E+02  0.23353928662E+02  0.43783741275E+02  0.00000000000E+00 0. -1.
        -14    1    4    4    0    0 -0.40394125237E+02 -0.45026246284E+01  0.10690215101E+03  0.11436795387E+03  0.00000000000E+00 0.  1.
</event>
<event>
12    1  0.9873238E-001  0.4370387E+03  0.7818608E-02  0.1031691E+00
         21   -1    0    0  503  502  0.00000000000E+00  0.00000000000E+00  0.24216254090E+04  0.24216254090E+04  0.00000000000E+00 0.  1.
         21   -1    0    0  501  503 -0.00000000000E+00 -0.00000000000E+00 -0.11604415959E+03  0.11604415959E+03  0.00000000000E+00 0.  1.
          6    2    1    2  501    0 -0.21116366390E+03 -0.34162704003E+03  0.43433628933E+03  0.61615812117E+03  0.17234758668E+03 0.  0.
         24    2    3    3    0    0 -0.15955783486E+03 -0.16068485467E+03  0.30211339966E+03  0.38614025538E+03  0.80953476670E+02 0.  0.
         -6    2    1    2    0  502  0.21116366390E+03  0.34162704003E+03  0.18712449601E+04  0.19215114474E+04  0.17131670818E+03 0.  0.
        -24    2    5    5    0    0  0.17207380048E+03  0.34413608349E+03  0.16378819635E+04  0.16848372180E+04  0.89331337492E+02 0.  0.
          5    1    3    3  501    0 -0.51605829034E+02 -0.18094218536E+03  0.13222288967E+03  0.23001786580E+03  0.47000000000E+01 0. -1.
        -13    1    4    4    0    0 -0.50113400427E+01 -0.43596741596E+02  0.80465774947E+02  0.91654407121E+02  0.00000000000E+00 0.  1.
         14    1    4    4    0    0 -0.15454649482E+03 -0.11708811307E+03  0.22164762471E+03  0.29448584826E+03  0.00000000000E+00 0. -1.
         -5    1    5    5    0  502  0.39089863420E+02 -0.25090434633E+01  0.23336299656E+03  0.23667422944E+03  0.47000000000E+01 0.  1.
         13    1    6    6    0    0  0.14561777454E+03  0.29183135574E+03  0.14994034885E+04  0.15344643684E+04  0.00000000000E+00 0. -1.
        -14    1    6    6    0    0  0.26456025937E+02  0.52304727752E+02  0.13847847498E+03  0.15037284957E+03  0.00000000000E+00 0.  1.
</event>
<event>
12    1  0.9873238E-001  0.2659179E+03  0.7818608E-02  0.1103682E+00
         21   -1    0    0  503  502  0.00000000000E+00  0.00000000000E+00  0.63018312672E+03  0.63018312672E+03  0.00000000000E+00 0.  1.
         21   -1    0    0  501  503 -0.00000000000E+00 -0.00000000000E+00 -0.15634578924E+03  0.15634578924E+03  0.00000000000E+00 0.  1.
          6    2    1    2  501    0 -0.19339104860E+03 -0.62846455591E+02  0.27582530579E+02  0.26705253912E+03  0.17089905792E+03 0.  0.
         24    2    3    3    0    0 -0.45972375320E+02  0.20559651342E+02  0.69847031953E+01  0.96362163298E+02  0.81857937190E+02 0.  0.
         -6    2    1    2    0  502  0.19339104860E+03  0.62846455591E+02  0.44625480691E+03  0.51947637684E+03  0.17135512465E+03 0.  0.
        -24    2    5    5    0    0  0.28623202434E+02  0.37192088332E+02  0.79797477511E+02  0.11683552700E+03  0.71276670798E+02 0.  0.
          5    1    3    3  501    0 -0.14741867328E+03 -0.83406106933E+02  0.20597827383E+02  0.17069037582E+03  0.47000000000E+01 0. -1.
        -13    1    4    4    0    0 -0.36528467182E+02  0.23215289603E+02  0.41812291345E+02  0.60179284588E+02  0.00000000000E+00 0.  1.
         14    1    4    4    0    0 -0.94439081376E+01 -0.26556382605E+01 -0.34827588149E+02  0.36182878711E+02  0.00000000000E+00 0. -1.
         -5    1    5    5    0  502  0.16476784617E+03  0.25654367259E+02  0.36645732940E+03  0.40264084984E+03  0.47000000000E+01 0.  1.
         13    1    6    6    0    0  0.51939716486E+02  0.32759066049E+02  0.61041228408E+02  0.86584768422E+02  0.00000000000E+00 0. -1.
        -14    1    6    6    0    0 -0.23316514052E+02  0.44330222833E+01  0.18756249103E+02  0.30250758578E+02  0.00000000000E+00 0.  1.
</event>
<event>
12    1  0.9873238E-001  0.1738585E+03  0.7818608E-02  0.1173943E+00
         21   -1    0    0  501  502  0.00000000000E+00  0.00000000000E+00  0.31387949576E+03  0.31387949576E+03  0.00000000000E+00 0.  1.
         21   -1    0    0  502  503 -0.00000000000E+00 -0.00000000000E+00 -0.11509902096E+03  0.11509902096E+03  0.00000000000E+00 0.  1.
         -6    2    1    2    0  503 -0.87737068921E+01 -0.21491814012E+02  0.12461278585E+02  0.17430455584E+03  0.17230182449E+03 0.  0.
        -24    2    3    3    0    0 -0.69447434740E+02  0.92962087631E+01  0.16816716748E+01  0.10525751736E+03  0.78529938576E+02 0.  0.
          6    2    1    2  501    0  0.87737068921E+01  0.21491814012E+02  0.18631919622E+03  0.25467396089E+03  0.17206134799E+03 0.  0.
         24    2    5    5    0    0  0.30740677028E+02  0.75422734120E+02  0.11092138566E+03  0.15929046253E+03  0.80226676432E+02 0.  0.
          5    1    5    5  501    0 -0.21966970136E+02 -0.53930920108E+02  0.75397810563E+02  0.95383498354E+02  0.47000000000E+01 0. -1.
        -11    1    6    6    0    0 -0.19614328640E+02 -0.36193718603E+01  0.13354404966E+02  0.24003372110E+02  0.00000000000E+00 0.  1.
         12    1    6    6    0    0  0.50355005668E+02  0.79042105980E+02  0.97566980689E+02  0.13528709042E+03  0.00000000000E+00 0. -1.
         -5    1    3    3    0  503  0.60673727848E+02 -0.30788022775E+02  0.10779606910E+02  0.69047038477E+02  0.47000000000E+01 0.  1.
         13    1    4    4    0    0 -0.54633744224E+02 -0.28945298629E+02  0.11970864682E+02  0.62976010686E+02  0.00000000000E+00 0. -1.
        -14    1    4    4    0    0 -0.14813690515E+02  0.38241507392E+02 -0.10289193008E+02  0.42281506679E+02  0.00000000000E+00 0.  1.
</event>
<event>
12    1  0.9873238E-001  0.1822354E+03  0.7818608E-02  0.1165725E+00
         21   -1    0    0  503  502  0.00000000000E+00  0.00000000000E+00  0.58368755647E+03  0.58368755647E+03  0.00000000000E+00 0.  1.
         21   -1    0    0  501  503 -0.00000000000E+00 -0.00000000000E+00 -0.16532534759E+03  0.16532534759E+03  0.00000000000E+00 0.  1.
          6    2    1    2  501    0  0.89577782960E+01 -0.58622552711E+02  0.51265409365E+03  0.54408085230E+03  0.17231630401E+03 0.  0.
         24    2    3    3    0    0  0.36000377723E+02  0.23665555277E+02  0.19947515929E+03  0.21911043853E+03  0.79768160293E+02 0.  0.
         -6    2    1    2    0  502 -0.89577782960E+01  0.58622552711E+02 -0.94291884775E+02  0.20493205176E+03  0.17201552496E+03 0.  0.
        -24    2    5    5    0    0  0.62408822072E+02  0.28663973472E+02 -0.47031849397E+02  0.11412286136E+03  0.78073991693E+02 0.  0.
          5    1    3    3  501    0 -0.27042599427E+02 -0.82288107989E+02  0.31317893436E+03  0.32497041377E+03  0.47000000000E+01 0. -1.
        -11    1    4    4    0    0  0.10328585910E+02  0.51222532941E+02  0.10183974231E+03  0.11446292274E+03  0.00000000000E+00 0.  1.
         12    1    4    4    0    0  0.25671791813E+02 -0.27556977664E+02  0.97635416979E+02  0.10464751579E+03  0.00000000000E+00 0. -1.
         -5    1    5    5    0  502 -0.71366600368E+02  0.29958579240E+02 -0.47260035379E+02  0.90809190406E+02  0.47000000000E+01 0.  1.
         11    1    6    6    0    0  0.14535856395E+02  0.19602344444E+02  0.19793140021E+02  0.31421512069E+02  0.00000000000E+00 0. -1.
        -12    1    6    6    0    0  0.47872965677E+02  0.90616290280E+01 -0.66824989417E+02  0.82701349287E+02  0.00000000000E+00 0.  1.
</event>
<event>
12    1  0.9873238E-001  0.3239011E+03  0.7818608E-02  0.1074080E+00
         21   -1    0    0  501  502  0.00000000000E+00  0.00000000000E+00  0.14051745463E+03  0.14051745463E+03  0.00000000000E+00 0.  1.
         21   -1    0    0  502  503 -0.00000000000E+00 -0.00000000000E+00 -0.74672155869E+03  0.74672155869E+03  0.00000000000E+00 0.  1.
         -6    2    1    2    0  503 -0.66566530784E+02 -0.26474412608E+03 -0.33630137541E+03  0.46562374786E+03  0.17083999577E+03 0.  0.
        -24    2    3    3    0    0 -0.84011203165E+02 -0.18865430719E+03 -0.16173810617E+03  0.27434279716E+03  0.80351885401E+02 0.  0.
          6    2    1    2  501    0  0.66566530784E+02  0.26474412608E+03 -0.26990272865E+03  0.42161526547E+03  0.17433127611E+03 0.  0.
         24    2    5    5    0    0  0.43174521553E+02  0.54941979312E+02 -0.53428988496E+02  0.11921305473E+03  0.80463875151E+02 0.  0.
          5    1    5    5  501    0  0.23392009230E+02  0.20980214676E+03 -0.21647374015E+03  0.30240221074E+03  0.47000000000E+01 0. -1.
        -11    1    6    6    0    0  0.59146206060E+02  0.33041116467E+02 -0.60898327719E+02  0.91096626654E+02  0.00000000000E+00 0.  1.
         12    1    6    6    0    0 -0.15971684507E+02  0.21900862845E+02  0.74693392227E+01  0.28116428077E+02  0.00000000000E+00 0. -1.
         -5    1    3    3    0  503  0.17444672382E+02 -0.76089818882E+02 -0.17456326924E+03  0.19128095070E+03  0.47000000000E+01 0.  1.
         13    1    4    4    0    0 -0.63289967959E+02 -0.98861723445E+02 -0.45234072372E+02  0.12579897341E+03  0.00000000000E+00 0. -1.
        -14    1    4    4    0    0 -0.20721235207E+02 -0.89792583749E+02 -0.11650403380E+03  0.14854382376E+03  0.00000000000E+00 0.  1.
</event>
<event>
12    1  0.9873238E-001  0.1956769E+03  0.7818608E-02  0.1155202E+00
         21   -1    0    0  503  502  0.00000000000E+00  0.00000000000E+00  0.12962409704E+03  0.12962409704E+03  0.00000000000E+00 0. -1.
         21   -1    0    0  501  503 -0.00000000000E+00 -0.00000000000E+00 -0.39518100519E+03  0.39518100519E+03  0.00000000000E+00 0. -1.
          6    2    1    2  501    0  0.20920988184E+02 -0.71756062965E+02 -0.27026976527E+03  0.32907146078E+03  0.17220818786E+03 0.  0.
         24    2    3    3    0    0 -0.20197002280E+01 -0.64061364969E+02 -0.62507369610E+02  0.11985199082E+03  0.79683064557E+02 0.  0.
         -6    2    1    2    0  502 -0.20920988184E+02  0.71756062965E+02  0.47128571238E+01  0.19573364145E+03  0.18083922985E+03 0.  0.
        -24    2    5    5    0    0  0.61029552366E+02  0.30512377118E+02  0.34867489889E+01  0.10386130579E+03  0.78226606740E+02 0.  0.
          5    1    3    3  501    0  0.22940688412E+02 -0.76946979964E+01 -0.20776239566E+03  0.20921946996E+03  0.47000000000E+01 0. -1.
        -11    1    4    4    0    0 -0.39998848691E+02 -0.41253224011E+02 -0.29393398645E+02  0.64542298315E+02  0.00000000000E+00 0.  1.
         12    1    4    4    0    0  0.37979148463E+02 -0.22808140958E+02 -0.33113970965E+02  0.55309692505E+02  0.00000000000E+00 0. -1.
         -5    1    5    5    0  502 -0.81950540550E+02  0.41243685848E+02  0.12261081348E+01  0.91872335662E+02  0.47000000000E+01 0.  1.
         13    1    6    6    0    0 -0.16964479498E+02 -0.55145836857E+01 -0.63622812977E+00  0.17849621399E+02  0.00000000000E+00 0. -1.
        -14    1    6    6    0    0  0.77994031864E+02  0.36026960803E+02  0.41229771187E+01  0.86011684389E+02  0.00000000000E+00 0.  1.
</event>
<event>
12    1  0.9873238E-001  0.1785305E+03  0.7818608E-02  0.1169784E+00
         21   -1    0    0  503  502  0.00000000000E+00  0.00000000000E+00  0.13319865621E+02  0.13319865621E+02  0.00000000000E+00 0.  1.
         21   -1    0    0  501  503 -0.00000000000E+00 -0.00000000000E+00 -0.25926329447E+04  0.25926329447E+04  0.00000000000E+00 0.  1.
          6    2    1    2  501    0 -0.35754983248E+01 -0.40364295982E+02 -0.16700017180E+04  0.16792811957E+04  0.17157370252E+03 0.  0.
         24    2    3    3    0    0 -0.47527756552E+00 -0.27134371779E+02 -0.56443881279E+03  0.57362479802E+03  0.98578575264E+02 0.  0.
         -6    2    1    2    0  502  0.35754983248E+01  0.40364295982E+02 -0.90931136104E+03  0.92667161462E+03  0.17387084128E+03 0.  0.
        -24    2    5    5    0    0  0.55475231249E+02 -0.17797957018E+02 -0.52713266559E+03  0.53659588452E+03  0.81682480398E+02 0.  0.
          5    1    3    3  501    0 -0.31002207593E+01 -0.13229924203E+02 -0.11055629052E+04  0.11056563976E+04  0.47000000000E+01 0. -1.
        -13    1    4    4    0    0 -0.50247191166E+01  0.24430102039E+02 -0.40967250960E+03  0.41043104513E+03  0.00000000000E+00 0.  1.
         14    1    4    4    0    0  0.45494415511E+01 -0.51564473817E+02 -0.15476630319E+03  0.16319375289E+03  0.00000000000E+00 0. -1.
         -5    1    5    5    0  502 -0.51899732924E+02  0.58162253000E+02 -0.38217869546E+03  0.39007573010E+03  0.47000000000E+01 0.  1.
         13    1    6    6    0    0  0.17833908387E+02  0.47606275000E+01 -0.18709086833E+02  0.26281967062E+02  0.00000000000E+00 0. -1.
        -14    1    6    6    0    0  0.37641322862E+02 -0.22558584518E+02 -0.50842357875E+03  0.51031391746E+03  0.00000000000E+00 0.  1.
</event>
<event>
12    1  0.9873238E-001  0.1935879E+03  0.7818608E-02  0.1156504E+00
         21   -1    0    0  503  502  0.00000000000E+00  0.00000000000E+00  0.77383302158E+03  0.77383302158E+03  0.00000000000E+00 0.  1.
         21   -1    0    0  501  503 -0.00000000000E+00 -0.00000000000E+00 -0.48131504880E+02  0.48131504880E+02  0.00000000000E+00 0.  1.
          6    2    1    2  501    0 -0.95315724892E+01  0.75010394197E+02  0.30645744767E+03  0.36248095999E+03  0.17821018211E+03 0.  0.
         24    2    3    3    0    0  0.46881048542E+02  0.57984653787E+02  0.10645012854E+03  0.15392095099E+03  0.82461970015E+02 0.  0.
         -6    2    1    2    0  502  0.95315724892E+01 -0.75010394197E+02  0.41924406903E+03  0.45948356648E+03  0.17216895287E+03 0.  0.
        -24    2    5    5    0    0  0.44418868015E+02 -0.76542599860E+01  0.33052482882E+03  0.34266248195E+03  0.78353624951E+02 0.  0.
          5    1    3    3  501    0 -0.56412621032E+02  0.17025740410E+02  0.20000731913E+03  0.20856000900E+03  0.47000000000E+01 0. -1.
        -13    1    4    4    0    0  0.13426800197E+02  0.51440605866E+02  0.13404949915E+02  0.54827981703E+02  0.00000000000E+00 0.  1.
         14    1    4    4    0    0  0.33454248345E+02  0.65440479210E+01  0.93045178630E+02  0.99092969285E+02  0.00000000000E+00 0. -1.
         -5    1    5    5    0  502 -0.34887295526E+02 -0.67356134210E+02  0.88719240212E+02  0.11682108452E+03  0.47000000000E+01 0.  1.
         13    1    6    6    0    0  0.46090541272E+01 -0.36124274759E+02  0.19946947865E+03  0.20276656411E+03  0.00000000000E+00 0. -1.
        -14    1    6    6    0    0  0.39809813888E+02  0.28470014773E+02  0.13105535016E+03  0.13989591784E+03  0.00000000000E+00 0.  1.
</event>
<event>
12    1  0.9873238E-001  0.2540050E+03  0.7818608E-02  0.1110919E+00
         21   -1    0    0  501  502  0.00000000000E+00  0.00000000000E+00  0.47033226088E+03  0.47033226088E+03  0.00000000000E+00 0.  1.
         21   -1    0    0  502  503 -0.00000000000E+00 -0.00000000000E+00 -0.13743223567E+03  0.13743223567E+03  0.00000000000E+00 0.  1.
         -6    2    1    2    0  503 -0.18221869201E+03  0.42431083601E+02  0.14543838826E+03  0.29269584154E+03  0.17179779480E+03 0.  0.
        -24    2    3    3    0    0 -0.18065805641E+03  0.19826323685E+02  0.65357099969E+02  0.20933809751E+03  0.80749440235E+02 0.  0.
          6    2    1    2  501    0  0.18221869201E+03 -0.42431083601E+02  0.18746163695E+03  0.31506865502E+03  0.17065269840E+03 0.  0.
         24    2    5    5    0    0  0.78591482317E+02 -0.69671960659E+02  0.50725497426E+02  0.14128854734E+03  0.79740669203E+02 0.  0.
          5    1    5    5  501    0  0.10362720969E+03  0.27240877058E+02  0.13673613953E+03  0.17378010768E+03  0.47000000000E+01 0. -1.
        -11    1    6    6    0    0  0.85226663313E+02 -0.74437654496E+02  0.27193471030E+02  0.11637883576E+03  0.00000000000E+00 0.  1.
         12    1    6    6    0    0 -0.66351809963E+01  0.47656938364E+01  0.23532026395E+02  0.24909711577E+02  0.00000000000E+00 0. -1.
         -5    1    3    3    0  503 -0.15606356028E+01  0.22604759916E+02  0.80081288291E+02  0.83357744023E+02  0.47000000000E+01 0.  1.
         11    1    4    4    0    0 -0.45439685866E+02 -0.45349692977E+01  0.55095506345E+02  0.71560085365E+02  0.00000000000E+00 0. -1.
        -12    1    4    4    0    0 -0.13521837054E+03  0.24361292982E+02  0.10261593625E+02  0.13777801215E+03  0.00000000000E+00 0.  1.
</event>
<event>
12    1  0.9873238E-001  0.2607178E+03  0.7818608E-02  0.1106839E+00
         21   -1    0    0  503  502  0.00000000000E+00  0.00000000000E+00  0.27902813119E+04  0.27902813119E+04  0.00000000000E+00 0.  1.
         21   -1    0    0  501  503 -0.00000000000E+00 -0.00000000000E+00 -0.30686464010E+02  0.30686464010E+02  0.00000000000E+00 0.  1.
          6    2    1    2  501    0  0.42439902348E+02 -0.18968859448E+03  0.73721131821E+03  0.78195542600E+03  0.17375515059E+03 0.  0.
         24    2    3    3    0    0 -0.14036431596E+02 -0.17631594341E+03  0.64873116242E+03  0.67603454958E+03  0.69901772610E+02 0.  0.
         -6    2    1    2    0  502 -0.42439902348E+02  0.18968859448E+03  0.20223835297E+04  0.20390123499E+04  0.17249148908E+03 0.  0.
        -24    2    5    5    0    0  0.72956097376E+01  0.17260942731E+03  0.18183351180E+04  0.18282443176E+04  0.79293400577E+02 0.  0.
          5    1    3    3  501    0  0.56476333943E+02 -0.13372651070E+02  0.88480155797E+02  0.10592087642E+03  0.47000000000E+01 0. -1.
        -13    1    4    4    0    0 -0.17746671189E+02 -0.55458069947E+02  0.33081893162E+03  0.33590431283E+03  0.00000000000E+00 0.  1.
         14    1    4    4    0    0  0.37102395931E+01 -0.12085787347E+03  0.31791223080E+03  0.34013023675E+03  0.00000000000E+00 0. -1.
         -5    1    5    5    0  502 -0.49735512085E+02  0.17079167173E+02  0.20404841169E+03  0.21076803227E+03  0.47000000000E+01 0.  1.
         11    1    6    6    0    0  0.11003967682E+02  0.61267261711E+02  0.10536133971E+04  0.10554505935E+04  0.00000000000E+00 0. -1.
        -12    1    6    6    0    0 -0.37083579442E+01  0.11134216560E+03  0.76472172085E+03  0.77279372416E+03  0.00000000000E+00 0.  1.
</event>
<event>
12    1  0.9873238E-001  0.1869107E+03  0.7818608E-02  0.1163745E+00
         21   -1    0    0  503  502  0.00000000000E+00  0.00000000000E+00  0.55504455388E+02  0.55504455388E+02  0.00000000000E+00 0. -1.
         21   -1    0    0  501  503 -0.00000000000E+00 -0.00000000000E+00 -0.60149664891E+03  0.60149664891E+03  0.00000000000E+00 0. -1.
          6    2    1    2  501    0 -0.70560571501E+02  0.11791875876E+01 -0.31504466143E+03  0.36631780810E+03  0.17307632160E+03 0.  0.
         24    2    3    3    0    0 -0.80992512991E+02 -0.10755386003E+02 -0.11138500045E+03  0.16198815542E+03  0.84605429397E+02 0.  0.
         -6    2    1    2    0  502  0.70560571501E+02 -0.11791875876E+01 -0.23094753209E+03  0.29068329620E+03  0.16180182749E+03 0.  0.
        -24    2    5    5    0    0 -0.22686894790E+02 -0.59934990172E+00 -0.11745272858E+03  0.14371872018E+03  0.79654708987E+02 0.  0.
          5    1    3    3  501    0  0.10431941490E+02  0.11934573591E+02 -0.20365966098E+03  0.20432965267E+03  0.47000000000E+01 0. -1.
        -11    1    4    4    0    0 -0.14320377367E+02  0.34060493373E+02 -0.29545339731E+02  0.47308746724E+02  0.00000000000E+00 0.  1.
         12    1    4    4    0    0 -0.66672135624E+02 -0.44815879377E+02 -0.81839660718E+02  0.11467940870E+03  0.00000000000E+00 0. -1.
         -5    1    5    5    0  502  0.93247466291E+02 -0.57983768590E+00 -0.11349480350E+03  0.14696457602E+03  0.47000000000E+01 0.  1.
         11    1    6    6    0    0 -0.10224963520E+02  0.38445883188E+02 -0.41981970961E+02  0.57837027058E+02  0.00000000000E+00 0. -1.
        -12    1    6    6    0    0 -0.12461931270E+02 -0.39045233090E+02 -0.75470757622E+02  0.85881693126E+02  0.00000000000E+00 0.  1.
</event>
<event>
12    1  0.9873238E-001  0.3006830E+03  0.7818608E-02  0.1084977E+00
         21   -1    0    0  501  502  0.00000000000E+00  0.00000000000E+00  0.81835695145E+02  0.81835695145E+02  0.00000000000E+00 0.  1.
         21   -1    0    0  502  503 -0.00000000000E+00 -0.00000000000E+00 -0.11367421456E+04  0.11367421456E+04  0.00000000000E+00 0.  1.
         -6    2    1    2    0  503  0.20280261509E+03  0.14102291075E+03 -0.42118810671E+03  0.51714414265E+03  0.17035927038E+03 0.  0.
        -24    2    3    3    0    0  0.17351165423E+03  0.40791887188E+02 -0.29003592697E+03  0.34943247722E+03  0.78815892991E+02 0.  0.
          6    2    1    2  501    0 -0.20280261509E+03 -0.14102291075E+03 -0.63371834379E+03  0.70143369814E+03  0.17144658522E+03 0.  0.
         24    2    5    5    0    0 -0.42415797909E+02 -0.95702265428E+02 -0.23702675136E+03  0.27112659673E+03  0.79811822894E+02 0.  0.
          5    1    5    5  501    0 -0.16038681718E+03 -0.45320645321E+02 -0.39669159243E+03  0.43030710141E+03  0.47000000000E+01 0. -1.
        -11    1    6    6    0    0 -0.20220862740E+02  0.35075977387E+01 -0.90424207492E+02  0.92723911869E+02  0.00000000000E+00 0.  1.
         12    1    6    6    0    0 -0.22194935169E+02 -0.99209863167E+02 -0.14660254387E+03  0.17840268486E+03  0.00000000000E+00 0. -1.
         -5    1    3    3    0  503  0.29290960856E+02  0.10023102356E+03 -0.13115217973E+03  0.16771166543E+03  0.47000000000E+01 0.  1.
         13    1    4    4    0    0  0.12351620583E+03  0.17055941982E+02 -0.13015126457E+03  0.18024014517E+03  0.00000000000E+00 0. -1.
        -14    1    4    4    0    0  0.49995448401E+02  0.23735945206E+02 -0.15988466240E+03  0.16919233206E+03  0.00000000000E+00 0.  1.
</event>
<event>
12    1  0.9873238E-001  0.2206364E+03  0.7818608E-02  0.1133458E+00
         21   -1    0    0  503  502  0.00000000000E+00  0.00000000000E+00  0.13459102400E+04  0.13459102400E+04  0.00000000000E+00 0.  1.
         21   -1    0    0  501  503 -0.00000000000E+00 -0.00000000000E+00 -0.36126443870E+02  0.36126443870E+02  0.00000000000E+00 0.  1.
          6    2    1    2  501    0 -0.13508480444E+03  0.16662796674E+02  0.65677282808E+03  0.69275899098E+03  0.17331739293E+03 0.  0.
         24    2    3    3    0    0 -0.78602330733E+02  0.51867515323E+02  0.57131255477E+03  0.58433763531E+03  0.78637594414E+02 0.  0.
         -6    2    1    2    0  502  0.13508480444E+03 -0.16662796674E+02  0.65301096810E+03  0.68927769294E+03  0.17365154864E+03 0.  0.
        -24    2    5    5    0    0  0.14243582317E+03 -0.24059004988E+02  0.35973729287E+03  0.39578104908E+03  0.79780445530E+02 0.  0.
          5    1    3    3  501    0 -0.56482473710E+02 -0.35204718648E+02  0.85460273309E+02  0.10842135567E+03  0.47000000000E+01 0. -1.
        -13    1    4    4    0    0 -0.41407019604E+02  0.57126974312E+02  0.22034444374E+03  0.23136487710E+03  0.00000000000E+00 0.  1.
         14    1    4    4    0    0 -0.37195311129E+02 -0.52594589888E+01  0.35096811103E+03  0.35297275821E+03  0.00000000000E+00 0. -1.
         -5    1    5    5    0  502 -0.73510187252E+01  0.73962083133E+01  0.29327367523E+03  0.29349664386E+03  0.47000000000E+01 0.  1.
         11    1    6    6    0    0  0.27261665107E+02  0.75515514582E+01  0.16446618899E+03  0.16688125010E+03  0.00000000000E+00 0. -1.
        -12    1    6    6    0    0  0.11517415806E+03 -0.31610556446E+02  0.19527110387E+03  0.22889979898E+03  0.00000000000E+00 0.  1.
</event>
<event>
12    1  0.9873238E-001  0.2940569E+03  0.7818608E-02  0.1088692E+00
         21   -1    0    0  503  502  0.00000000000E+00  0.00000000000E+00  0.28657640066E+03  0.28657640066E+03  0.00000000000E+00 0.  1.
         21   -1    0    0  501  503 -0.00000000000E+00 -0.00000000000E+00 -0.47840550180E+03  0.47840550180E+03  0.00000000000E+00 0. -1.
          6    2    1    2  501    0  0.21772386078E+03  0.86657615013E+02 -0.33099891363E+03  0.44275245992E+03  0.17764075587E+03 0.  0.
         24    2    3    3    0    0  0.23147732874E+03  0.72793110298E+02 -0.25612990985E+03  0.36523575140E+03  0.94414155483E+02 0.  0.
         -6    2    1    2    0  502 -0.21772386078E+03 -0.86657615013E+02  0.13916981249E+03  0.32222944254E+03  0.17190216734E+03 0.  0.
        -24    2    5    5    0    0 -0.21343597763E+03 -0.11966307928E+03  0.12021525983E+03  0.28364043271E+03  0.78268878129E+02 0.  0.
          5    1    3    3  501    0 -0.13753467957E+02  0.13864504715E+02 -0.74869003784E+02  0.77516708518E+02  0.47000000000E+01 0. -1.
        -13    1    4    4    0    0  0.62856866279E+02  0.28481832668E+02 -0.13903131673E+03  0.15521568047E+03  0.00000000000E+00 0.  1.
         14    1    4    4    0    0  0.16862046246E+03  0.44311277630E+02 -0.11709859312E+03  0.21002007094E+03  0.00000000000E+00 0. -1.
         -5    1    5    5    0  502 -0.42878831580E+01  0.33005464265E+02  0.18954552661E+02  0.38589009834E+02  0.47000000000E+01 0.  1.
         13    1    6    6    0    0 -0.17519857358E+03 -0.10046418046E+03  0.61744976914E+02  0.21118720112E+03  0.00000000000E+00 0. -1.
        -14    1    6    6    0    0 -0.38237404041E+02 -0.19198898816E+02  0.58470282917E+02  0.72453231591E+02  0.00000000000E+00 0.  1.
</event>
<event>
12    1  0.9873238E-001  0.1788966E+03  0.7818608E-02  0.1168886E+00
         21   -1    0    0  503  502  0.00000000000E+00  0.00000000000E+00  0.77042915439E+02  0.77042915439E+02  0.00000000000E+00 0.  1.
         21   -1    0    0  501  503 -0.00000000000E+00 -0.00000000000E+00 -0.92978912143E+03  0.92978912143E+03  0.00000000000E+00 0.  1.
          6    2    1    2  501    0 -0.36010666602E+02 -0.33798386816E+02 -0.80087185023E+03  0.82060936589E+03  0.17194450219E+03 0.  0.
         24    2    3    3    0    0 -0.84925535202E+02 -0.58523779843E+01 -0.62990857544E+03  0.64054222534E+03  0.79138689455E+02 0.  0.
         -6    2    1    2    0  502  0.36010666602E+02  0.33798386816E+02 -0.51874355759E+02  0.18622267098E+03  0.17189774676E+03 0.  0.
        -24    2    5    5    0    0  0.87546898678E+02  0.40478120081E+02 -0.48741595460E+02  0.13394929114E+03  0.79143741346E+02 0.  0.
          5    1    3    3  501    0  0.48914868600E+02 -0.27946008832E+02 -0.17096327479E+03  0.18006714055E+03  0.47000000000E+01 0. -1.
        -11    1    4    4    0    0 -0.79373099342E+02 -0.24533731681E+02 -0.34089649448E+03  0.35087378477E+03  0.00000000000E+00 0.  1.
         12    1    4    4    0    0 -0.55524358602E+01  0.18681353697E+02 -0.28901208097E+03  0.28966844057E+03  0.00000000000E+00 0. -1.
         -5    1    5    5    0  502 -0.51536232076E+02 -0.66797332643E+01 -0.31327602987E+01  0.52273379842E+02  0.47000000000E+01 0.  1.
         11    1    6    6    0    0  0.17535196643E+02 -0.15186749135E+02  0.11717219322E+02  0.25988722539E+02  0.00000000000E+00 0. -1.
        -12    1    6    6    0    0  0.70011702035E+02  0.55664869215E+02 -0.60458814783E+02  0.10796056860E+03  0.00000000000E+00 0.  1.
</event>
<event>
12    1  0.9873238E-001  0.1854596E+03  0.7818608E-02  0.1163396E+00
         21   -1    0    0  501  502  0.00000000000E+00  0.00000000000E+00  0.89107008389E+03  0.89107008389E+03  0.00000000000E+00 0. -1.
         21   -1    0    0  502  503 -0.00000000000E+00 -0.00000000000E+00 -0.43948478680E+02  0.43948478680E+02  0.00000000000E+00 0. -1.
         -6    2    1    2    0  503  0.41460507555E+02  0.40154111568E+02  0.25365265942E+03  0.31422118091E+03  0.17624968805E+03 0.  0.
        -24    2    3    3    0    0 -0.57475200803E+01 -0.26567713606E+02  0.65132935350E+02  0.10869216546E+03  0.82660814002E+02 0.  0.
          6    2    1    2  501    0 -0.41460507555E+02 -0.40154111568E+02  0.59346894579E+03  0.62079738166E+03  0.17277926120E+03 0.  0.
         24    2    5    5    0    0 -0.82374579316E+02 -0.36699381584E+02  0.28278689367E+03  0.30737861397E+03  0.79879716912E+02 0.  0.
          5    1    5    5  501    0  0.40914071761E+02 -0.34547299837E+01  0.31068205212E+03  0.31341876768E+03  0.47000000000E+01 0. -1.
        -11    1    6    6    0    0 -0.90890690358E+02 -0.27662179175E+02  0.27847185817E+03  0.29423271325E+03  0.00000000000E+00 0.  1.
         12    1    6    6    0    0  0.85161110415E+01 -0.90372024095E+01  0.43150354934E+01  0.13145900729E+02  0.00000000000E+00 0. -1.
         -5    1    3    3    0  503  0.47208027635E+02  0.66721825174E+02  0.18851972407E+03  0.20552901545E+03  0.47000000000E+01 0.  1.
         11    1    4    4    0    0 -0.28999342171E+02  0.86041813027E+01  0.58707960125E+02  0.66042549650E+02  0.00000000000E+00 0. -1.
        -12    1    4    4    0    0  0.23251822090E+02 -0.35171894909E+02  0.64249752251E+01  0.42649615809E+02  0.00000000000E+00 0.  1.
</event>
<event>
12    1  0.9873238E-001  0.1733575E+03  0.7818608E-02  0.1174437E+00
         21   -1    0    0  503  502  0.00000000000E+00  0.00000000000E+00  0.46343227045E+03  0.46343227045E+03  0.00000000000E+00 0. -1.
         21   -1    0    0  501  503 -0.00000000000E+00 -0.00000000000E+00 -0.17084270038E+03  0.17084270038E+03  0.00000000000E+00 0. -1.
          6    2    1    2  501    0  0.12600208217E+02 -0.11739968055E+02  0.39614453313E+03  0.43234313776E+03  0.17231803604E+03 0.  0.
         24    2    3    3    0    0 -0.23708292180E+02 -0.57330705631E+02  0.15363721000E+03  0.18288629916E+03  0.77421658451E+02 0.  0.
         -6    2    1    2    0  502 -0.12600208217E+02  0.11739968055E+02 -0.10355496307E+03  0.20193183307E+03  0.17249997894E+03 0.  0.
        -24    2    5    5    0    0  0.34778649057E+02  0.17600558733E+02 -0.23304659131E+01  0.89915800901E+02  0.80994358337E+02 0.  0.
          5    1    3    3  501    0  0.36308500398E+02  0.45590737576E+02  0.24250732313E+03  0.24945683860E+03  0.47000000000E+01 0. -1.
        -11    1    4    4    0    0  0.19644799173E+02 -0.14233443513E+02  0.90233407258E+01  0.25883000727E+02  0.00000000000E+00 0.  1.
         12    1    4    4    0    0 -0.43353091353E+02 -0.43097262118E+02  0.14461386928E+03  0.15700329843E+03  0.00000000000E+00 0. -1.
         -5    1    5    5    0  502 -0.47378857274E+02 -0.58605906774E+01 -0.10122449715E+03  0.11201603217E+03  0.47000000000E+01 0.  1.
         13    1    6    6    0    0  0.51534961267E+02  0.37104628328E+02 -0.66202401547E+01  0.63846951814E+02  0.00000000000E+00 0. -1.
        -14    1    6    6    0    0 -0.16756312211E+02 -0.19504069596E+02  0.42897742416E+01  0.26068849087E+02  0.00000000000E+00 0.  1.
</event>
<event>
12    1  0.9873238E-001  0.2719466E+03  0.7818608E-02  0.1100194E+00
         21   -1    0    0  501  502  0.00000000000E+00  0.00000000000E+00  0.42378185033E+03  0.42378185033E+03  0.00000000000E+00 0. -1.
         21   -1    0    0  502  503 -0.00000000000E+00 -0.00000000000E+00 -0.21375835288E+03  0.21375835288E+03  0.00000000000E+00 0.  1.
         -6    2    1    2    0  503  0.48513425716E+02  0.20488958715E+03  0.24181090785E+03  0.36390583083E+03  0.17210939301E+03 0.  0.
        -24    2    3    3    0    0 -0.33928576287E+02  0.12847972686E+03  0.11172426782E+03  0.19191811512E+03  0.81805026651E+02 0.  0.
          6    2    1    2  501    0 -0.48513425716E+02 -0.20488958715E+03 -0.31787410398E+02  0.27363437238E+03  0.17184887224E+03 0.  0.
         24    2    5    5    0    0 -0.56501367729E+02 -0.15149215997E+03 -0.84703212533E+02  0.19788963948E+03  0.76442109544E+02 0.  0.
          5    1    5    5  501    0  0.79879420130E+01 -0.53397427171E+02  0.52915802135E+02  0.75744732897E+02  0.47000000000E+01 0. -1.
        -11    1    6    6    0    0  0.10325913250E+02 -0.43692369031E+02  0.84191634825E+00  0.44903857508E+02  0.00000000000E+00 0.  1.
         12    1    6    6    0    0 -0.66827280979E+02 -0.10779979094E+03 -0.85545128881E+02  0.15298578197E+03  0.00000000000E+00 0. -1.
         -5    1    3    3    0  503  0.82442002002E+02  0.76409860281E+02  0.13008664003E+03  0.17198771571E+03  0.47000000000E+01 0.  1.
         13    1    4    4    0    0 -0.16850471109E+02 -0.15309068560E+00  0.40565024549E+02  0.43925881096E+02  0.00000000000E+00 0. -1.
        -14    1    4    4    0    0 -0.17078105178E+02  0.12863281755E+03  0.71159243274E+02  0.14799223402E+03  0.00000000000E+00 0.  1.
</event>
<event>
12    1  0.9873238E-001  0.1975368E+03  0.7818608E-02  0.1154341E+00
         21   -1    0    0  503  502  0.00000000000E+00  0.00000000000E+00  0.36154968030E+03  0.36154968030E+03  0.00000000000E+00 0. -1.
         21   -1    0    0  501  503 -0.00000000000E+00 -0.00000000000E+00 -0.11380512007E+03  0.11380512007E+03  0.00000000000E+00 0. -1.
          6    2    1    2  501    0  0.54862871831E+02  0.43528309167E+02  0.19768429618E+03  0.27157351791E+03  0.17253534789E+03 0.  0.
         24    2    3    3    0    0  0.47791726996E+02  0.81751955129E+02  0.82302783035E+02  0.14972922475E+03  0.81716958540E+02 0.  0.
         -6    2    1    2    0  502 -0.54862871831E+02 -0.43528309167E+02  0.50060264060E+02  0.20378128246E+03  0.18470552953E+03 0.  0.
        -24    2    5    5    0    0 -0.28434806182E+02  0.13923342447E+01 -0.44843102799E+02  0.95406719489E+02  0.79253147936E+02 0.  0.
          5    1    3    3  501    0  0.70711448343E+01 -0.38223645962E+02  0.11538151314E+03  0.12184429315E+03  0.47000000000E+01 0. -1.
        -11    1    4    4    0    0  0.53611496734E+01  0.61862483055E+02  0.90219896037E+01  0.62746354731E+02  0.00000000000E+00 0.  1.
         12    1    4    4    0    0  0.42430577323E+02  0.19889472074E+02  0.73280793431E+02  0.86982870022E+02  0.00000000000E+00 0. -1.
         -5    1    5    5    0  502 -0.26428065649E+02 -0.44920643412E+02  0.94903366859E+02  0.10837456297E+03  0.47000000000E+01 0.  1.
         11    1    6    6    0    0  0.20325373302E+02  0.22541553249E+02 -0.22353626353E+02  0.37695185818E+02  0.00000000000E+00 0. -1.
        -12    1    6    6    0    0 -0.48760179484E+02 -0.21149219004E+02 -0.22489476446E+02  0.57711533671E+02  0.00000000000E+00 0.  1.
</event>
<event>
12    1  0.9873238E-001  0.2561794E+03  0.7818608E-02  0.1109649E+00
         21   -1    0    0  503  502  0.00000000000E+00  0.00000000000E+00  0.41451762612E+03  0.41451762612E+03  0.00000000000E+00 0. -1.
         21   -1    0    0  501  503 -0.00000000000E+00 -0.00000000000E+00 -0.21623109363E+03  0.21623109363E+03  0.00000000000E+00 0. -1.
          6    2    1    2  501    0  0.15923716418E+03 -0.98680237214E+02  0.26324094770E+03  0.36646292967E+03  0.17293067572E+03 0.  0.
         24    2    3    3    0    0  0.15219044300E+02 -0.72603249233E+02  0.12544457574E+03  0.16538792306E+03  0.78191894752E+02 0.  0.
         -6    2    1    2    0  502 -0.15923716418E+03  0.98680237214E+02 -0.64954415212E+02  0.26428579007E+03  0.17473877391E+03 0.  0.
        -24    2    5    5    0    0 -0.13870046344E+03  0.88297644579E+02  0.12534207720E+02  0.18331585126E+03  0.80083096616E+02 0.  0.
          5    1    3    3  501    0  0.14401811988E+03 -0.26076987981E+02  0.13779637196E+03  0.20107500661E+03  0.47000000000E+01 0. -1.
        -13    1    4    4    0    0  0.32532565893E+02 -0.25447399109E+02  0.14801145665E+02  0.43874957299E+02  0.00000000000E+00 0.  1.
         14    1    4    4    0    0 -0.17313521593E+02 -0.47155850124E+02  0.11064343007E+03  0.12151296576E+03  0.00000000000E+00 0. -1.
         -5    1    5    5    0  502 -0.20536700735E+02  0.10382592635E+02 -0.77488622933E+02  0.80969938810E+02  0.47000000000E+01 0.  1.
         11    1    6    6    0    0 -0.25239184954E+02 -0.66277558283E+01 -0.18722249821E+02  0.32116448167E+02  0.00000000000E+00 0. -1.
        -12    1    6    6    0    0 -0.11346127849E+03  0.94925400408E+02  0.31256457541E+02  0.15119940310E+03  0.00000000000E+00 0.  1.
</event>
<event>
12    1  0.9873238E-001  0.1783450E+03  0.7818608E-02  0.1169546E+00
         21   -1    0    0  503  502  0.00000000000E+00  0.00000000000E+00  0.98589322792E+02  0.98589322792E+02  0.00000000000E+00 0.  1.
         21   -1    0    0  501  503 -0.00000000000E+00 -0.00000000000E+00 -0.32362503944E+03  0.32362503944E+03  0.00000000000E+00 0.  1.
          6    2    1    2  501    0 -0.36362191591E+02  0.22526750977E+02 -0.95864500978E+02  0.20200503782E+03  0.17258728015E+03 0.  0.
         24    2    3    3    0    0 -0.43192281407E+02  0.41278606547E+02  0.42916670881E+01  0.99771822983E+02  0.79790361093E+02 0.  0.
         -6    2    1    2    0  502  0.36362191591E+02 -0.22526750977E+02 -0.12917121567E+03  0.22020932441E+03  0.17313948167E+03 0.  0.
        -24    2    5    5    0    0  0.90743458398E+02 -0.71414996646E+01 -0.75997330546E+02  0.14246885749E+03  0.78970911392E+02 0.  0.
          5    1    3    3  501    0  0.68300898162E+01 -0.18751855570E+02 -0.10015616807E+03  0.10223321484E+03  0.47000000000E+01 0. -1.
        -13    1    4    4    0    0 -0.26741795555E+02 -0.21302552995E+02  0.74340055358E+01  0.34988381385E+02  0.00000000000E+00 0.  1.
         14    1    4    4    0    0 -0.16450485852E+02  0.62581159542E+02 -0.31423384477E+01  0.64783441598E+02  0.00000000000E+00 0. -1.
         -5    1    5    5    0  502 -0.54381266807E+02 -0.15385251312E+02 -0.53173885126E+02  0.77740466920E+02  0.47000000000E+01 0.  1.
         11    1    6    6    0    0  0.10862618119E+02 -0.24948039790E+02  0.46086743641E+01  0.27597844865E+02  0.00000000000E+00 0. -1.
        -12    1    6    6    0    0  0.79880840279E+02  0.17806540126E+02 -0.80606004910E+02  0.11487101263E+03  0.00000000000E+00 0.  1.
</event>
<event>
12    1  0.9873238E-001  0.3069098E+03  0.7818608E-02  0.1081842E+00
         21   -1    0    0  501  502  0.00000000000E+00  0.00000000000E+00  0.25632639992E+03  0.25632639992E+03  0.00000000000E+00 0. -1.
         21   -1    0    0  502  503 -0.00000000000E+00 -0.00000000000E+00 -0.36844703423E+03  0.36844703423E+03  0.00000000000E+00 0. -1.
         -6    2    1    2    0  503  0.23880510636E+03  0.85627923943E+02 -0.72569234566E+02  0.31532562114E+03  0.17263815731E+03 0.  0.
        -24    2    3    3    0    0  0.16569883863E+03  0.12106706546E+03 -0.22899912370E+02  0.21998627617E+03  0.75869732118E+02 0.  0.
          6    2    1    2  501    0 -0.23880510636E+03 -0.85627923943E+02 -0.39551399735E+02  0.30944781301E+03  0.17272410246E+03 0.  0.
         24    2    5    5    0    0 -0.24281880469E+03 -0.53336090808E+02 -0.45337755590E+01  0.26141453013E+03  0.80692570599E+02 0.  0.
          5    1    5    5  501    0  0.40136983235E+01 -0.32291833135E+02 -0.35017624176E+02  0.48033282881E+02  0.47000000000E+01 0. -1.
        -13    1    6    6    0    0 -0.43365800021E+02  0.65918203657E+01  0.25902098583E+02  0.50940783447E+02  0.00000000000E+00 0.  1.
         14    1    6    6    0    0 -0.19945300467E+03 -0.59927911173E+02 -0.30435874142E+02  0.21047374668E+03  0.00000000000E+00 0. -1.
         -5    1    3    3    0  503  0.73106267729E+02 -0.35439141515E+02 -0.49669322196E+02  0.95339344974E+02  0.47000000000E+01 0.  1.
         13    1    4    4    0    0  0.21957807146E+02  0.43339287552E+02 -0.28781634791E+02  0.56469652393E+02  0.00000000000E+00 0. -1.
        -14    1    4    4    0    0  0.14374103149E+03  0.77727777906E+02  0.58817224208E+01  0.16351662377E+03  0.00000000000E+00 0.  1.
</event>
<event>
12    1  0.9873238E-001  0.2530155E+03  0.7818608E-02  0.1111497E+00
         21   -1    0    0  503  502  0.00000000000E+00  0.00000000000E+00  0.12691007292E+04  0.12691007292E+04  0.00000000000E+00 0.  1.
         21   -1    0    0  501  503 -0.00000000000E+00 -0.00000000000E+00 -0.60459707893E+02  0.60459707893E+02  0.00000000000E+00 0.  1.
          6    2    1    2  501    0  0.16997695368E+03 -0.73864655442E+02  0.87686707418E+03  0.91264050240E+03  0.17224595419E+03 0.  0.
         24    2    3    3    0    0  0.93978147441E+02 -0.37308624892E+02  0.26376344718E+03  0.29374607735E+03  0.80571559508E+02 0.  0.
         -6    2    1    2    0  502 -0.16997695368E+03  0.73864655442E+02  0.33177394716E+03  0.41691993473E+03  0.17146465482E+03 0.  0.
        -24    2    5    5    0    0 -0.13498674435E+03  0.41809139808E+02  0.12029725230E+03  0.20013351149E+03  0.74917075418E+02 0.  0.
          5    1    3    3  501    0  0.75998806236E+02 -0.36556030549E+02  0.61310362700E+03  0.61889442505E+03  0.47000000000E+01 0. -1.
        -13    1    4    4    0    0 -0.16767391591E+01 -0.47833397347E+01  0.10778849828E+03  0.10790760935E+03  0.00000000000E+00 0.  1.
         14    1    4    4    0    0  0.95654886600E+02 -0.32525285158E+02  0.15597494890E+03  0.18583846800E+03  0.00000000000E+00 0. -1.
         -5    1    5    5    0  502 -0.34990209330E+02  0.32055515634E+02  0.21147669486E+03  0.21678642324E+03  0.47000000000E+01 0.  1.
         13    1    6    6    0    0 -0.54282233722E+02 -0.20033092759E+02  0.36840935780E+02  0.68594024903E+02  0.00000000000E+00 0. -1.
        -14    1    6    6    0    0 -0.80704510625E+02  0.61842232567E+02  0.83456316521E+02  0.13153948659E+03  0.00000000000E+00 0.  1.
</event>
<event>
12    1  0.9873238E-001  0.2511481E+03  0.7818608E-02  0.1112675E+00
         21   -1    0    0  503  502  0.00000000000E+00  0.00000000000E+00  0.27690228476E+03  0.27690228476E+03  0.00000000000E+00 0.  1.
         21   -1    0    0  501  503 -0.00000000000E+00 -0.00000000000E+00 -0.10076164314E+04  0.10076164314E+04  0.00000000000E+00 0.  1.
          6    2    1    2  501    0  0.12835310766E+03 -0.13065355402E+03  0.19995466915E+03  0.32055824309E+03  0.17097030759E+03 0.  0.
         24    2    3    3    0    0  0.15028748092E+03 -0.79550040741E+02  0.11701047360E+03  0.22058566998E+03  0.77794928911E+02 0.  0.
         -6    2    1    2    0  502 -0.12835310766E+03  0.13065355402E+03 -0.93066881577E+03  0.96396047304E+03  0.17184434098E+03 0.  0.
        -24    2    5    5    0    0 -0.12651115034E+03  0.16140188050E+03 -0.82125659474E+03  0.85019766498E+03  0.79486080217E+02 0.  0.
          5    1    3    3  501    0 -0.21934373263E+02 -0.51103513278E+02  0.82944195550E+02  0.99972573115E+02  0.47000000000E+01 0. -1.
        -11    1    4    4    0    0  0.90443390950E+02 -0.47945305711E+02  0.23285978047E+02  0.10498093198E+03  0.00000000000E+00 0.  1.
         12    1    4    4    0    0  0.59844089973E+02 -0.31604735030E+02  0.93724495552E+02  0.11560473800E+03  0.00000000000E+00 0. -1.
         -5    1    5    5    0  502 -0.18419573211E+01 -0.30748326479E+02 -0.10941222103E+03  0.11376280806E+03  0.47000000000E+01 0.  1.
         13    1    6    6    0    0 -0.10018801619E+03  0.67786546052E+02 -0.40167892933E+03  0.41949805325E+03  0.00000000000E+00 0. -1.
        -14    1    6    6    0    0 -0.26323134154E+02  0.93615334447E+02 -0.41957766541E+03  0.43069961173E+03  0.00000000000E+00 0.  1.
</event>
<event>
12    1  0.9873238E-001  0.1764101E+03  0.7818608E-02  0.1172125E+00
         21   -1    0    0  501  502  0.00000000000E+00  0.00000000000E+00  0.12447139235E+03  0.12447139235E+03  0.00000000000E+00 0.  1.
         21   -1    0    0  502  503 -0.00000000000E+00 -0.00000000000E+00 -0.25087461558E+03  0.25087461558E+03  0.00000000000E+00 0.  1.
         -6    2    1    2    0  503 -0.24034423445E+02  0.41349959367E+01 -0.36333748010E+02  0.18011288738E+03  0.17471622493E+03 0.  0.
        -24    2    3    3    0    0 -0.27805623693E+02 -0.26643370823E+02  0.38644827937E+02  0.98839234437E+02  0.82418138902E+02 0.  0.
          6    2    1    2  501    0  0.24034423445E+02 -0.41349959367E+01 -0.90069475223E+02  0.19523312055E+03  0.17148967692E+03 0.  0.
         24    2    5    5    0    0 -0.63361257915E+01 -0.43397033043E+02 -0.10853401323E+03  0.14206445513E+03  0.80493654513E+02 0.  0.
          5    1    5    5  501    0  0.30370549236E+02  0.39262037106E+02  0.18464538008E+02  0.53168665420E+02  0.47000000000E+01 0. -1.
        -13    1    6    6    0    0  0.69335451410E+01  0.13965454547E+02  0.30614467341E+01  0.15889632627E+02  0.00000000000E+00 0.  1.
         14    1    6    6    0    0 -0.13269670933E+02 -0.57362487590E+02 -0.11159545997E+03  0.12617482250E+03  0.00000000000E+00 0. -1.
         -5    1    3    3    0  503  0.37712002485E+01  0.30778366760E+02 -0.74978575947E+02  0.81273652944E+02  0.47000000000E+01 0.  1.
         11    1    4    4    0    0 -0.43523855530E+02 -0.30640050951E+02  0.54484705004E+02  0.76169034403E+02  0.00000000000E+00 0. -1.
        -12    1    4    4    0    0  0.15718231837E+02  0.39966801274E+01 -0.15839877066E+02  0.22670200034E+02  0.00000000000E+00 0.  1.
</event>
<event>
12    1  0.9873238E-001  0.2337431E+03  0.7818608E-02  0.1124103E+00
         21   -1    0    0  501  502  0.00000000000E+00  0.00000000000E+00  0.42339924312E+03  0.42339924312E+03  0.00000000000E+00 0.  1.
         21   -1    0    0  502  503 -0.00000000000E+00 -0.00000000000E+00 -0.14301080468E+03  0.14301080468E+03  0.00000000000E+00 0.  1.
         -6    2    1    2    0  503  0.15549372366E+03  0.27666795240E+02  0.22953305108E+03  0.32759922715E+03  0.17231390668E+03 0.  0.
        -24    2    3    3    0    0  0.72819434436E+02 -0.35432724278E+02  0.17757559952E+03  0.21124522320E+03  0.80828848808E+02 0.  0.
          6    2    1    2  501    0 -0.15549372366E+03 -0.27666795240E+02  0.50855387365E+02  0.23881082065E+03  0.17175735204E+03 0.  0.
         24    2    5    5    0    0 -0.21198370194E+02 -0.15451831511E+02  0.59277250798E+02  0.10361664517E+03  0.80836171967E+02 0.  0.
          5    1    5    5  501    0 -0.13429535346E+03 -0.12214963729E+02 -0.84218634331E+01  0.13519417548E+03  0.47000000000E+01 0. -1.
        -11    1    6    6    0    0 -0.31553496874E+02  0.11216265050E+01  0.73135103250E+02  0.79659428434E+02  0.00000000000E+00 0.  1.
         12    1    6    6    0    0  0.10355126680E+02 -0.16573458016E+02 -0.13857852453E+02  0.23957216737E+02  0.00000000000E+00 0. -1.
         -5    1    3    3    0  503  0.82674289221E+02  0.63099519518E+02  0.51957451558E+02  0.11635400394E+03  0.47000000000E+01 0.  1.
         11    1    4    4    0    0  0.89727648905E+02 -0.23142547511E+02  0.13404629065E+03  0.16295716161E+03  0.00000000000E+00 0. -1.
        -12    1    4    4    0    0 -0.16908214469E+02 -0.12290176766E+02  0.43529308874E+02  0.48288061594E+02  0.00000000000E+00 0.  1.
</event>
<event>
12    1  0.9873238E-001  0.3108669E+03  0.7818608E-02  0.1079952E+00
         21   -1    0    0  503  502  0.00000000000E+00  0.00000000000E+00  0.77372285696E+03  0.77372285696E+03  0.00000000000E+00 0. -1.
         21   -1    0    0  501  503 -0.00000000000E+00 -0.00000000000E+00 -0.14254853173E+03  0.14254853173E+03  0.00000000000E+00 0. -1.
          6    2    1    2  501    0  0.10800027931E+02  0.25843701942E+03  0.47702902582E+03  0.56928582502E+03  0.17211428030E+03 0.  0.
         24    2    3    3    0    0 -0.36535034773E+02  0.15213151614E+03  0.19285396503E+03  0.26217180163E+03  0.84039245430E+02 0.  0.
         -6    2    1    2    0  502 -0.10800027931E+02 -0.25843701942E+03  0.15414529941E+03  0.34698556367E+03  0.17242933178E+03 0.  0.
        -24    2    5    5    0    0  0.28644500641E+02 -0.22500668717E+03  0.16808507002E+03  0.29322809765E+03  0.79256607298E+02 0.  0.
          5    1    3    3  501    0  0.47335062704E+02  0.10630550328E+03  0.28417506079E+03  0.30711402339E+03  0.47000000000E+01 0. -1.
        -11    1    4    4    0    0 -0.24369154643E+02  0.14565218856E+03  0.12664723476E+03  0.19454546462E+03  0.00000000000E+00 0.  1.
         12    1    4    4    0    0 -0.12165880130E+02  0.64793275822E+01  0.66206730262E+02  0.67626337009E+02  0.00000000000E+00 0. -1.
         -5    1    5    5    0  502 -0.39444528572E+02 -0.33430332252E+02 -0.13939770610E+02  0.53757466025E+02  0.47000000000E+01 0.  1.
         11    1    6    6    0    0  0.27214817318E+02 -0.13933656443E+03  0.14828209368E+03  0.20528736877E+03  0.00000000000E+00 0. -1.
        -12    1    6    6    0    0  0.14296833233E+01 -0.85670122737E+02  0.19802976337E+02  0.87940728880E+02  0.00000000000E+00 0.  1.
</event>
<event>
12    1  0.9873238E-001  0.2672304E+03  0.7818608E-02  0.1103064E+00
         21   -1    0    0  503  502  0.00000000000E+00  0.00000000000E+00  0.69486416021E+03  0.69486416021E+03  0.00000000000E+00 0.  1.
         21   -1    0    0  501  503 -0.00000000000E+00 -0.00000000000E+00 -0.17912087230E+03  0.17912087230E+03  0.00000000000E+00 0. -1.
          6    2    1    2  501    0 -0.14951288489E+03 -0.13878360858E+03 -0.28720622135E+02  0.26747615124E+03  0.17059784461E+03 0.  0.
         24    2    3    3    0    0 -0.77690213400E+02 -0.14848843455E+03 -0.49912255136E+02  0.19181998760E+03  0.78861207029E+02 0.  0.
         -6    2    1    2    0  502  0.14951288489E+03  0.13878360858E+03  0.54446391004E+03  0.60650888127E+03  0.17261831005E+03 0.  0.
        -24    2    5    5    0    0  0.13268614965E+03  0.13150563580E+03  0.30525442756E+03  0.36655185509E+03  0.79250554373E+02 0.  0.
          5    1    3    3  501    0 -0.71822671494E+02  0.97048259750E+01  0.21191633001E+02  0.75656163642E+02  0.47000000000E+01 0. -1.
        -11    1    4    4    0    0 -0.50453684441E+02 -0.81240269554E+02  0.12074950071E+02  0.96391701355E+02  0.00000000000E+00 0.  1.
         12    1    4    4    0    0 -0.27236528959E+02 -0.67248165001E+02 -0.61987205206E+02  0.95428286242E+02  0.00000000000E+00 0. -1.
         -5    1    5    5    0  502  0.16826735248E+02  0.72779727836E+01  0.23920948248E+03  0.23995702618E+03  0.47000000000E+01 0.  1.
         13    1    6    6    0    0  0.35112512118E+02  0.56897638900E+02  0.50687704251E+02  0.83901568411E+02  0.00000000000E+00 0. -1.
        -14    1    6    6    0    0  0.97573637529E+02  0.74607996896E+02  0.25456672331E+03  0.28265028668E+03  0.00000000000E+00 0.  1.
</event>
<event>
12    1  0.9873238E-001  0.1960471E+03  0.7818608E-02  0.1153785E+00
         21   -1    0    0  501  502  0.00000000000E+00  0.00000000000E+00  0.17070654495E+04  0.17070654495E+04  0.00000000000E+00 0. -1.
         21   -1    0    0  502  503 -0.00000000000E+00 -0.00000000000E+00 -0.24327769300E+02  0.24327769300E+02  0.00000000000E+00 0. -1.
         -6    2    1    2    0  503  0.89787522434E+02  0.74411852173E+01  0.11054959101E+04  0.11227447032E+04  0.17411861136E+03 0.  0.
        -24    2    3    3    0    0  0.79204331074E+02 -0.17352784050E+02  0.38581314214E+03  0.40254186969E+03  0.81324848788E+02 0.  0.
          6    2    1    2  501    0 -0.89787522434E+02 -0.74411852173E+01  0.57724177009E+03  0.60864851562E+03  0.17066863804E+03 0.  0.
         24    2    5    5    0    0 -0.10124870719E+03  0.90760209850E+01  0.25673920256E+03  0.28748163898E+03  0.79981246282E+02 0.  0.
          5    1    5    5  501    0  0.11461184754E+02 -0.16517206202E+02  0.32050256753E+03  0.32116687664E+03  0.47000000000E+01 0. -1.
        -11    1    6    6    0    0  0.37580417181E+01 -0.19980796693E+02  0.43732113309E+02  0.48227096621E+02  0.00000000000E+00 0.  1.
         12    1    6    6    0    0 -0.10500674891E+03  0.29056817678E+02  0.21300708925E+03  0.23925454236E+03  0.00000000000E+00 0. -1.
         -5    1    3    3    0  503  0.10583191361E+02  0.24793969267E+02  0.71968276799E+03  0.72020283350E+03  0.47000000000E+01 0.  1.
         11    1    4    4    0    0  0.31767693279E+01  0.16662094458E+02  0.17578621567E+03  0.17660269215E+03  0.00000000000E+00 0. -1.
        -12    1    4    4    0    0  0.76027561746E+02 -0.34014878507E+02  0.21002692647E+03  0.22593917754E+03  0.00000000000E+00 0.  1.
</event>
<event>
12    1  0.9873238E-001  0.1747918E+03  0.7818608E-02  0.1173158E+00
         21   -1    0    0  503  502  0.00000000000E+00  0.00000000000E+00  0.12547773312E+03  0.12547773312E+03  0.00000000000E+00 0. -1.
         21   -1    0    0  501  503 -0.00000000000E+00 -0.00000000000E+00 -0.29765180296E+03  0.29765180296E+03  0.00000000000E+00 0. -1.
          6    2    1    2  501    0  0.18400687953E+02  0.18215691605E+02 -0.17750455508E+03  0.24911853611E+03  0.17286347567E+03 0.  0.
         24    2    3    3    0    0 -0.32561685787E+02 -0.21346845993E+02 -0.38137840515E+02  0.95471118143E+02  0.78385510811E+02 0.  0.
         -6    2    1    2    0  502 -0.18400687953E+02 -0.18215691605E+02  0.53304852445E+01  0.17401099997E+03  0.17199132914E+03 0.  0.
        -24    2    5    5    0    0  0.48483351841E+02 -0.18975860066E+02  0.32048150106E+02  0.10183083475E+03  0.81435350493E+02 0.  0.
          5    1    3    3  501    0  0.50962373741E+02  0.39562537598E+02 -0.13936671457E+03  0.15364741797E+03  0.47000000000E+01 0. -1.
        -13    1    4    4    0    0 -0.41204811266E+02 -0.44678766831E+02 -0.35658063591E+02  0.70466489739E+02  0.00000000000E+00 0.  1.
         14    1    4    4    0    0  0.86431254782E+01  0.23331920839E+02 -0.24797769236E+01  0.25004628404E+02  0.00000000000E+00 0. -1.
         -5    1    5    5    0  502 -0.66884039795E+02  0.76016846037E+00 -0.26717664862E+02  0.72180165219E+02  0.47000000000E+01 0.  1.
         11    1    6    6    0    0  0.17098844716E+02  0.29717422736E+01 -0.26614872809E+02  0.31773466877E+02  0.00000000000E+00 0. -1.
        -12    1    6    6    0    0  0.31384507125E+02 -0.21947602339E+02  0.58663022915E+02  0.70057367874E+02  0.00000000000E+00 0.  1.
</event>
<event>
12    1  0.9873238E-001  0.1839782E+03  0.7818608E-02  0.1164070E+00
         21   -1    0    0  501  502  0.00000000000E+00  0.00000000000E+00  0.18716733339E+03  0.18716733339E+03  0.00000000000E+00 0. -1.
         21   -1    0    0  502  503 -0.00000000000E+00 -0.00000000000E+00 -0.18483076949E+03  0.18483076949E+03  0.00000000000E+00 0. -1.
         -6    2    1    2    0  503 -0.53504924550E+02  0.38114204163E+02 -0.27030462651E+02  0.18595330162E+03  0.17185026902E+03 0.  0.
        -24    2    3    3    0    0  0.32835877270E+02  0.18384044818E+01  0.48015728754E+01  0.86927869600E+02  0.80323252200E+02 0.  0.
          6    2    1    2  501    0  0.53504924550E+02 -0.38114204163E+02  0.29367026556E+02  0.18604480126E+03  0.17156566182E+03 0.  0.
         24    2    5    5    0    0  0.70076216255E+02 -0.38487455907E+02 -0.35561404313E+02  0.11886937301E+03  0.80457156394E+02 0.  0.
          5    1    5    5  501    0 -0.16571291705E+02  0.37325174428E+00  0.64928430869E+02  0.67175428251E+02  0.47000000000E+01 0. -1.
        -11    1    6    6    0    0  0.13062657835E+02 -0.52994025271E+02 -0.16148467706E+02  0.56919001690E+02  0.00000000000E+00 0.  1.
         12    1    6    6    0    0  0.57013558420E+02  0.14506569363E+02 -0.19412936608E+02  0.61950371315E+02  0.00000000000E+00 0. -1.
         -5    1    3    3    0  503 -0.86340801821E+02  0.36275799681E+02 -0.31832035527E+02  0.99025432023E+02  0.47000000000E+01 0.  1.
         11    1    4    4    0    0  0.46316816252E+02  0.24781682564E+02 -0.13978209040E+02  0.54357792324E+02  0.00000000000E+00 0. -1.
        -12    1    4    4    0    0 -0.13480938981E+02 -0.22943278082E+02  0.18779781915E+02  0.32570077276E+02  0.00000000000E+00 0.  1.
</event>
<event>
12    1  0.9873238E-001  0.1757746E+03  0.7818608E-02  0.1171980E+00
         21   -1    0    0  503  502  0.00000000000E+00  0.00000000000E+00  0.16814830059E+02  0.16814830059E+02  0.00000000000E+00 0.  1.
         21   -1    0    0  501  503 -0.00000000000E+00 -0.00000000000E+00 -0.19987325017E+04  0.19987325017E+04  0.00000000000E+00 0.  1.
          6    2    1    2  501    0 -0.24602882167E+02  0.17268538261E+02 -0.70405691066E+03  0.72566716984E+03  0.17318546045E+03 0.  0.
         24    2    3    3    0    0 -0.32480898542E+02 -0.18711950452E+02 -0.66747797672E+03  0.67354455365E+03  0.82038225782E+02 0.  0.
         -6    2    1    2    0  502  0.24602882167E+02 -0.17268538261E+02 -0.12778607609E+04  0.12898801619E+04  0.17308727114E+03 0.  0.
        -24    2    5    5    0    0 -0.30884047764E+02 -0.58864457903E+02 -0.62821312962E+03  0.63652485670E+03  0.78059644887E+02 0.  0.
          5    1    3    3  501    0  0.78780163755E+01  0.35980488713E+02 -0.36578933942E+02  0.52122616189E+02  0.47000000000E+01 0. -1.
        -11    1    4    4    0    0 -0.20425620853E+02 -0.50865440474E+02 -0.35885946430E+03  0.36302150644E+03  0.00000000000E+00 0.  1.
         12    1    4    4    0    0 -0.12055277689E+02  0.32153490022E+02 -0.30861851242E+03  0.31052304721E+03  0.00000000000E+00 0. -1.
         -5    1    5    5    0  502  0.55486929931E+02  0.41595919642E+02 -0.64964763131E+03  0.65335530517E+03  0.47000000000E+01 0.  1.
         11    1    6    6    0    0  0.15917064159E+02 -0.44080738618E+02 -0.41992553201E+03  0.42253274061E+03  0.00000000000E+00 0. -1.
        -12    1    6    6    0    0 -0.46801111923E+02 -0.14783719284E+02 -0.20828759760E+03  0.21399211609E+03  0.00000000000E+00 0.  1.
</event>
<event>
12    1  0.9873238E-001  0.2702522E+03  0.7818608E-02  0.1101162E+00
         21   -1    0    0  501  502  0.00000000000E+00  0.00000000000E+00  0.11972017844E+04  0.11972017844E+04  0.00000000000E+00 0. -1.
         21   -1    0    0  502  503 -0.00000000000E+00 -0.00000000000E+00 -0.18837589858E+03  0.18837589858E+03  0.00000000000E+00 0. -1.
         -6    2    1    2    0  503  0.28935847840E+02  0.20597463620E+03  0.10742343686E+04  0.11077074295E+04  0.17254980932E+03 0.  0.
        -24    2    3    3    0    0  0.28515091160E+01  0.48285860924E+02  0.59634586298E+03  0.60377721970E+03  0.81110340041E+02 0.  0.
          6    2    1    2  501    0 -0.28935847840E+02 -0.20597463620E+03 -0.65408482795E+02  0.27787025345E+03  0.17225206554E+03 0.  0.
         24    2    5    5    0    0 -0.60388810998E+02 -0.20987374351E+03 -0.37419271830E+02  0.23532641888E+03  0.79274994866E+02 0.  0.
          5    1    5    5  501    0  0.31452963158E+02  0.38991073105E+01 -0.27989210965E+02  0.42543834567E+02  0.47000000000E+01 0. -1.
        -13    1    6    6    0    0 -0.71161314790E+01  0.61978064747E+01 -0.41597529045E+01  0.10312888856E+02  0.00000000000E+00 0.  1.
         14    1    6    6    0    0 -0.53272679519E+02 -0.21607154998E+03 -0.33259518926E+02  0.22501353002E+03  0.00000000000E+00 0. -1.
         -5    1    3    3    0  503  0.26084338724E+02  0.15768877527E+03  0.47788850559E+03  0.50393020980E+03  0.47000000000E+01 0.  1.
         13    1    4    4    0    0  0.29092612183E+02  0.58497476461E+02  0.37515409857E+03  0.38080038408E+03  0.00000000000E+00 0. -1.
        -14    1    4    4    0    0 -0.26241103067E+02 -0.10211615537E+02  0.22119176441E+03  0.22297683562E+03  0.00000000000E+00 0.  1.
</event>
<event>
12    1  0.9873238E-001  0.2010267E+03  0.7818608E-02  0.1149656E+00
         21   -1    0    0  503  502  0.00000000000E+00  0.00000000000E+00  0.20764314000E+03  0.20764314000E+03  0.00000000000E+00 0.  1.
         21   -1    0    0  501  503 -0.00000000000E+00 -0.00000000000E+00 -0.19216299426E+03  0.19216299426E+03  0.00000000000E+00 0.  1.
          6    2    1    2  501    0  0.95267811314E+01  0.10007478474E+03 -0.72848814830E+01  0.20115866360E+03  0.17408623250E+03 0.  0.
         24    2    3    3    0    0 -0.56080063313E+02  0.28793989345E+02 -0.14112911187E+02  0.10392738356E+03  0.81410438319E+02 0.  0.
         -6    2    1    2    0  502 -0.95267811314E+01 -0.10007478474E+03  0.22765027228E+02  0.19864747066E+03  0.16981416029E+03 0.  0.
        -24    2    5    5    0    0 -0.18699166697E+02  0.12467022670E+02 -0.26323968157E+01  0.82816083635E+02  0.79664852389E+02 0.  0.
          5    1    3    3  501    0  0.65606844444E+02  0.71280795392E+02  0.68280297039E+01  0.97231280046E+02  0.47000000000E+01 0. -1.
        -13    1    4    4    0    0  0.16416117268E+02 -0.98216562545E+01  0.46180939138E+01  0.19679446871E+02  0.00000000000E+00 0.  1.
         14    1    4    4    0    0 -0.72496180580E+02  0.38615645600E+02 -0.18731005101E+02  0.84247936686E+02  0.00000000000E+00 0. -1.
         -5    1    5    5    0  502  0.91723855657E+01 -0.11254180741E+03  0.25397424043E+02  0.11583138702E+03  0.47000000000E+01 0.  1.
         13    1    6    6    0    0  0.11149310322E+02 -0.23460670266E+02  0.18154362339E+02  0.31690551303E+02  0.00000000000E+00 0. -1.
        -14    1    6    6    0    0 -0.29848477019E+02  0.35927692936E+02 -0.20786759155E+02  0.51125532332E+02  0.00000000000E+00 0.  1.
</event>
<event>
12    1  0.9873238E-001  0.2960442E+03  0.7818608E-02  0.1087607E+00
         21   -1    0    0  501  502  0.00000000000E+00  0.00000000000E+00  0.23048113873E+03  0.23048113873E+03  0.00000000000E+00 0.  1.
         21   -1    0    0  502  503 -0.00000000000E+00 -0.00000000000E+00 -0.85822441839E+03  0.85822441839E+03  0.00000000000E+00 0.  1.
         -6    2    1    2    0  503  0.16427410835E+03  0.17505649355E+03 -0.72237118942E+03  0.78068066346E+03  0.17323799924E+03 0.  0.
        -24    2    3    3    0    0  0.15049895559E+02  0.72099467131E+02 -0.33820243630E+03  0.35585630464E+03  0.82631647165E+02 0.  0.
          6    2    1    2  501    0 -0.16427410835E+03 -0.17505649355E+03  0.94627909761E+02  0.30802489366E+03  0.16820860620E+03 0.  0.
         24    2    5    5    0    0 -0.15327609434E+03 -0.72511610810E+02  0.78676347877E+02  0.20355982000E+03  0.80592417790E+02 0.  0.
          5    1    5    5  501    0 -0.10998014014E+02 -0.10254488274E+03  0.15951561883E+02  0.10446507366E+03  0.47000000000E+01 0. -1.
        -11    1    6    6    0    0 -0.14838206327E+02 -0.41305610693E+02  0.31456666067E+02  0.53998589627E+02  0.00000000000E+00 0.  1.
         12    1    6    6    0    0 -0.13843788801E+03 -0.31206000117E+02  0.47219681811E+02  0.14956123037E+03  0.00000000000E+00 0. -1.
         -5    1    3    3    0  503  0.14922421279E+03  0.10295702642E+03 -0.38416875312E+03  0.42482435882E+03  0.47000000000E+01 0.  1.
         13    1    4    4    0    0 -0.38908137315E+01  0.81085430555E+02 -0.31151914293E+03  0.32192260233E+03  0.00000000000E+00 0. -1.
        -14    1    4    4    0    0  0.18940709290E+02 -0.89859634230E+01 -0.26683293369E+02  0.33933702305E+02  0.00000000000E+00 0.  1.
</event>
<event>
12    1  0.9873238E-001  0.1784804E+03  0.7818608E-02  0.1170624E+00
         21   -1    0    0  501  502  0.00000000000E+00  0.00000000000E+00  0.90418596901E+02  0.90418596901E+02  0.00000000000E+00 0. -1.
         21   -1    0    0  502  503 -0.00000000000E+00 -0.00000000000E+00 -0.38983864751E+03  0.38983864751E+03  0.00000000000E+00 0. -1.
         -6    2    1    2    0  503 -0.38575143363E+02  0.25628716800E+02 -0.23606594270E+03  0.29594318999E+03  0.17236696200E+03 0.  0.
        -24    2    3    3    0    0  0.73708676460E+01  0.67318245942E+02 -0.19743932748E+03  0.22270960363E+03  0.77660824026E+02 0.  0.
          6    2    1    2  501    0  0.38575143363E+02 -0.25628716800E+02 -0.63354107900E+02  0.18431405441E+03  0.16677246432E+03 0.  0.
         24    2    5    5    0    0  0.53681938637E+02 -0.14978650001E+02  0.18005741561E+02  0.10074878477E+03  0.81975608636E+02 0.  0.
          5    1    5    5  501    0 -0.15106795275E+02 -0.10650066798E+02 -0.81359849461E+02  0.83565269644E+02  0.47000000000E+01 0. -1.
        -13    1    6    6    0    0  0.10065053711E+02 -0.44899430078E+02  0.50344059456E+01  0.46288328667E+02  0.00000000000E+00 0.  1.
         14    1    6    6    0    0  0.43616884926E+02  0.29920780077E+02  0.12971335615E+02  0.54460456101E+02  0.00000000000E+00 0. -1.
         -5    1    3    3    0  503 -0.45946011009E+02 -0.41689529142E+02 -0.38626615226E+02  0.73233586362E+02  0.47000000000E+01 0.  1.
         13    1    4    4    0    0  0.50534932180E+01  0.12355107350E+02  0.39668394494E+01  0.13925598247E+02  0.00000000000E+00 0. -1.
        -14    1    4    4    0    0  0.23173744281E+01  0.54963138592E+02 -0.20140616693E+03  0.20878400539E+03  0.00000000000E+00 0.  1.
</event>
<event>
12    1  0.9873238E-001  0.2004057E+03  0.7818608E-02  0.1149405E+00
         21   -1    0    0  501  502  0.00000000000E+00  0.00000000000E+00  0.94231206839E+02  0.94231206839E+02  0.00000000000E+00 0. -1.
         21   -1    0    0  502  503 -0.00000000000E+00 -0.00000000000E+00 -0.57505547988E+03  0.57505547988E+03  0.00000000000E+00 0. -1.
         -6    2    1    2    0  503  0.48433724500E+02 -0.91387586865E+02 -0.70130317191E+02  0.21232216878E+03  0.17165350350E+03 0.  0.
        -24    2    3    3    0    0  0.91406365285E+02 -0.47289671531E+02 -0.74315131519E+02  0.15042809262E+03  0.80712053800E+02 0.  0.
          6    2    1    2  501    0 -0.48433724500E+02  0.91387586865E+02 -0.41069395585E+03  0.45696451794E+03  0.17160864949E+03 0.  0.
         24    2    5    5    0    0 -0.65026110845E+02  0.50013001193E+01 -0.29635495612E+03  0.31262673812E+03  0.75205114710E+02 0.  0.
          5    1    5    5  501    0  0.16592386345E+02  0.86386286746E+02 -0.11433899973E+03  0.14433777982E+03  0.47000000000E+01 0. -1.
        -13    1    6    6    0    0 -0.10952662491E+02  0.88402015852E+01 -0.31118101397E+01  0.14415038746E+02  0.00000000000E+00 0.  1.
         14    1    6    6    0    0 -0.54073448354E+02 -0.38389014659E+01 -0.29324314598E+03  0.29821169938E+03  0.00000000000E+00 0. -1.
         -5    1    3    3    0  503 -0.42972640786E+02 -0.44097915335E+02  0.41848143275E+01  0.61894076162E+02  0.47000000000E+01 0.  1.
         11    1    4    4    0    0  0.79190649624E+02 -0.66267310677E+02 -0.75360233734E+02  0.12783458171E+03  0.00000000000E+00 0. -1.
        -12    1    4    4    0    0  0.12215715662E+02  0.18977639146E+02  0.10451022151E+01  0.22593510912E+02  0.00000000000E+00 0.  1.
</event>
<event>
12    1  0.9873238E-001  0.3039334E+03  0.7818608E-02  0.1083297E+00
         21   -1    0    0  503  502  0.00000000000E+00  0.00000000000E+00  0.60082250785E+03  0.60082250785E+03  0.00000000000E+00 0.  1.
         21   -1    0    0  501  503 -0.00000000000E+00 -0.00000000000E+00 -0.15514992472E+03  0.15514992472E+03  0.00000000000E+00 0.  1.
          6    2    1    2  501    0  0.72755875960E+02  0.23940766614E+03  0.25913242833E+03  0.39940595496E+03  0.17252841317E+03 0.  0.
         24    2    3    3    0    0  0.61587351148E+02  0.11746955408E+03  0.22322273276E+03  0.27171400002E+03  0.80050055779E+02 0.  0.
         -6    2    1    2    0  502 -0.72755875960E+02 -0.23940766614E+03  0.18654015480E+03  0.35656647760E+03  0.17243252450E+03 0.  0.
        -24    2    5    5    0    0  0.24692713961E+02 -0.10311550575E+03  0.10866972059E+03  0.17174852613E+03  0.80286427290E+02 0.  0.
          5    1    3    3  501    0  0.11168524812E+02  0.12193811207E+03  0.35909695574E+02  0.12769195494E+03  0.47000000000E+01 0. -1.
        -11    1    4    4    0    0  0.13225388742E+02  0.84440540824E+02  0.17889928180E+03  0.19826766976E+03  0.00000000000E+00 0.  1.
         12    1    4    4    0    0  0.48361962406E+02  0.33029013251E+02  0.44323450956E+02  0.73446330261E+02  0.00000000000E+00 0. -1.
         -5    1    5    5    0  502 -0.97448589921E+02 -0.13629216040E+03  0.77870434204E+02  0.18481795147E+03  0.47000000000E+01 0.  1.
         11    1    6    6    0    0  0.30348489936E+02 -0.11520109326E+03  0.10199404696E+03  0.15682827661E+03  0.00000000000E+00 0. -1.
        -12    1    6    6    0    0 -0.56557759753E+01  0.12085587511E+02  0.66756736354E+01  0.14920249524E+02  0.00000000000E+00 0.  1.
</event>
<event>
12    1  0.9873238E-001  0.2813791E+03  0.7818608E-02  0.1095167E+00
         21   -1    0    0  501  502  0.00000000000E+00  0.00000000000E+00  0.42470304219E+03  0.42470304219E+03  0.00000000000E+00 0.  1.
         21   -1    0    0  502  503 -0.00000000000E+00 -0.00000000000E+00 -0.50797927619E+03  0.50797927619E+03  0.00000000000E+00 0.  1.
         -6    2    1    2    0  503 -0.20699851578E+03 -0.80968346226E+02  0.33007924305E+03  0.43264538477E+03  0.16978063391E+03 0.  0.
        -24    2    3    3    0    0 -0.30690082929E+02 -0.32481380313E-01  0.11876270961E+03  0.14574462664E+03  0.78708530389E+02 0.  0.
          6    2    1    2  501    0  0.20699851578E+03  0.80968346226E+02 -0.41335547704E+03  0.50003693361E+03  0.17253963589E+03 0.  0.
         24    2    5    5    0    0  0.20732949024E+03  0.32290951961E+02 -0.37864184619E+03  0.44006423630E+03  0.79111701274E+02 0.  0.
          5    1    5    5  501    0 -0.33097446448E+00  0.48677394265E+02 -0.34713630848E+02  0.59972697314E+02  0.47000000000E+01 0. -1.
        -13    1    6    6    0    0  0.11084680051E+03 -0.18157069065E+02 -0.15604434717E+03  0.19226682143E+03  0.00000000000E+00 0.  1.
         14    1    6    6    0    0  0.96482689736E+02  0.50448021027E+02 -0.22259749902E+03  0.24779741486E+03  0.00000000000E+00 0. -1.
         -5    1    3    3    0  503 -0.17630843285E+03 -0.80935864846E+02  0.21131653344E+03  0.28690075813E+03  0.47000000000E+01 0.  1.
         13    1    4    4    0    0 -0.50859072689E+02 -0.21308486845E+02  0.75973449108E+02  0.93875778855E+02  0.00000000000E+00 0. -1.
        -14    1    4    4    0    0  0.20168989759E+02  0.21276005465E+02  0.42789260502E+02  0.51868847787E+02  0.00000000000E+00 0.  1.
</event>
<event>
12    1  0.9873238E-001  0.3537752E+03  0.7818608E-02  0.1061337E+00
         21   -1    0    0  501  502  0.00000000000E+00  0.00000000000E+00  0.15154516001E+03  0.15154516001E+03  0.00000000000E+00 0.  1.
         21   -1    0    0  502  503 -0.00000000000E+00 -0.00000000000E+00 -0.89995091771E+03  0.89995091771E+03  0.00000000000E+00 0.  1.
         -6    2    1    2    0  503  0.15736485756E+03  0.26673215722E+03 -0.52977644445E+03  0.63561666484E+03  0.16563731899E+03 0.  0.
        -24    2    3    3    0    0  0.11236925797E+03  0.93158426600E+02 -0.31037258081E+03  0.35222190602E+03  0.80148546990E+02 0.  0.
          6    2    1    2  501    0 -0.15736485756E+03 -0.26673215722E+03 -0.21862931325E+03  0.41587941288E+03  0.17101803226E+03 0.  0.
         24    2    5    5    0    0 -0.64059042171E+02 -0.58893655679E+02 -0.11500802509E+03  0.16555506475E+03  0.81299508405E+02 0.  0.
          5    1    5    5  501    0 -0.93305815388E+02 -0.20783850154E+03 -0.10362128816E+03  0.25032434813E+03  0.47000000000E+01 0. -1.
        -11    1    6    6    0    0  0.10429382833E+02 -0.25300391195E+02 -0.63021518316E+02  0.68706576044E+02  0.00000000000E+00 0.  1.
         12    1    6    6    0    0 -0.74488425004E+02 -0.33593264484E+02 -0.51986506771E+02  0.96848488706E+02  0.00000000000E+00 0. -1.
         -5    1    3    3    0  503  0.44995599592E+02  0.17357373062E+03 -0.21940386364E+03  0.28339475882E+03  0.47000000000E+01 0.  1.
         13    1    4    4    0    0  0.88440208105E+02  0.46658995151E+02 -0.12758583789E+03  0.16210144438E+03  0.00000000000E+00 0. -1.
        -14    1    4    4    0    0  0.23929049862E+02  0.46499431448E+02 -0.18278674291E+03  0.19012046165E+03  0.00000000000E+00 0.  1.
</event>
<event>
12    1  0.9873238E-001  0.2087289E+03  0.7818608E-02  0.1145178E+00
         21   -1    0    0  501  502  0.00000000000E+00  0.00000000000E+00  0.51460370997E+03  0.51460370997E+03  0.00000000000E+00 0.  1.
         21   -1    0    0  502  503 -0.00000000000E+00 -0.00000000000E+00 -0.91899709929E+02  0.91899709929E+02  0.00000000000E+00 0.  1.
         -6    2    1    2    0  503  0.97448553167E+02  0.63884418125E+02  0.31642897627E+03  0.37227675276E+03  0.15775057600E+03 0.  0.
        -24    2    3    3    0    0  0.10180098057E+03  0.84012230591E+01  0.15701592541E+03  0.20336275292E+03  0.79173153579E+02 0.  0.
          6    2    1    2  501    0 -0.97448553167E+02 -0.63884418125E+02  0.10627502377E+03  0.23422666714E+03  0.17317711029E+03 0.  0.
         24    2    5    5    0    0  0.15116678800E+02 -0.39234292304E+02  0.27308752614E+02  0.94454273115E+02  0.80049972329E+02 0.  0.
          5    1    5    5  501    0 -0.11256523197E+03 -0.24650125821E+02  0.78966271158E+02  0.13977239402E+03  0.47000000000E+01 0. -1.
        -13    1    6    6    0    0 -0.80158467743E+01  0.20973741780E+02 -0.39198942296E+01  0.22792920272E+02  0.00000000000E+00 0.  1.
         14    1    6    6    0    0  0.23132525574E+02 -0.60208034084E+02  0.31228646844E+02  0.71661352843E+02  0.00000000000E+00 0. -1.
         -5    1    3    3    0  503 -0.43524274022E+01  0.55483195066E+02  0.15941305086E+03  0.16891399984E+03  0.47000000000E+01 0.  1.
         13    1    4    4    0    0 -0.39320077590E+01  0.89958004227E+01  0.56931675181E+02  0.57771972003E+02  0.00000000000E+00 0. -1.
        -14    1    4    4    0    0  0.10573298833E+03 -0.59457736358E+00  0.10008425023E+03  0.14559078092E+03  0.00000000000E+00 0.  1.
</event>
<event>
12    1  0.9873238E-001  0.2081733E+03  0.7818608E-02  0.1144713E+00
         21   -1    0    0  503  502  0.00000000000E+00  0.00000000000E+00  0.17902461684E+03  0.17902461684E+03  0.00000000000E+00 0.  1.
         21   -1    0    0  501  503 -0.00000000000E+00 -0.00000000000E+00 -0.23357570118E+03  0.23357570118E+03  0.00000000000E+00 0.  1.
          6    2    1    2  501    0  0.11778803124E+03  0.44405792158E+01 -0.13049585363E+02  0.20033049417E+03  0.16145673156E+03 0.  0.
         24    2    3    3    0    0  0.49854035264E+02  0.59464646850E+02 -0.13393038491E+02  0.11278117213E+03  0.80738777861E+02 0.  0.
         -6    2    1    2    0  502 -0.11778803124E+03 -0.44405792158E+01 -0.41501498983E+02  0.21226982385E+03  0.17158777536E+03 0.  0.
        -24    2    5    5    0    0 -0.13975450729E+03  0.85773344023E+01  0.42346914846E+01  0.15967817753E+03  0.76643948171E+02 0.  0.
          5    1    3    3  501    0  0.67933995981E+02 -0.55024067634E+02  0.34345312844E+00  0.87549322036E+02  0.47000000000E+01 0. -1.
        -13    1    4    4    0    0  0.12099171952E+02  0.41229433935E+02 -0.43515597549E+02  0.61154422690E+02  0.00000000000E+00 0.  1.
         14    1    4    4    0    0  0.37754863312E+02  0.18235212915E+02  0.30122559058E+02  0.51626749442E+02  0.00000000000E+00 0. -1.
         -5    1    5    5    0  502  0.21966476050E+02 -0.13017913618E+02 -0.45736190468E+02  0.52591646328E+02  0.47000000000E+01 0.  1.
         11    1    6    6    0    0 -0.11282148451E+03  0.37144626501E+02 -0.65592142613E+01  0.11895979967E+03  0.00000000000E+00 0. -1.
        -12    1    6    6    0    0 -0.26933022781E+02 -0.28567292098E+02  0.10793905746E+02  0.40718377856E+02  0.00000000000E+00 0.  1.
</event>
<event>
12    1  0.9873238E-001  0.2291166E+03  0.7818608E-02  0.1128764E+00
         21   -1    0    0  503  502  0.00000000000E+00  0.00000000000E+00  0.24618567517E+03  0.24618567517E+03  0.00000000000E+00 0.  1.
         21   -1    0    0  501  503 -0.00000000000E+00 -0.00000000000E+00 -0.21091311583E+03  0.21091311583E+03  0.00000000000E+00 0.  1.
          6    2    1    2  501    0 -0.14118184962E+03 -0.48776655099E+02  0.53731488320E+02  0.22723980028E+03  0.16260189805E+03 0.  0.
         24    2    3    3    0    0 -0.11896672308E+03 -0.68459088487E+02 -0.79496610162E+01  0.15862810875E+03  0.79119857031E+02 0.  0.
         -6    2    1    2    0  502  0.14118184962E+03  0.48776655099E+02 -0.18458928983E+02  0.22985899072E+03  0.17373240001E+03 0.  0.
        -24    2    5    5    0    0  0.74505126963E+02  0.11230027917E+02  0.55903341199E+02  0.12305369224E+03  0.79623489918E+02 0.  0.
          5    1    3    3  501    0 -0.22215126535E+02  0.19682433388E+02  0.61681149336E+02  0.68611691529E+02  0.47000000000E+01 0. -1.
        -13    1    4    4    0    0 -0.21452040900E+02  0.15120140332E+02  0.11641416043E+02  0.28711169776E+02  0.00000000000E+00 0.  1.
         14    1    4    4    0    0 -0.97514682184E+02 -0.83579228818E+02 -0.19591077059E+02  0.12991693897E+03  0.00000000000E+00 0. -1.
         -5    1    5    5    0  502  0.66676722656E+02  0.37546627181E+02 -0.74362270182E+02  0.10680529848E+03  0.47000000000E+01 0.  1.
         11    1    6    6    0    0  0.71782873597E+02 -0.19157960035E+02  0.22088577678E+02  0.77509442253E+02  0.00000000000E+00 0. -1.
        -12    1    6    6    0    0  0.27222533667E+01  0.30387987953E+02  0.33814763521E+02  0.45544249990E+02  0.00000000000E+00 0.  1.
</event>
<event>
12    1  0.9873238E-001  0.1920951E+03  0.7818608E-02  0.1157455E+00
         21   -1    0    0  503  502  0.00000000000E+00  0.00000000000E+00  0.16826949563E+03  0.16826949563E+03  0.00000000000E+00 0.  1.
         21   -1    0    0  501  503 -0.00000000000E+00 -0.00000000000E+00 -0.44630253831E+03  0.44630253831E+03  0.00000000000E+00 0.  1.
          6    2    1    2  501    0  0.10895151670E+02  0.77487365505E+02  0.82925428996E+02  0.20568142156E+03  0.17118768723E+03 0.  0.
         24    2    3    3    0    0  0.64975011033E+02  0.55857482348E+02  0.17034522653E+02  0.11761221824E+03  0.78744196769E+02 0.  0.
         -6    2    1    2    0  502 -0.10895151670E+02 -0.77487365505E+02 -0.36095847168E+03  0.40889061237E+03  0.17543522585E+03 0.  0.
        -24    2    5    5    0    0  0.23142071832E+02 -0.11526883162E+03 -0.25889780467E+03  0.29476593706E+03  0.77694435811E+02 0.  0.
          5    1    3    3  501    0 -0.54079859364E+02  0.21629883157E+02  0.65890906343E+02  0.88069203317E+02  0.47000000000E+01 0. -1.
        -11    1    4    4    0    0  0.13076796970E+02 -0.88050537999E+00 -0.26273702874E+02  0.29361290357E+02  0.00000000000E+00 0.  1.
         12    1    4    4    0    0  0.51898214063E+02  0.56737987728E+02  0.43308225526E+02  0.88250927885E+02  0.00000000000E+00 0. -1.
         -5    1    5    5    0  502 -0.34037223501E+02  0.37781466115E+02 -0.10206066701E+03  0.11412467531E+03  0.47000000000E+01 0.  1.
         11    1    6    6    0    0 -0.24357258534E+02 -0.48136573284E+02 -0.14145446336E+03  0.15139277042E+03  0.00000000000E+00 0. -1.
        -12    1    6    6    0    0  0.47499330365E+02 -0.67132258337E+02 -0.11744334131E+03  0.14337316664E+03  0.00000000000E+00 0.  1.
</event>
<event>
12    1  0.9873238E-001  0.2491385E+03  0.7818608E-02  0.1114126E+00
         21   -1    0    0  501  502  0.00000000000E+00  0.00000000000E+00  0.15762616050E+04  0.15762616050E+04  0.00000000000E+00 0. -1.
         21   -1    0    0  502  503 -0.00000000000E+00 -0.00000000000E+00 -0.45390410126E+02  0.45390410126E+02  0.00000000000E+00 0.  1.
         -6    2    1    2    0  503  0.42329008534E+02  0.17376955586E+03  0.10694439703E+04  0.10980803185E+04  0.17344271900E+03 0.  0.
        -24    2    3    3    0    0  0.71409540483E+02  0.13677764530E+03  0.99426592496E+03  0.10092664272E+04  0.79035086087E+02 0.  0.
          6    2    1    2  501    0 -0.42329008534E+02 -0.17376955586E+03  0.46142722464E+03  0.52357169668E+03  0.17095214074E+03 0.  0.
         24    2    5    5    0    0 -0.66309512740E+02 -0.15623885744E+03  0.30929469541E+03  0.36849498528E+03  0.10638521286E+03 0.  0.
          5    1    5    5  501    0  0.23980504206E+02 -0.17530698417E+02  0.15213252923E+03  0.15507671140E+03  0.47000000000E+01 0. -1.
        -11    1    6    6    0    0  0.31496873338E+01 -0.10124406554E+03  0.22248826774E+03  0.24446126609E+03  0.00000000000E+00 0.  1.
         12    1    6    6    0    0 -0.69459200074E+02 -0.54994791905E+02  0.86806427664E+02  0.12403371919E+03  0.00000000000E+00 0. -1.
         -5    1    3    3    0  503 -0.29080531949E+02  0.36991910556E+02  0.75178045302E+02  0.88813891259E+02  0.47000000000E+01 0.  1.
         11    1    4    4    0    0  0.85607557177E+02  0.12821726736E+03  0.83265491711E+03  0.84680725817E+03  0.00000000000E+00 0. -1.
        -12    1    4    4    0    0 -0.14198016694E+02  0.85603779413E+01  0.16161100785E+03  0.16245916905E+03  0.00000000000E+00 0.  1.
</event>
<event>
12    1  0.9873238E-001  0.1995325E+03  0.7818608E-02  0.1153290E+00
         21   -1    0    0  501  502  0.00000000000E+00  0.00000000000E+00  0.47065259955E+03  0.47065259955E+03  0.00000000000E+00 0. -1.
         21   -1    0    0  502  503 -0.00000000000E+00 -0.00000000000E+00 -0.96757854042E+02  0.96757854042E+02  0.00000000000E+00 0. -1.
         -6    2    1    2    0  503 -0.89637588534E+02  0.34493919972E+02  0.31536253434E+03  0.37318462111E+03  0.17489569912E+03 0.  0.
        -24    2    3    3    0    0 -0.79051619254E+01 -0.28595701789E+02  0.20457014313E+03  0.22166718355E+03  0.80044931492E+02 0.  0.
          6    2    1    2  501    0  0.89637588534E+02 -0.34493919972E+02  0.58532211170E+02  0.19422583249E+03  0.15834432882E+03 0.  0.
         24    2    5    5    0    0  0.11857657876E+03 -0.11048403505E+02  0.63006600742E+02  0.15642017736E+03  0.79466772285E+02 0.  0.
          5    1    5    5  501    0 -0.28938990227E+02 -0.23445516467E+02 -0.44743895723E+01  0.37805655130E+02  0.47000000000E+01 0. -1.
        -13    1    6    6    0    0  0.55725614988E+02 -0.35027368568E+02  0.23817739942E+01  0.65862990837E+02  0.00000000000E+00 0.  1.
         14    1    6    6    0    0  0.62850963772E+02  0.23978965063E+02  0.60624826748E+02  0.90557186522E+02  0.00000000000E+00 0. -1.
         -5    1    3    3    0  503 -0.81732426608E+02  0.63089621761E+02  0.11079239121E+03  0.15151743756E+03  0.47000000000E+01 0.  1.
         11    1    4    4    0    0  0.18007369853E+02 -0.18540905960E+02  0.18701492826E+03  0.18879251562E+03  0.00000000000E+00 0. -1.
        -12    1    4    4    0    0 -0.25912531778E+02 -0.10054795829E+02  0.17555214869E+02  0.32874667929E+02  0.00000000000E+00 0.  1.
</event>
<event>
12    1  0.9873238E-001  0.1750507E+03  0.7818608E-02  0.1173080E+00
         21   -1    0    0  503  502  0.00000000000E+00  0.00000000000E+00  0.34181581193E+03  0.34181581193E+03  0.00000000000E+00 0.  1.
         21   -1    0    0  501  503 -0.00000000000E+00 -0.00000000000E+00 -0.88955910292E+02  0.88955910292E+02  0.00000000000E+00 0.  1.
          6    2    1    2  501    0 -0.16637080644E+02 -0.18658440257E+02  0.11915545698E+03  0.21175638824E+03  0.17325650114E+03 0.  0.
         24    2    3    3    0    0  0.30650721377E+02  0.43270955900E+02  0.67602571318E+02  0.11820866593E+03  0.81187059977E+02 0.  0.
         -6    2    1    2    0  502  0.16637080644E+02  0.18658440257E+02  0.13370444465E+03  0.21901533398E+03  0.17165636648E+03 0.  0.
        -24    2    5    5    0    0 -0.37842579430E+02 -0.14203011121E+02  0.26785344520E+02  0.94509541657E+02  0.81122206826E+02 0.  0.
          5    1    3    3  501    0 -0.47287802021E+02 -0.61929396157E+02  0.51552885663E+02  0.93547722306E+02  0.47000000000E+01 0. -1.
        -11    1    4    4    0    0 -0.20931840095E+02 -0.96475569975E+01  0.17161375267E+02  0.28735519603E+02  0.00000000000E+00 0.  1.
         12    1    4    4    0    0  0.51582561472E+02  0.52918512898E+02  0.50441196051E+02  0.89473146331E+02  0.00000000000E+00 0. -1.
         -5    1    5    5    0  502  0.54479660074E+02  0.32861451378E+02  0.10691910013E+03  0.12450579232E+03  0.47000000000E+01 0.  1.
         11    1    6    6    0    0 -0.54432197680E+02 -0.72614535691E+01  0.43424616255E+02  0.70009214744E+02  0.00000000000E+00 0. -1.
        -12    1    6    6    0    0  0.16589618250E+02 -0.69415575523E+01 -0.16639271736E+02  0.24500326912E+02  0.00000000000E+00 0.  1.
</event>
<event>
12    1  0.9873238E-001  0.1739180E+03  0.7818608E-02  0.1173978E+00
         21   -1    0    0  501  502  0.00000000000E+00  0.00000000000E+00  0.60659669671E+02  0.60659669671E+02  0.00000000000E+00 0. -1.
         21   -1    0    0  502  503 -0.00000000000E+00 -0.00000000000E+00 -0.56814434744E+03  0.56814434744E+03  0.00000000000E+00 0. -1.
         -6    2    1    2    0  503  0.12491326758E+01 -0.16019004114E+02 -0.14278639144E+03  0.22502319287E+03  0.17317423285E+03 0.  0.
        -24    2    3    3    0    0 -0.42705291271E+02 -0.30497681587E+01 -0.15295829454E+03  0.17784533706E+03  0.79998006596E+02 0.  0.
          6    2    1    2  501    0 -0.12491326758E+01  0.16019004114E+02 -0.36469828632E+03  0.40378082424E+03  0.17255707795E+03 0.  0.
         24    2    5    5    0    0 -0.11032054998E+02 -0.10662915025E+02 -0.65714433110E+02  0.10341260878E+03  0.78360557302E+02 0.  0.
          5    1    5    5  501    0  0.97829223220E+01  0.26681919139E+02 -0.29898385321E+03  0.30036821546E+03  0.47000000000E+01 0. -1.
        -13    1    6    6    0    0 -0.44358088963E+01  0.18454880626E+02  0.10406528956E+02  0.21646128162E+02  0.00000000000E+00 0.  1.
         14    1    6    6    0    0 -0.65962461015E+01 -0.29117795651E+02 -0.76120962067E+02  0.81766480615E+02  0.00000000000E+00 0. -1.
         -5    1    3    3    0  503  0.43954423947E+02 -0.12969235955E+02  0.10171903095E+02  0.47177855805E+02  0.47000000000E+01 0.  1.
         13    1    4    4    0    0 -0.79486689367E+01 -0.21184437894E+02 -0.29728038262E+01  0.22821027789E+02  0.00000000000E+00 0. -1.
        -14    1    4    4    0    0 -0.34756622335E+02  0.18134669735E+02 -0.14998549071E+03  0.15502430928E+03  0.00000000000E+00 0.  1.
</event>
<event>
12    1  0.9873238E-001  0.2101689E+03  0.7818608E-02  0.1141863E+00
         21   -1    0    0  501  502  0.00000000000E+00  0.00000000000E+00  0.10705174970E+04  0.10705174970E+04  0.00000000000E+00 0.  1.
         21   -1    0    0  502  503 -0.00000000000E+00 -0.00000000000E+00 -0.41011085480E+02  0.41011085480E+02  0.00000000000E+00 0.  1.
         -6    2    1    2    0  503  0.11754733912E+03 -0.18891227610E+01  0.47596035155E+03  0.51942707033E+03  0.17159626868E+03 0.  0.
        -24    2    3    3    0    0  0.88826789346E+02 -0.65648286449E+02  0.35647601587E+03  0.38090379645E+03  0.76240778070E+02 0.  0.
          6    2    1    2  501    0 -0.11754733912E+03  0.18891227610E+01  0.55354606001E+03  0.59210151219E+03  0.17421255542E+03 0.  0.
         24    2    5    5    0    0  0.44402538282E+01 -0.59140764870E+01  0.30133294122E+03  0.31178845498E+03  0.79723315549E+02 0.  0.
          5    1    5    5  501    0 -0.12198759294E+03  0.78031992480E+01  0.25221311879E+03  0.28031305721E+03  0.47000000000E+01 0. -1.
        -11    1    6    6    0    0  0.19905918009E+02  0.11868743938E+02  0.23668590022E+02  0.33125742377E+02  0.00000000000E+00 0.  1.
         12    1    6    6    0    0 -0.15465664180E+02 -0.17782820425E+02  0.27766435120E+03  0.27866271261E+03  0.00000000000E+00 0. -1.
         -5    1    3    3    0  503  0.28720549769E+02  0.63759163688E+02  0.11948433568E+03  0.13852327387E+03  0.47000000000E+01 0.  1.
         13    1    4    4    0    0  0.48678028020E+02 -0.77229975317E+01  0.68249575630E+02  0.84185507520E+02  0.00000000000E+00 0. -1.
        -14    1    4    4    0    0  0.40148761326E+02 -0.57925288917E+02  0.28822644024E+03  0.29671828893E+03  0.00000000000E+00 0.  1.
</event>
<event>
12    1  0.9873238E-001  0.1996515E+03  0.7818608E-02  0.1150202E+00
         21   -1    0    0  503  502  0.00000000000E+00  0.00000000000E+00  0.28090337315E+03  0.28090337315E+03  0.00000000000E+00 0. -1.
         21   -1    0    0  501  503 -0.00000000000E+00 -0.00000000000E+00 -0.24569560219E+03  0.24569560219E+03  0.00000000000E+00 0. -1.
          6    2    1    2  501    0 -0.21820963986E+02 -0.98724665520E+02  0.18918189184E+03  0.27447051621E+03  0.17123539942E+03 0.  0.
         24    2    3    3    0    0 -0.53956664665E+02 -0.50550574971E+01  0.69988114914E+02  0.11943521319E+03  0.80184528753E+02 0.  0.
         -6    2    1    2    0  502  0.21820963986E+02  0.98724665520E+02 -0.15397412087E+03  0.25212845913E+03  0.17215695151E+03 0.  0.
        -24    2    5    5    0    0 -0.21588868856E+02  0.87048424870E+02 -0.16575460140E+03  0.20542066637E+03  0.81728543098E+02 0.  0.
          5    1    3    3  501    0  0.32135700679E+02 -0.93669608023E+02  0.11919377693E+03  0.15503530302E+03  0.47000000000E+01 0. -1.
        -13    1    4    4    0    0 -0.73082685306E+02  0.78316613160E+01  0.56600998795E+02  0.92768997381E+02  0.00000000000E+00 0.  1.
         14    1    4    4    0    0  0.19126020641E+02 -0.12886718813E+02  0.13387116120E+02  0.26666215805E+02  0.00000000000E+00 0. -1.
         -5    1    5    5    0  502  0.43409832842E+02  0.11676240650E+02  0.11780480527E+02  0.46707792760E+02  0.47000000000E+01 0.  1.
         11    1    6    6    0    0  0.55611068906E+01  0.75227288879E+02 -0.62367053513E+02  0.97876045413E+02  0.00000000000E+00 0. -1.
        -12    1    6    6    0    0 -0.27149975747E+02  0.11821135991E+02 -0.10338754789E+03  0.10754462096E+03  0.00000000000E+00 0.  1.
</event>
<event>
12    1  0.9873238E-001  0.2088434E+03  0.7818608E-02  0.1142713E+00
         21   -1    0    0  503  502  0.00000000000E+00  0.00000000000E+00  0.34672525801E+03  0.34672525801E+03  0.00000000000E+00 0. -1.
         21   -1    0    0  501  503 -0.00000000000E+00 -0.00000000000E+00 -0.14379660916E+03  0.14379660916E+03  0.00000000000E+00 0. -1.
          6    2    1    2  501    0  0.92189770540E+02  0.75203238430E+02  0.18964221139E+03  0.28125624487E+03  0.17025400457E+03 0.  0.
         24    2    3    3    0    0  0.12781087341E+03  0.35660476408E+02  0.12758924360E+03  0.19937124129E+03  0.76567537716E+02 0.  0.
         -6    2    1    2    0  502 -0.92189770540E+02 -0.75203238430E+02  0.13286437454E+02  0.20926562230E+03  0.17164233275E+03 0.  0.
        -24    2    5    5    0    0 -0.89823166181E+02 -0.29815845990E+02 -0.48651841716E+02  0.13229772876E+03  0.78603444445E+02 0.  0.
          5    1    3    3  501    0 -0.35621102875E+02  0.39542762022E+02  0.62052967796E+02  0.81885003576E+02  0.47000000000E+01 0. -1.
        -11    1    4    4    0    0  0.88016155988E+02  0.95301095647E+01  0.34881680664E+02  0.95154602354E+02  0.00000000000E+00 0.  1.
         12    1    4    4    0    0  0.39794717426E+02  0.26130366843E+02  0.92707562933E+02  0.10421663894E+03  0.00000000000E+00 0. -1.
         -5    1    5    5    0  502 -0.23666043584E+01 -0.45387392440E+02  0.61938279170E+02  0.76967893535E+02  0.47000000000E+01 0.  1.
         11    1    6    6    0    0 -0.72249365056E+02 -0.55564480953E+02 -0.29927441901E+02  0.95932445363E+02  0.00000000000E+00 0. -1.
        -12    1    6    6    0    0 -0.17573801126E+02  0.25748634962E+02 -0.18724399814E+02  0.36365283401E+02  0.00000000000E+00 0.  1.
</event>
<event>
12    1  0.9873238E-001  0.2224225E+03  0.7818608E-02  0.1132205E+00
         21   -1    0    0  503  502  0.00000000000E+00  0.00000000000E+00  0.77606807932E+02  0.77606807932E+02  0.00000000000E+00 0. -1.
         21   -1    0    0  501  503 -0.00000000000E+00 -0.00000000000E+00 -0.63719865688E+03  0.63719865688E+03  0.00000000000E+00 0. -1.
          6    2    1    2  501    0 -0.13883711615E+03 -0.24121569326E+02 -0.26269120456E+03  0.34420693845E+03  0.17208763057E+03 0.  0.
         24    2    3    3    0    0 -0.25484915519E+02 -0.77262044275E+00 -0.39203785030E+02  0.92487627530E+02  0.79793148980E+02 0.  0.
         -6    2    1    2    0  502  0.13883711615E+03  0.24121569326E+02 -0.29690064439E+03  0.37059852636E+03  0.17127661888E+03 0.  0.
        -24    2    5    5    0    0  0.13786223148E+02  0.37931093099E+02 -0.67752694221E+02  0.10914240795E+03  0.75450711507E+02 0.  0.
          5    1    3    3  501    0 -0.11335220063E+03 -0.23348948883E+02 -0.22348741953E+03  0.25171931092E+03  0.47000000000E+01 0. -1.
        -11    1    4    4    0    0 -0.27025337239E+02 -0.37803186227E+02 -0.18355946277E+02  0.49963892017E+02  0.00000000000E+00 0.  1.
         12    1    4    4    0    0  0.15404217195E+01  0.37030565784E+02 -0.20847838753E+02  0.42523735513E+02  0.00000000000E+00 0. -1.
         -5    1    5    5    0  502  0.12505089300E+03 -0.13809523773E+02 -0.22914795017E+03  0.26145611841E+03  0.47000000000E+01 0.  1.
         11    1    6    6    0    0 -0.15277274456E+02 -0.17189963943E+02 -0.22097080102E+02  0.31893117192E+02  0.00000000000E+00 0. -1.
        -12    1    6    6    0    0  0.29063497604E+02  0.55121057042E+02 -0.45655614118E+02  0.77249290760E+02  0.00000000000E+00 0.  1.
</event>
<event>
12    1  0.9873238E-001  0.1951140E+03  0.7818608E-02  0.1154143E+00
         21   -1    0    0  501  502  0.00000000000E+00  0.00000000000E+00  0.64071769353E+03  0.64071769353E+03  0.00000000000E+00 0. -1.
         21   -1    0    0  502  503 -0.00000000000E+00 -0.00000000000E+00 -0.86108925253E+02  0.86108925253E+02  0.00000000000E+00 0. -1.
         -6    2    1    2    0  503  0.89192699443E+02  0.82166864638E+01  0.74321439742E+02  0.20878968991E+03  0.17333957031E+03 0.  0.
        -24    2    3    3    0    0  0.98407793358E+02 -0.47061987275E+02  0.72695680557E+02  0.15252795496E+03  0.77981989156E+02 0.  0.
          6    2    1    2  501    0 -0.89192699443E+02 -0.82166864638E+01  0.48028732853E+03  0.51803692887E+03  0.17223092103E+03 0.  0.
         24    2    5    5    0    0 -0.99158481552E+02 -0.52920190758E+02  0.42016665916E+03  0.44231173495E+03  0.80415784207E+02 0.  0.
          5    1    5    5  501    0  0.99657821089E+01  0.44703504294E+02  0.60120669370E+02  0.75725193923E+02  0.47000000000E+01 0. -1.
        -11    1    6    6    0    0 -0.64100209190E+02  0.10029390924E+02  0.16943272237E+03  0.18143007719E+03  0.00000000000E+00 0.  1.
         12    1    6    6    0    0 -0.35058272361E+02 -0.62949581681E+02  0.25073393679E+03  0.26088165776E+03  0.00000000000E+00 0. -1.
         -5    1    3    3    0  503 -0.92150939157E+01  0.55278673739E+02  0.16257591844E+01  0.56261734946E+02  0.47000000000E+01 0.  1.
         13    1    4    4    0    0  0.73111401851E+01 -0.27358277491E+02 -0.78034138719E+01  0.29373821442E+02  0.00000000000E+00 0. -1.
        -14    1    4    4    0    0  0.91096653173E+02 -0.19703709784E+02  0.80499094429E+02  0.12315413352E+03  0.00000000000E+00 0.  1.
</event>
<event>
12    1  0.9873238E-001  0.2967388E+03  0.7818608E-02  0.1087096E+00
         21   -1    0    0  501  502  0.00000000000E+00  0.00000000000E+00  0.18432242778E+03  0.18432242778E+03  0.00000000000E+00 0. -1.
         21   -1    0    0  502  503 -0.00000000000E+00 -0.00000000000E+00 -0.51027201881E+03  0.51027201881E+03  0.00000000000E+00 0. -1.
         -6    2    1    2    0  503  0.17681236147E+03 -0.16398257189E+03 -0.72118400439E+02  0.30537677020E+03  0.17291909393E+03 0.  0.
        -24    2    3    3    0    0  0.14877516469E+03 -0.17967550841E+03 -0.24957541370E+02  0.24811780332E+03  0.80760308958E+02 0.  0.
          6    2    1    2  501    0 -0.17681236147E+03  0.16398257189E+03 -0.25383119059E+03  0.38921767639E+03  0.17002126703E+03 0.  0.
         24    2    5    5    0    0 -0.14722828027E+03  0.62479250918E+02 -0.10781394691E+03  0.20888113688E+03  0.80172681694E+02 0.  0.
          5    1    5    5  501    0 -0.29584081201E+02  0.10150332097E+03 -0.14601724368E+03  0.18033653950E+03  0.47000000000E+01 0. -1.
        -11    1    6    6    0    0 -0.10328456130E+03  0.69324796582E+02 -0.10749791108E+03  0.16440629219E+03  0.00000000000E+00 0.  1.
         12    1    6    6    0    0 -0.43943718967E+02 -0.68455456639E+01 -0.31603583543E+00  0.44474844696E+02  0.00000000000E+00 0. -1.
         -5    1    3    3    0  503  0.28037196783E+02  0.15692936522E+02 -0.47160859069E+02  0.57258966881E+02  0.47000000000E+01 0.  1.
         13    1    4    4    0    0  0.62788185223E+02 -0.48936947522E+02  0.25682476771E+02  0.83646701366E+02  0.00000000000E+00 0. -1.
        -14    1    4    4    0    0  0.85986979465E+02 -0.13073856089E+03 -0.50640018141E+02  0.16447110196E+03  0.00000000000E+00 0.  1.
</event>
<event>
12    1  0.9873238E-001  0.2247145E+03  0.7818608E-02  0.1130576E+00
         21   -1    0    0  503  502  0.00000000000E+00  0.00000000000E+00  0.64306578864E+02  0.64306578864E+02  0.00000000000E+00 0. -1.
         21   -1    0    0  501  503 -0.00000000000E+00 -0.00000000000E+00 -0.83536971193E+03  0.83536971193E+03  0.00000000000E+00 0. -1.
          6    2    1    2  501    0  0.10004560920E+03 -0.10172807362E+03 -0.27272833585E+03  0.35337987932E+03  0.17360549833E+03 0.  0.
         24    2    3    3    0    0  0.74781072630E+02 -0.12242878327E+03 -0.13808834959E+03  0.21475509045E+03  0.80438428547E+02 0.  0.
         -6    2    1    2    0  502 -0.10004560920E+03  0.10172807362E+03 -0.49833479722E+03  0.54629641147E+03  0.17246586383E+03 0.  0.
        -24    2    5    5    0    0 -0.10299585939E+02  0.10547992423E+03 -0.33484657675E+03  0.35969814431E+03  0.77642959604E+02 0.  0.
          5    1    3    3  501    0  0.25264536574E+02  0.20700709654E+02 -0.13463998626E+03  0.13862478886E+03  0.47000000000E+01 0. -1.
        -11    1    4    4    0    0  0.56899693451E+02 -0.43861406330E+02 -0.10593862405E+03  0.12800152400E+03  0.00000000000E+00 0.  1.
         12    1    4    4    0    0  0.17881379180E+02 -0.78567376940E+02 -0.32149725537E+02  0.86753566455E+02  0.00000000000E+00 0. -1.
         -5    1    5    5    0  502 -0.89746023265E+02 -0.37518506094E+01 -0.16348822047E+03  0.18659826716E+03  0.47000000000E+01 0.  1.
         13    1    6    6    0    0  0.25052386256E+02  0.53057111456E+02 -0.22906211583E+03  0.23645746349E+03  0.00000000000E+00 0. -1.
        -14    1    6    6    0    0 -0.35351972195E+02  0.52422812769E+02 -0.10578446092E+03  0.12324068082E+03  0.00000000000E+00 0.  1.
</event>
<event>
12    1  0.9873238E-001  0.1943440E+03  0.7818608E-02  0.1154745E+00
         21   -1    0    0  501  502  0.00000000000E+00  0.00000000000E+00  0.19348058404E+03  0.19348058404E+03  0.00000000000E+00 0.  1.
         21   -1    0    0  502  503 -0.00000000000E+00 -0.00000000000E+00 -0.22137611554E+03  0.22137611554E+03  0.00000000000E+00 0.  1.
         -6    2    1    2    0  503  0.83258039475E+02 -0.31525154181E+02  0.58276275762E+02  0.20226510304E+03  0.17201543858E+03 0.  0.
        -24    2    3    3    0    0  0.29068502448E+02 -0.18062216472E+02 -0.34867962088E+02  0.93565077008E+02  0.79796161292E+02 0.  0.
          6    2    1    2  501    0 -0.83258039475E+02  0.31525154181E+02 -0.86171807260E+02  0.21259159653E+03  0.17275378452E+03 0.  0.
         24    2    5    5    0    0 -0.33700826706E+02 -0.72864974695E+00 -0.11555106719E+03  0.14639902807E+03  0.83332764507E+02 0.  0.
          5    1    5    5  501    0 -0.49557212769E+02  0.32253803928E+02  0.29379259930E+02  0.66192568459E+02  0.47000000000E+01 0. -1.
        -13    1    6    6    0    0 -0.33743011013E+02 -0.25037452572E+02 -0.11461296328E+03  0.12207209417E+03  0.00000000000E+00 0.  1.
         14    1    6    6    0    0  0.42184306976E-01  0.24308802825E+02 -0.93810391525E+00  0.24326933905E+02  0.00000000000E+00 0. -1.
         -5    1    3    3    0  503  0.54189537027E+02 -0.13462937709E+02  0.93144237851E+02  0.10870002603E+03  0.47000000000E+01 0.  1.
         11    1    4    4    0    0 -0.10530355350E+02  0.25659939167E+02 -0.13258118951E+02  0.30742455660E+02  0.00000000000E+00 0. -1.
        -12    1    4    4    0    0  0.39598857798E+02 -0.43722155639E+02 -0.21609843137E+02  0.62822621348E+02  0.00000000000E+00 0.  1.
</event>
<event>
12    1  0.9873238E-001  0.3532395E+03  0.7818608E-02  0.1061439E+00
         21   -1    0    0  501  502  0.00000000000E+00  0.00000000000E+00  0.30819319584E+03  0.30819319584E+03  0.00000000000E+00 0. -1.
         21   -1    0    0  502  503 -0.00000000000E+00 -0.00000000000E+00 -0.44960873580E+03  0.44960873580E+03  0.00000000000E+00 0. -1.
         -6    2    1    2    0  503  0.65478511269E+02  0.30116183147E+03 -0.19227858041E+03  0.40091933383E+03  0.16964485132E+03 0.  0.
        -24    2    3    3    0    0  0.76523353625E+02  0.17124657915E+03 -0.55458265438E+02  0.21186418336E+03  0.81422346229E+02 0.  0.
          6    2    1    2  501    0 -0.65478511269E+02 -0.30116183147E+03  0.50863040453E+02  0.35688259782E+03  0.17260433241E+03 0.  0.
         24    2    5    5    0    0  0.22360884715E+02 -0.20655150399E+03  0.10435868545E+02  0.22151894029E+03  0.76145916408E+02 0.  0.
          5    1    5    5  501    0 -0.87839395983E+02 -0.94610327477E+02  0.40427171907E+02  0.13536365753E+03  0.47000000000E+01 0. -1.
        -11    1    6    6    0    0  0.41505610394E+02 -0.57159356113E+02  0.47153488061E+01  0.70796484374E+02  0.00000000000E+00 0.  1.
         12    1    6    6    0    0 -0.19144725679E+02 -0.14939214788E+03  0.57205197392E+01  0.15072245591E+03  0.00000000000E+00 0. -1.
         -5    1    3    3    0  503 -0.11044842356E+02  0.12991525232E+03 -0.13682031498E+03  0.18905515047E+03  0.47000000000E+01 0.  1.
         11    1    4    4    0    0  0.22040547566E+02 -0.20543485578E+01 -0.77750460201E+00  0.22149731339E+02  0.00000000000E+00 0. -1.
        -12    1    4    4    0    0  0.54482806059E+02  0.17330092771E+03 -0.54680760836E+02  0.18971445202E+03  0.00000000000E+00 0.  1.
</event>
<event>
12    1  0.9873238E-001  0.1775527E+03  0.7818608E-02  0.1170256E+00
         21   -1    0    0  503  502  0.00000000000E+00  0.00000000000E+00  0.88635842743E+02  0.88635842743E+02  0.00000000000E+00 0.  1.
         21   -1    0    0  501  503 -0.00000000000E+00 -0.00000000000E+00 -0.35660372615E+03  0.35660372615E+03  0.00000000000E+00 0.  1.
          6    2    1    2  501    0  0.27085607490E+02  0.34294552202E+02 -0.11970320134E+03  0.21392298339E+03  0.17182677314E+03 0.  0.
         24    2    3    3    0    0 -0.32713234241E+02  0.48380530050E+00 -0.60416634513E+01  0.81031662104E+02  0.73886661881E+02 0.  0.
         -6    2    1    2    0  502 -0.27085607490E+02 -0.34294552202E+02 -0.14826468206E+03  0.23131658550E+03  0.17209067475E+03 0.  0.
        -24    2    5    5    0    0 -0.73451017601E+02 -0.22211087186E+02 -0.55904068823E+02  0.12716124833E+03  0.84595116800E+02 0.  0.
          5    1    3    3  501    0  0.59798841731E+02  0.33810746902E+02 -0.11366153789E+03  0.13289132129E+03  0.47000000000E+01 0. -1.
        -11    1    4    4    0    0 -0.27407811219E+02 -0.21607286132E+02  0.24735398016E+02  0.42777363696E+02  0.00000000000E+00 0.  1.
         12    1    4    4    0    0 -0.53054230218E+01  0.22091091432E+02 -0.30777061467E+02  0.38254298407E+02  0.00000000000E+00 0. -1.
         -5    1    5    5    0  502  0.46365410111E+02 -0.12083465017E+02 -0.92360613238E+02  0.10415533716E+03  0.47000000000E+01 0.  1.
         13    1    6    6    0    0  0.43008969788E+01 -0.73515140412E+00  0.17538042507E+02  0.18072661603E+02  0.00000000000E+00 0. -1.
        -14    1    6    6    0    0 -0.77751914580E+02 -0.21475935782E+02 -0.73442111330E+02  0.10908858673E+03  0.00000000000E+00 0.  1.
</event>
<event>
12    1  0.9873238E-001  0.2411679E+03  0.7818608E-02  0.1119057E+00
         21   -1    0    0  501  502  0.00000000000E+00  0.00000000000E+00  0.31682537940E+03  0.31682537940E+03  0.00000000000E+00 0. -1.
         21   -1    0    0  502  503 -0.00000000000E+00 -0.00000000000E+00 -0.18437822004E+03  0.18437822004E+03  0.00000000000E+00 0. -1.
         -6    2    1    2    0  503  0.11534916140E+03 -0.12384298404E+03  0.47939285557E+02  0.24588639827E+03  0.17181219987E+03 0.  0.
        -24    2    3    3    0    0  0.96015809055E+02 -0.28025586022E+02  0.69976686307E+02  0.14557443833E+03  0.79314005113E+02 0.  0.
          6    2    1    2  501    0 -0.11534916140E+03  0.12384298404E+03  0.84507873798E+02  0.25531720117E+03  0.17147238480E+03 0.  0.
         24    2    5    5    0    0 -0.14375443827E+03  0.13279108214E+03  0.72788190588E+02  0.22296957084E+03  0.78220833637E+02 0.  0.
          5    1    5    5  501    0  0.28405276871E+02 -0.89480980962E+01  0.11719683211E+02  0.32347630334E+02  0.47000000000E+01 0. -1.
        -13    1    6    6    0    0 -0.68465832276E+02  0.97162628876E+02  0.11217396381E+02  0.11939001893E+03  0.00000000000E+00 0.  1.
         14    1    6    6    0    0 -0.75288605992E+02  0.35628453260E+02  0.61570794206E+02  0.10357955191E+03  0.00000000000E+00 0. -1.
         -5    1    3    3    0  503  0.19333352342E+02 -0.95817398018E+02 -0.22037400750E+02  0.10031195994E+03  0.47000000000E+01 0.  1.
         11    1    4    4    0    0  0.80305917147E+02 -0.40453548384E+02  0.20542905645E+02  0.92236331659E+02  0.00000000000E+00 0. -1.
        -12    1    4    4    0    0  0.15709891908E+02  0.12427962362E+02  0.49433780662E+02  0.53338106666E+02  0.00000000000E+00 0.  1.
</event>
<event>
12    1  0.9873238E-001  0.2708809E+03  0.7818608E-02  0.1100862E+00
         21   -1    0    0  503  502  0.00000000000E+00  0.00000000000E+00  0.14052914519E+04  0.14052914519E+04  0.00000000000E+00 0. -1.
         21   -1    0    0  501  503 -0.00000000000E+00 -0.00000000000E+00 -0.98339186164E+02  0.98339186164E+02  0.00000000000E+00 0. -1.
          6    2    1    2  501    0  0.15995178831E+03 -0.13391400058E+03  0.13832441083E+03  0.30415473794E+03  0.17279736063E+03 0.  0.
         24    2    3    3    0    0  0.90344904641E+02 -0.94075712127E+02  0.15975107585E+03  0.22100788319E+03  0.79445810392E+02 0.  0.
         -6    2    1    2    0  502 -0.15995178831E+03  0.13391400058E+03  0.11686278549E+04  0.11994759001E+04  0.17185411720E+03 0.  0.
        -24    2    5    5    0    0 -0.92237441013E+02  0.15437516139E+03  0.92815313399E+03  0.94876875358E+03  0.79714939988E+02 0.  0.
          5    1    3    3  501    0  0.69606883668E+02 -0.39838288452E+02 -0.21426665018E+02  0.83146854749E+02  0.47000000000E+01 0. -1.
        -13    1    4    4    0    0  0.32907113635E+01  0.13233650429E+02  0.81698291416E+01  0.15896678683E+02  0.00000000000E+00 0.  1.
         14    1    4    4    0    0  0.87054193278E+02 -0.10730936256E+03  0.15158124671E+03  0.20511120450E+03  0.00000000000E+00 0. -1.
         -5    1    5    5    0  502 -0.67714347296E+02 -0.20461160813E+02  0.24047472093E+03  0.25070714656E+03  0.47000000000E+01 0.  1.
         11    1    6    6    0    0 -0.82878440188E+02  0.10243952117E+03  0.48848679454E+03  0.50594667682E+03  0.00000000000E+00 0. -1.
        -12    1    6    6    0    0 -0.93590008247E+01  0.51935640226E+02  0.43966633946E+03  0.44282207677E+03  0.00000000000E+00 0.  1.
</event>
<event>
12    1  0.9873238E-001  0.2378238E+03  0.7818608E-02  0.1121262E+00
         21   -1    0    0  503  502  0.00000000000E+00  0.00000000000E+00  0.12210118338E+03  0.12210118338E+03  0.00000000000E+00 0. -1.
         21   -1    0    0  501  503 -0.00000000000E+00 -0.00000000000E+00 -0.46363436147E+03  0.46363436147E+03  0.00000000000E+00 0. -1.
          6    2    1    2  501    0  0.65991884994E+02 -0.15033460163E+03 -0.18078555885E+03  0.29873661618E+03  0.17206024009E+03 0.  0.
         24    2    3    3    0    0  0.78591328964E+02 -0.16689512799E+03 -0.18916213099E+03  0.27581819602E+03  0.79137757880E+02 0.  0.
         -6    2    1    2    0  502 -0.65991884994E+02  0.15033460163E+03 -0.16074761924E+03  0.28699892868E+03  0.17196850478E+03 0.  0.
        -24    2    5    5    0    0 -0.80451058108E+02  0.79003131807E+02 -0.16393169554E+03  0.21399567795E+03  0.78782496742E+02 0.  0.
          5    1    3    3  501    0 -0.12599443970E+02  0.16560526354E+02  0.83765721387E+01  0.22918420152E+02  0.47000000000E+01 0. -1.
        -11    1    4    4    0    0  0.28166910321E+02 -0.74912155323E+02 -0.30567048611E+02  0.85671175508E+02  0.00000000000E+00 0.  1.
         12    1    4    4    0    0  0.50424418643E+02 -0.91982972665E+02 -0.15859508238E+03  0.19014702052E+03  0.00000000000E+00 0. -1.
         -5    1    5    5    0  502  0.14459173114E+02  0.71331469826E+02  0.31840762967E+01  0.73003250726E+02  0.47000000000E+01 0.  1.
         11    1    6    6    0    0  0.11708592032E+02  0.40962081568E-01 -0.35112120283E+02  0.37012886892E+02  0.00000000000E+00 0. -1.
        -12    1    6    6    0    0 -0.92159650140E+02  0.78962169726E+02 -0.12881957526E+03  0.17698279106E+03  0.00000000000E+00 0.  1.
</event>
<event>
12    1  0.9873238E-001  0.2727842E+03  0.7818608E-02  0.1099755E+00
         21   -1    0    0  503  502  0.00000000000E+00  0.00000000000E+00  0.57713819584E+03  0.57713819584E+03  0.00000000000E+00 0. -1.
         21   -1    0    0  501  503 -0.00000000000E+00 -0.00000000000E+00 -0.14382401332E+03  0.14382401332E+03  0.00000000000E+00 0. -1.
          6    2    1    2  501    0 -0.17693707386E+03 -0.11489841597E+03  0.33355662083E+03  0.43089587595E+03  0.17292444162E+03 0.  0.
         24    2    3    3    0    0 -0.31280897669E+02 -0.23599300184E+01  0.13533800750E+03  0.16035319695E+03  0.80079383563E+02 0.  0.
         -6    2    1    2    0  502  0.17693707386E+03  0.11489841597E+03  0.99757561693E+02  0.29006633321E+03  0.17227458445E+03 0.  0.
        -24    2    5    5    0    0  0.32836127773E+02  0.70467304116E+02  0.79964607020E+01  0.11348378589E+03  0.82284713274E+02 0.  0.
          5    1    3    3  501    0 -0.14565617620E+03 -0.11253848595E+03  0.19821861333E+03  0.27054267899E+03  0.47000000000E+01 0. -1.
        -11    1    4    4    0    0 -0.13961157924E+02 -0.40669964332E+02  0.80369008106E+02  0.91148984598E+02  0.00000000000E+00 0.  1.
         12    1    4    4    0    0 -0.17319739745E+02  0.38310034313E+02  0.54968999389E+02  0.69204212356E+02  0.00000000000E+00 0. -1.
         -5    1    5    5    0  502  0.14410094609E+03  0.44431111852E+02  0.91761100992E+02  0.17658254733E+03  0.47000000000E+01 0.  1.
         13    1    6    6    0    0  0.17412035736E+02 -0.88889541908E+01 -0.19965662759E+02  0.27943159887E+02  0.00000000000E+00 0. -1.
        -14    1    6    6    0    0  0.15424092037E+02  0.79356258307E+02  0.27962123461E+02  0.85540625998E+02  0.00000000000E+00 0.  1.
</event>
<event>
12    1  0.9873238E-001  0.3760590E+03  0.7818608E-02  0.1052549E+00
         21   -1    0    0  503  502  0.00000000000E+00  0.00000000000E+00  0.11847322409E+04  0.11847322409E+04  0.00000000000E+00 0. -1.
         21   -1    0    0  501  503 -0.00000000000E+00 -0.00000000000E+00 -0.12477466743E+03  0.12477466743E+03  0.00000000000E+00 0. -1.
          6    2    1    2  501    0  0.32616351138E+03  0.69324004455E+02  0.67139281937E+03  0.76876395391E+03  0.17041492064E+03 0.  0.
         24    2    3    3    0    0  0.16171238468E+03  0.83035893675E+01  0.46158054356E+03  0.49524805819E+03  0.77422193141E+02 0.  0.
         -6    2    1    2    0  502 -0.32616351138E+03 -0.69324004455E+02  0.38856475410E+03  0.54074295443E+03  0.17387328974E+03 0.  0.
        -24    2    5    5    0    0 -0.15525355766E+03 -0.24324138828E+02  0.99630491319E+02  0.20200958082E+03  0.78653067619E+02 0.  0.
          5    1    3    3  501    0  0.16445112670E+03  0.61020415088E+02  0.20981227581E+03  0.27351589572E+03  0.47000000000E+01 0. -1.
        -13    1    4    4    0    0  0.69607241863E+02  0.37670126773E+02  0.15918189735E+03  0.17777255979E+03  0.00000000000E+00 0.  1.
         14    1    4    4    0    0  0.92105142813E+02 -0.29366537406E+02  0.30239864621E+03  0.31747549840E+03  0.00000000000E+00 0. -1.
         -5    1    5    5    0  502 -0.17090995371E+03 -0.44999865627E+02  0.28893426278E+03  0.33873337361E+03  0.47000000000E+01 0.  1.
         13    1    6    6    0    0 -0.45886190324E+02  0.17694826603E+02  0.61613527898E+02  0.78834485925E+02  0.00000000000E+00 0. -1.
        -14    1    6    6    0    0 -0.10936736734E+03 -0.42018965431E+02  0.38016963421E+02  0.12317509490E+03  0.00000000000E+00 0.  1.
</event>
<event>
12    1  0.9873238E-001  0.2236647E+03  0.7818608E-02  0.1135026E+00
         21   -1    0    0  501  502  0.00000000000E+00  0.00000000000E+00  0.68382815679E+03  0.68382815679E+03  0.00000000000E+00 0.  1.
         21   -1    0    0  502  503 -0.00000000000E+00 -0.00000000000E+00 -0.67531734138E+02  0.67531734138E+02  0.00000000000E+00 0.  1.
         -6    2    1    2    0  503  0.10614111687E+02 -0.11023379751E+03  0.28191388525E+03  0.35986297046E+03  0.19432387741E+03 0.  0.
        -24    2    3    3    0    0  0.62518172524E+01 -0.13147534117E+03  0.29571636706E+03  0.33373192965E+03  0.81264879073E+02 0.  0.
          6    2    1    2  501    0 -0.10614111687E+02  0.11023379751E+03  0.33438253740E+03  0.39149692047E+03  0.17086254106E+03 0.  0.
         24    2    5    5    0    0 -0.34594108386E+01  0.14057066231E+03  0.31683830903E+03  0.35542192831E+03  0.78524865063E+02 0.  0.
          5    1    5    5  501    0 -0.71547008484E+01 -0.30336864797E+02  0.17544228379E+02  0.36074992160E+02  0.47000000000E+01 0. -1.
        -11    1    6    6    0    0 -0.10544665272E+02  0.84019495533E+01  0.10339911202E+03  0.10427444120E+03  0.00000000000E+00 0.  1.
         12    1    6    6    0    0  0.70852544337E+01  0.13216871276E+03  0.21343919701E+03  0.25114748711E+03  0.00000000000E+00 0. -1.
         -5    1    3    3    0  503  0.43622944345E+01  0.21241543657E+02 -0.13802481805E+02  0.26131040807E+02  0.47000000000E+01 0.  1.
         13    1    4    4    0    0  0.17152580250E+02 -0.25091312100E+02  0.14963197372E+03  0.15268763051E+03  0.00000000000E+00 0. -1.
        -14    1    4    4    0    0 -0.10900762997E+02 -0.10638402907E+03  0.14608439333E+03  0.18104429914E+03  0.00000000000E+00 0.  1.
</event>
<event>
12    1  0.9873238E-001  0.3955567E+03  0.7818608E-02  0.1045345E+00
         21   -1    0    0  501  502  0.00000000000E+00  0.00000000000E+00  0.58566281613E+03  0.58566281613E+03  0.00000000000E+00 0. -1.
         21   -1    0    0  502  503 -0.00000000000E+00 -0.00000000000E+00 -0.29312526016E+03  0.29312526016E+03  0.00000000000E+00 0.  1.
         -6    2    1    2    0  503 -0.49487878104E+02 -0.35264442786E+03  0.15210992426E+02  0.39584903824E+03  0.17221481994E+03 0.  0.
        -24    2    3    3    0    0 -0.55520080045E+02 -0.32355377666E+03  0.58619514140E+02  0.34303764549E+03  0.80430423986E+02 0.  0.
          6    2    1    2  501    0  0.49487878104E+02  0.35264442786E+03  0.27732656355E+03  0.48293903805E+03  0.17179333233E+03 0.  0.
         24    2    5    5    0    0  0.53729891273E+00  0.31088080632E+03  0.18437391671E+03  0.36979026942E+03  0.78127701628E+02 0.  0.
          5    1    5    5  501    0  0.48950579191E+02  0.41763621540E+02  0.92952646844E+02  0.11314876863E+03  0.47000000000E+01 0. -1.
        -13    1    6    6    0    0 -0.36738392039E+02  0.18049963886E+03  0.93697568919E+02  0.20666171271E+03  0.00000000000E+00 0.  1.
         14    1    6    6    0    0  0.37275690951E+02  0.13038116746E+03  0.90676347791E+02  0.16312855671E+03  0.00000000000E+00 0. -1.
         -5    1    3    3    0  503  0.60322019408E+01 -0.29090651201E+02 -0.43408521714E+02  0.52811392757E+02  0.47000000000E+01 0.  1.
         11    1    4    4    0    0  0.87219044029E+01 -0.99896451023E+02 -0.90861793251E+01  0.10068729412E+03  0.00000000000E+00 0. -1.
        -12    1    4    4    0    0 -0.64241984448E+02 -0.22365732564E+03  0.67705693465E+02  0.24235035136E+03  0.00000000000E+00 0.  1.
</event>
<event>
12    1  0.9873238E-001  0.3978362E+03  0.7818608E-02  0.1044573E+00
         21   -1    0    0  503  502  0.00000000000E+00  0.00000000000E+00  0.29668780055E+03  0.29668780055E+03  0.00000000000E+00 0.  1.
         21   -1    0    0  501  503 -0.00000000000E+00 -0.00000000000E+00 -0.59420184355E+03  0.59420184355E+03  0.00000000000E+00 0.  1.
          6    2    1    2  501    0  0.34160816390E+03  0.11044911161E+03 -0.29198772823E+03  0.49348805607E+03  0.17140152901E+03 0.  0.
         24    2    3    3    0    0  0.19501464461E+03  0.49969668512E+01 -0.11915709721E+03  0.24348339261E+03  0.83845497033E+02 0.  0.
         -6    2    1    2    0  502 -0.34160816390E+03 -0.11044911161E+03 -0.55263147797E+01  0.39740158803E+03  0.17030072846E+03 0.  0.
        -24    2    5    5    0    0 -0.24581580506E+03 -0.69545887692E+02 -0.67767266245E+02  0.27597146089E+03  0.79409094792E+02 0.  0.
          5    1    3    3  501    0  0.14659351930E+03  0.10545214476E+03 -0.17283063102E+03  0.25000466346E+03  0.47000000000E+01 0. -1.
        -13    1    4    4    0    0  0.87851365923E+02  0.43137681643E+01 -0.10244298608E+03  0.13502235551E+03  0.00000000000E+00 0.  1.
         14    1    4    4    0    0  0.10716327868E+03  0.68319868683E+00 -0.16714111134E+02  0.10846103710E+03  0.00000000000E+00 0. -1.
         -5    1    5    5    0  502 -0.95792358841E+02 -0.40903223917E+02  0.62240951465E+02  0.12143012715E+03  0.47000000000E+01 0.  1.
         13    1    6    6    0    0 -0.32907380997E+02 -0.41207115420E+02 -0.13045289232E+02  0.54324043079E+02  0.00000000000E+00 0. -1.
        -14    1    6    6    0    0 -0.21290842407E+03 -0.28338772271E+02 -0.54721977013E+02  0.22164741781E+03  0.00000000000E+00 0.  1.
</event>
<event>
12    1  0.9873238E-001  0.4237837E+03  0.7818608E-02  0.1035920E+00
         21   -1    0    0  503  502  0.00000000000E+00  0.00000000000E+00  0.10161107662E+04  0.10161107662E+04  0.00000000000E+00 0.  1.
         21   -1    0    0  501  503 -0.00000000000E+00 -0.00000000000E+00 -0.21729442433E+03  0.21729442433E+03  0.00000000000E+00 0.  1.
          6    2    1    2  501    0  0.14324250695E+03 -0.35903453651E+03  0.13130592203E+03  0.44273284670E+03  0.17130941068E+03 0.  0.
         24    2    3    3    0    0  0.69946308150E+02 -0.91975115716E+02  0.11408480167E+02  0.14092073038E+03  0.79853559075E+02 0.  0.
         -6    2    1    2    0  502 -0.14324250695E+03  0.35903453651E+03  0.66751041985E+03  0.79067234384E+03  0.17369047327E+03 0.  0.
        -24    2    5    5    0    0 -0.52749265284E+02  0.23125965222E+03  0.30321935484E+03  0.39413039412E+03  0.84458739565E+02 0.  0.
          5    1    3    3  501    0  0.73296198795E+02 -0.26705942079E+03  0.11989744186E+03  0.30181211632E+03  0.47000000000E+01 0. -1.
        -13    1    4    4    0    0 -0.15933848565E+02 -0.93289144701E+01  0.11462628039E+02  0.21732648638E+02  0.00000000000E+00 0.  1.
         14    1    4    4    0    0  0.85880156715E+02 -0.82646201246E+02 -0.54147872015E-01  0.11918808174E+03  0.00000000000E+00 0. -1.
         -5    1    5    5    0  502 -0.90493241661E+02  0.12777488429E+03  0.36429106501E+03  0.39654194972E+03  0.47000000000E+01 0.  1.
         11    1    6    6    0    0  0.54942461200E+01  0.43818532481E+02  0.11074401804E+03  0.11922452793E+03  0.00000000000E+00 0. -1.
        -12    1    6    6    0    0 -0.58243511404E+02  0.18744111973E+03  0.19247533680E+03  0.27490586619E+03  0.00000000000E+00 0.  1.
</event>
<event>
12    1  0.9873238E-001  0.2392292E+03  0.7818608E-02  0.1120395E+00
         21   -1    0    0  503  502  0.00000000000E+00  0.00000000000E+00  0.30459254954E+03  0.30459254954E+03  0.00000000000E+00 0.  1.
         21   -1    0    0  501  503 -0.00000000000E+00 -0.00000000000E+00 -0.24466420929E+03  0.24466420929E+03  0.00000000000E+00 0.  1.
          6    2    1    2  501    0 -0.27369578801E+02  0.16341253625E+03 -0.10283014388E+03  0.25991103654E+03  0.17183409899E+03 0.  0.
         24    2    3    3    0    0 -0.86838824260E+02  0.12772344594E+03 -0.80076501898E+02  0.18676651831E+03  0.67935455871E+02 0.  0.
         -6    2    1    2    0  502  0.27369578801E+02 -0.16341253625E+03  0.16275848412E+03  0.28934572229E+03  0.17256266110E+03 0.  0.
        -24    2    5    5    0    0 -0.17050675607E+02 -0.11942466177E+03  0.15892318378E+03  0.22653734999E+03  0.10728288409E+03 0.  0.
          5    1    3    3  501    0  0.59469245459E+02  0.35689090309E+02 -0.22753641984E+02  0.73144518223E+02  0.47000000000E+01 0. -1.
        -13    1    4    4    0    0 -0.71423796697E+02  0.44654393199E+02 -0.40874351314E+02  0.93627379339E+02  0.00000000000E+00 0.  1.
         14    1    4    4    0    0 -0.15415027563E+02  0.83069052744E+02 -0.39202150584E+02  0.93139138975E+02  0.00000000000E+00 0. -1.
         -5    1    5    5    0  502  0.44420254408E+02 -0.43987874484E+02  0.38353003438E+01  0.62808372308E+02  0.47000000000E+01 0.  1.
         11    1    6    6    0    0 -0.76502949909E+01  0.20109082356E+02  0.23574428518E+02  0.31916388997E+02  0.00000000000E+00 0. -1.
        -12    1    6    6    0    0 -0.94003806164E+01 -0.13953374412E+03  0.13534875526E+03  0.19462096099E+03  0.00000000000E+00 0.  1.
</event>
<event>
12    1  0.9873238E-001  0.1915770E+03  0.7818608E-02  0.1158315E+00
         21   -1    0    0  501  502  0.00000000000E+00  0.00000000000E+00  0.32470609749E+03  0.32470609749E+03  0.00000000000E+00 0. -1.
         21   -1    0    0  502  503 -0.00000000000E+00 -0.00000000000E+00 -0.15152865901E+03  0.15152865901E+03  0.00000000000E+00 0. -1.
         -6    2    1    2    0  503 -0.16623324591E+02  0.76937345826E+02  0.21067634793E+03  0.28102223379E+03  0.16850306289E+03 0.  0.
        -24    2    3    3    0    0 -0.25274194014E+02  0.86221219688E+02  0.22918942456E+03  0.25809077369E+03  0.77525296032E+02 0.  0.
          6    2    1    2  501    0  0.16623324591E+02 -0.76937345826E+02 -0.37498909450E+02  0.19521252272E+03  0.17465987150E+03 0.  0.
         24    2    5    5    0    0  0.59915414419E+02 -0.96007052818E+02 -0.46922473038E+02  0.14674859472E+03  0.80785026458E+02 0.  0.
          5    1    5    5  501    0 -0.43292089828E+02  0.19069706992E+02  0.94235635883E+01  0.48463927999E+02  0.47000000000E+01 0. -1.
        -13    1    6    6    0    0  0.23963714770E+02 -0.67172701459E+02  0.11601833518E+02  0.72256722787E+02  0.00000000000E+00 0.  1.
         14    1    6    6    0    0  0.35951699649E+02 -0.28834351358E+02 -0.58524306556E+02  0.74491871931E+02  0.00000000000E+00 0. -1.
         -5    1    3    3    0  503  0.86508694226E+01 -0.92838738620E+01 -0.18513076637E+02  0.22931460098E+02  0.47000000000E+01 0.  1.
         13    1    4    4    0    0 -0.16346500037E+01  0.27472968801E+02  0.16728491839E+03  0.16953371351E+03  0.00000000000E+00 0. -1.
        -14    1    4    4    0    0 -0.23639544010E+02  0.58748250887E+02  0.61904506170E+02  0.88557060178E+02  0.00000000000E+00 0.  1.
</event>
<event>
12    1  0.9873238E-001  0.2767701E+03  0.7818608E-02  0.1098257E+00
         21   -1    0    0  503  502  0.00000000000E+00  0.00000000000E+00  0.11430584536E+03  0.11430584536E+03  0.00000000000E+00 0. -1.
         21   -1    0    0  501  503 -0.00000000000E+00 -0.00000000000E+00 -0.73371951230E+03  0.73371951230E+03  0.00000000000E+00 0. -1.
          6    2    1    2  501    0  0.39518731275E+02  0.20489472363E+03 -0.45006902447E+03  0.52835953917E+03  0.18181886028E+03 0.  0.
         24    2    3    3    0    0  0.37244516978E+02  0.20224045516E+02 -0.16957991834E+03  0.19249548920E+03  0.80628770276E+02 0.  0.
         -6    2    1    2    0  502 -0.39518731275E+02 -0.20489472363E+03 -0.16934464247E+03  0.31966581849E+03  0.17310415848E+03 0.  0.
        -24    2    5    5    0    0  0.38764976540E+02 -0.12649781012E+03 -0.66730218498E+02  0.16858231521E+03  0.80390643535E+02 0.  0.
          5    1    3    3  501    0  0.22742142973E+01  0.18467067812E+03 -0.28048910613E+03  0.33586404997E+03  0.47000000000E+01 0. -1.
        -11    1    4    4    0    0  0.17123017939E+02  0.83250438610E+01  0.21692811851E+01  0.19162721087E+02  0.00000000000E+00 0.  1.
         12    1    4    4    0    0  0.20121499040E+02  0.11899001655E+02 -0.17174919953E+03  0.17333276812E+03  0.00000000000E+00 0. -1.
         -5    1    5    5    0  502 -0.78283707816E+02 -0.78396913513E+02 -0.10261442398E+03  0.15108350329E+03  0.47000000000E+01 0.  1.
         13    1    6    6    0    0 -0.24134005871E+02 -0.22002182501E+02 -0.10736729814E+02  0.34377661952E+02  0.00000000000E+00 0. -1.
        -14    1    6    6    0    0  0.62898982412E+02 -0.10449562762E+03 -0.55993488684E+02  0.13420465325E+03  0.00000000000E+00 0.  1.
</event>
<event>
12    1  0.9873238E-001  0.2202672E+03  0.7818608E-02  0.1133853E+00
         21   -1    0    0  503  502  0.00000000000E+00  0.00000000000E+00  0.62067885093E+03  0.62067885093E+03  0.00000000000E+00 0.  1.
         21   -1    0    0  501  503 -0.00000000000E+00 -0.00000000000E+00 -0.80190426591E+02  0.80190426591E+02  0.00000000000E+00 0.  1.
          6    2    1    2  501    0 -0.94381171763E+01 -0.13885716444E+03  0.20980367470E+03  0.30354066134E+03  0.16955518570E+03 0.  0.
         24    2    3    3    0    0 -0.36744580597E+02 -0.96163267855E+01  0.42821902020E+02  0.90576252417E+02  0.70197608686E+02 0.  0.
         -6    2    1    2    0  502  0.94381171763E+01  0.13885716444E+03  0.33068474964E+03  0.39732861618E+03  0.17072561443E+03 0.  0.
        -24    2    5    5    0    0  0.51551889261E+01  0.30760399484E+02  0.24511349524E+03  0.25931490799E+03  0.78681750179E+02 0.  0.
          5    1    3    3  501    0  0.27306463421E+02 -0.12924083765E+03  0.16698177268E+03  0.21296440892E+03  0.47000000000E+01 0. -1.
        -13    1    4    4    0    0 -0.25401293231E+02 -0.37366507227E+02  0.10294244075E+02  0.46340619561E+02  0.00000000000E+00 0.  1.
         14    1    4    4    0    0 -0.11343287366E+02  0.27750180442E+02  0.32527657945E+02  0.44235632857E+02  0.00000000000E+00 0. -1.
         -5    1    5    5    0  502  0.42829282503E+01  0.10809676495E+03  0.85571254399E+02  0.13801370818E+03  0.47000000000E+01 0.  1.
         13    1    6    6    0    0 -0.13730218811E+02  0.47946203908E+02  0.97564663803E+02  0.10957290268E+03  0.00000000000E+00 0. -1.
        -14    1    6    6    0    0  0.18885407737E+02 -0.17185804424E+02  0.14754883144E+03  0.14974200532E+03  0.00000000000E+00 0.  1.
</event>
<event>
12    1  0.9873238E-001  0.1828927E+03  0.7818608E-02  0.1165602E+00
         21   -1    0    0  503  502  0.00000000000E+00  0.00000000000E+00  0.40584145854E+02  0.40584145854E+02  0.00000000000E+00 0.  1.
         21   -1    0    0  501  503 -0.00000000000E+00 -0.00000000000E+00 -0.11149771439E+04  0.11149771439E+04  0.00000000000E+00 0.  1.
          6    2    1    2  501    0 -0.14406246420E+02 -0.55954903516E+02 -0.83506459533E+03  0.85435066247E+03  0.17100785047E+03 0.  0.
         24    2    3    3    0    0 -0.49875608974E+02 -0.10784397687E+02 -0.71396286428E+03  0.72023813680E+03  0.79975762140E+02 0.  0.
         -6    2    1    2    0  502  0.14406246420E+02  0.55954903516E+02 -0.23932840272E+03  0.30121062729E+03  0.17352598215E+03 0.  0.
        -24    2    5    5    0    0  0.13816087111E+02  0.57829225142E+02 -0.26071148239E+03  0.27922910174E+03  0.80394717893E+02 0.  0.
          5    1    3    3  501    0  0.35469362554E+02 -0.45170505829E+02 -0.12110173105E+03  0.13411252567E+03  0.47000000000E+01 0. -1.
        -11    1    4    4    0    0  0.14822835132E+02 -0.22329769751E+02 -0.14156915519E+03  0.14408386711E+03  0.00000000000E+00 0.  1.
         12    1    4    4    0    0 -0.64698444106E+02  0.11545372064E+02 -0.57239370909E+03  0.57615426970E+03  0.00000000000E+00 0. -1.
         -5    1    5    5    0  502  0.59015930974E+00 -0.18743216262E+01  0.21383079668E+02  0.21981525554E+02  0.47000000000E+01 0.  1.
         11    1    6    6    0    0 -0.55677345061E+00  0.61214797641E+02 -0.96003802465E+02  0.11386084285E+03  0.00000000000E+00 0. -1.
        -12    1    6    6    0    0  0.14372860561E+02 -0.33855724994E+01 -0.16470767993E+03  0.16536825889E+03  0.00000000000E+00 0.  1.
</event>
<event>
12    1  0.9873238E-001  0.1785297E+03  0.7818608E-02  0.1170280E+00
         21   -1    0    0  503  502  0.00000000000E+00  0.00000000000E+00  0.83976575996E+03  0.83976575996E+03  0.00000000000E+00 0. -1.
         21   -1    0    0  501  503 -0.00000000000E+00 -0.00000000000E+00 -0.40760853293E+02  0.40760853293E+02  0.00000000000E+00 0. -1.
          6    2    1    2  501    0  0.21421863952E+02 -0.41127588139E+02  0.27123416300E+03  0.32471654687E+03  0.17240211679E+03 0.  0.
         24    2    3    3    0    0 -0.42153746735E+02 -0.21148109162E+02  0.78829136146E+02  0.12104322458E+03  0.78824162709E+02 0.  0.
         -6    2    1    2    0  502 -0.21421863952E+02  0.41127588139E+02  0.52777074367E+03  0.55581006638E+03  0.16802528755E+03 0.  0.
        -24    2    5    5    0    0  0.75511345102E+01  0.23183131129E+02  0.11832332243E+03  0.14491991203E+03  0.80043082603E+02 0.  0.
          5    1    3    3  501    0  0.63575610687E+02 -0.19979478977E+02  0.19240502685E+03  0.20367332229E+03  0.47000000000E+01 0. -1.
        -13    1    4    4    0    0 -0.16506537723E+02 -0.40496576757E+02  0.77381284276E+02  0.88883641199E+02  0.00000000000E+00 0.  1.
         14    1    4    4    0    0 -0.25647209012E+02  0.19348467594E+02  0.14478518703E+01  0.32159583383E+02  0.00000000000E+00 0. -1.
         -5    1    5    5    0  502 -0.28972998462E+02  0.17944457010E+02  0.40944742124E+03  0.41089015435E+03  0.47000000000E+01 0.  1.
         11    1    6    6    0    0  0.42430931595E+02  0.21841660694E+02  0.56823553585E+02  0.74204840407E+02  0.00000000000E+00 0. -1.
        -12    1    6    6    0    0 -0.34879797084E+02  0.13414704343E+01  0.61499768843E+02  0.70715071628E+02  0.00000000000E+00 0.  1.
</event>
<event>
12    1  0.1559648E+000  0.2282973E+03  0.7818608E-02  0.1128814E+00
         21   -1    0    0  503  502  0.00000000000E+00  0.00000000000E+00  0.31245598431E+03  0.31245598431E+03  0.00000000000E+00 0.  1.
         21   -1    0    0  501  503 -0.00000000000E+00 -0.00000000000E+00 -0.36135656456E+03  0.36135656456E+03  0.00000000000E+00 0.  1.
          6    2    1    2  501    0  0.14978833401E+03  0.76478158312E+01  0.22535386076E+03  0.31697203543E+03  0.16489958943E+03 0.  0.
         24    2    3    3    0    0  0.14792603680E+03 -0.40555255818E+02  0.17808016652E+03  0.24926755675E+03  0.83035703172E+02 0.  0.
         -6    2    1    2    0  502 -0.14978833401E+03 -0.76478158312E+01 -0.27425444101E+03  0.35684051343E+03  0.17211803950E+03 0.  0.
        -24    2    5    5    0    0 -0.44851519924E+02 -0.38421325105E+02 -0.58419596839E+02  0.11483738581E+03  0.79290092835E+02 0.  0.
          5    1    3    3  501    0  0.18622972108E+01  0.48203071649E+02  0.47273694238E+02  0.67704478686E+02  0.47000000000E+01 0. -1.
        -13    1    4    4    0    0 -0.95974227796E+01 -0.84869097430E+01  0.20402390841E+02  0.24091403302E+02  0.00000000000E+00 0.  1.
         14    1    4    4    0    0  0.15752345957E+03 -0.32068346075E+02  0.15767777568E+03  0.22517615344E+03  0.00000000000E+00 0. -1.
         -5    1    5    5    0  502 -0.10493681408E+03  0.30773509273E+02 -0.21583484417E+03  0.24200312763E+03  0.47000000000E+01 0.  1.
         11    1    6    6    0    0 -0.44777945122E+02 -0.75733493797E+01 -0.68672022092E+02  0.82330229007E+02  0.00000000000E+00 0. -1.
        -12    1    6    6    0    0 -0.73574802013E-01 -0.30847975725E+02  0.10252425254E+02  0.32507156799E+02  0.00000000000E+00 0.  1.
</event>
<event>
12    1  0.9873238E-001  0.3108744E+03  0.7818608E-02  0.1080672E+00
         21   -1    0    0  501  502  0.00000000000E+00  0.00000000000E+00  0.28543527021E+03  0.28543527021E+03  0.00000000000E+00 0. -1.
         21   -1    0    0  502  503 -0.00000000000E+00 -0.00000000000E+00 -0.33189909728E+03  0.33189909728E+03  0.00000000000E+00 0. -1.
         -6    2    1    2    0  503  0.20575535408E+03 -0.14422960459E+03 -0.22401358122E+02  0.30553006275E+03  0.17236401546E+03 0.  0.
        -24    2    3    3    0    0  0.14203844736E+03 -0.13874051903E+03 -0.70653726680E+02  0.22527823826E+03  0.79589467828E+02 0.  0.
          6    2    1    2  501    0 -0.20575535408E+03  0.14422960459E+03 -0.24062468951E+02  0.31180430474E+03  0.18304501487E+03 0.  0.
         24    2    5    5    0    0 -0.28924243692E+02  0.69510285747E+02 -0.34401940809E+02  0.11949930509E+03  0.86187578504E+02 0.  0.
          5    1    5    5  501    0 -0.17683111039E+03  0.74719318842E+02  0.10339471858E+02  0.19230499965E+03  0.47000000000E+01 0. -1.
        -13    1    6    6    0    0 -0.40478952612E+02  0.79204952040E+02 -0.46309630915E+02  0.10028236110E+03  0.00000000000E+00 0.  1.
         14    1    6    6    0    0  0.11554708920E+02 -0.96946662927E+01  0.11907690106E+02  0.19216943993E+02  0.00000000000E+00 0. -1.
         -5    1    3    3    0  503  0.63716906723E+02 -0.54890855560E+01  0.48252368558E+02  0.80251824491E+02  0.47000000000E+01 0.  1.
         11    1    4    4    0    0  0.62126287886E+01 -0.39667146788E+02  0.58422958728E+01  0.40573534624E+02  0.00000000000E+00 0. -1.
        -12    1    4    4    0    0  0.13582581857E+03 -0.99073372245E+02 -0.76496022553E+02  0.18470470363E+03  0.00000000000E+00 0.  1.
</event>
<event>
12    1  0.9873238E-001  0.1777620E+03  0.7818608E-02  0.1170337E+00
         21   -1    0    0  501  502  0.00000000000E+00  0.00000000000E+00  0.64023322655E+02  0.64023322655E+02  0.00000000000E+00 0. -1.
         21   -1    0    0  502  503 -0.00000000000E+00 -0.00000000000E+00 -0.64781080740E+03  0.64781080740E+03  0.00000000000E+00 0. -1.
         -6    2    1    2    0  503  0.34243335274E+02 -0.17334828569E+02 -0.11690332664E+03  0.21275744364E+03  0.17356912096E+03 0.  0.
        -24    2    3    3    0    0  0.21965757328E+02  0.46523016281E+02 -0.11391437080E+03  0.14749193110E+03  0.78297511627E+02 0.  0.
          6    2    1    2  501    0 -0.34243335274E+02  0.17334828569E+02 -0.46688415811E+03  0.49907668642E+03  0.17211513455E+03 0.  0.
         24    2    5    5    0    0 -0.15982531593E+02  0.77927314790E+02 -0.32653270431E+03  0.34504575796E+03  0.78133606070E+02 0.  0.
          5    1    5    5  501    0 -0.18260803681E+02 -0.60592486222E+02 -0.14035145380E+03  0.15403092846E+03  0.47000000000E+01 0. -1.
        -11    1    6    6    0    0  0.22407488810E+02  0.27472443757E+02 -0.20426046550E+03  0.20731417821E+03  0.00000000000E+00 0.  1.
         12    1    6    6    0    0 -0.38390020403E+02  0.50454871033E+02 -0.12227223881E+03  0.13773157975E+03  0.00000000000E+00 0. -1.
         -5    1    3    3    0  503  0.12277577946E+02 -0.63857844849E+02 -0.29889558352E+01  0.65265512531E+02  0.47000000000E+01 0.  1.
         11    1    4    4    0    0  0.14090272138E+02 -0.17854747399E+02 -0.56371998839E+02  0.60787581188E+02  0.00000000000E+00 0. -1.
        -12    1    4    4    0    0  0.78754851905E+01  0.64377763679E+02 -0.57542371962E+02  0.86704349916E+02  0.00000000000E+00 0.  1.
</event>
<event>
12    1  0.9873238E-001  0.2689214E+03  0.7818608E-02  0.1101958E+00
         21   -1    0    0  503  502  0.00000000000E+00  0.00000000000E+00  0.25721891689E+03  0.25721891689E+03  0.00000000000E+00 0. -1.
         21   -1    0    0  501  503 -0.00000000000E+00 -0.00000000000E+00 -0.96442370464E+03  0.96442370464E+03  0.00000000000E+00 0. -1.
          6    2    1    2  501    0  0.18643439939E+03 -0.90144653343E+02 -0.86781820620E+03  0.90840885695E+03  0.17092211258E+03 0.  0.
         24    2    3    3    0    0  0.98636124412E+02  0.18260034524E+02 -0.38672266440E+03  0.40747460600E+03  0.80116299644E+02 0.  0.
         -6    2    1    2    0  502 -0.18643439939E+03  0.90144653343E+02  0.16061341845E+03  0.31323376458E+03  0.17156595607E+03 0.  0.
        -24    2    5    5    0    0 -0.12267641838E+03  0.77839435533E+02  0.17995973925E+03  0.24531566202E+03  0.81766649249E+02 0.  0.
          5    1    3    3  501    0  0.87798274980E+02 -0.10840468787E+03 -0.48109554180E+03  0.50093425095E+03  0.47000000000E+01 0. -1.
        -11    1    4    4    0    0  0.11240385726E+03  0.20734222397E+02 -0.34911291747E+03  0.36734774295E+03  0.00000000000E+00 0.  1.
         12    1    4    4    0    0 -0.13767732852E+02 -0.24741878722E+01 -0.37609746938E+02  0.40126863050E+02  0.00000000000E+00 0. -1.
         -5    1    5    5    0  502 -0.63757981008E+02  0.12305217810E+02 -0.19346320795E+02  0.67918102564E+02  0.47000000000E+01 0.  1.
         13    1    6    6    0    0 -0.17792864202E+02  0.39481941676E+01  0.81712754217E+02  0.83720657281E+02  0.00000000000E+00 0. -1.
        -14    1    6    6    0    0 -0.10488355418E+03  0.73891241366E+02  0.98246985030E+02  0.16159500474E+03  0.00000000000E+00 0.  1.
</event>
<event>
12    1  0.9873238E-001  0.3121273E+03  0.7818608E-02  0.1079362E+00
         21   -1    0    0  501  502  0.00000000000E+00  0.00000000000E+00  0.95057659927E+03  0.95057659927E+03  0.00000000000E+00 0. -1.
         21   -1    0    0  502  503 -0.00000000000E+00 -0.00000000000E+00 -0.15320965442E+03  0.15320965442E+03  0.00000000000E+00 0. -1.
         -6    2    1    2    0  503  0.24063743921E+03 -0.98759590155E+02  0.71638702874E+03  0.78132509066E+03  0.17204269395E+03 0.  0.
        -24    2    3    3    0    0  0.81652273177E+02 -0.88709030208E-01  0.17978405976E+03  0.21301438152E+03  0.79910681423E+02 0.  0.
          6    2    1    2  501    0 -0.24063743921E+03  0.98759590155E+02  0.80979916110E+02  0.32246116304E+03  0.17252136406E+03 0.  0.
         24    2    5    5    0    0 -0.10277263869E+03  0.96402653115E+02  0.88316363348E+02  0.18430121286E+03  0.79444762164E+02 0.  0.
          5    1    5    5  501    0 -0.13786480052E+03  0.23569370393E+01 -0.73364472382E+01  0.13815995018E+03  0.47000000000E+01 0. -1.
        -11    1    6    6    0    0 -0.25771647355E+02  0.57888501699E+02  0.35278246862E+01  0.63464178742E+02  0.00000000000E+00 0.  1.
         12    1    6    6    0    0 -0.77000991331E+02  0.38514151416E+02  0.84788538662E+02  0.12083703411E+03  0.00000000000E+00 0. -1.
         -5    1    3    3    0  503  0.15898516603E+03 -0.98670881125E+02  0.53660296898E+03  0.56831070914E+03  0.47000000000E+01 0.  1.
         11    1    4    4    0    0  0.74995475863E+02 -0.13111068244E+02  0.73818423589E+02  0.10604424158E+03  0.00000000000E+00 0. -1.
        -12    1    4    4    0    0  0.66567973148E+01  0.13022359214E+02  0.10596563617E+03  0.10697013994E+03  0.00000000000E+00 0.  1.
</event>
<event>
12    1  0.9873238E-001  0.1947791E+03  0.7818608E-02  0.1154546E+00
         21   -1    0    0  501  502  0.00000000000E+00  0.00000000000E+00  0.83385584809E+02  0.83385584809E+02  0.00000000000E+00 0. -1.
         21   -1    0    0  502  503 -0.00000000000E+00 -0.00000000000E+00 -0.49257457351E+03  0.49257457351E+03  0.00000000000E+00 0. -1.
         -6    2    1    2    0  503  0.27931967669E+02 -0.82785595202E+02 -0.12217158572E+03  0.22992342347E+03  0.17408398753E+03 0.  0.
        -24    2    3    3    0    0  0.36423597301E+02 -0.98422152138E+02 -0.30063548507E+02  0.13599477926E+03  0.81099719876E+02 0.  0.
          6    2    1    2  501    0 -0.27931967669E+02  0.82785595202E+02 -0.28701740299E+03  0.34603673484E+03  0.17242036612E+03 0.  0.
         24    2    5    5    0    0 -0.61876611742E+02  0.91122581538E+02 -0.28049470435E+03  0.31017059761E+03  0.73460741279E+02 0.  0.
          5    1    5    5  501    0  0.33944644073E+02 -0.83369863359E+01 -0.65226986389E+01  0.35866137232E+02  0.47000000000E+01 0. -1.
        -13    1    6    6    0    0 -0.25569141360E+01 -0.12459930518E+02 -0.33826871453E+02  0.36139243361E+02  0.00000000000E+00 0.  1.
         14    1    6    6    0    0 -0.59319697606E+02  0.10358251206E+03 -0.24666783289E+03  0.27403135425E+03  0.00000000000E+00 0. -1.
         -5    1    3    3    0  503 -0.84916296320E+01  0.15636556937E+02 -0.92108037208E+02  0.93928644220E+02  0.47000000000E+01 0.  1.
         13    1    4    4    0    0  0.12024139688E+02 -0.10282104423E+03 -0.37509928533E+02  0.11010786443E+03  0.00000000000E+00 0. -1.
        -14    1    4    4    0    0  0.24399457613E+02  0.43988920918E+01  0.74463800255E+01  0.25886914821E+02  0.00000000000E+00 0.  1.
</event>
<event>
12    1  0.9873238E-001  0.5738818E+03  0.7818608E-02  0.9962136E-01
         21   -1    0    0  503  502  0.00000000000E+00  0.00000000000E+00  0.63959712637E+03  0.63959712637E+03  0.00000000000E+00 0. -1.
         21   -1    0    0  501  503 -0.00000000000E+00 -0.00000000000E+00 -0.51327338312E+03  0.51327338312E+03  0.00000000000E+00 0. -1.
          6    2    1    2  501    0 -0.27747929979E+03 -0.47183071095E+03  0.61501231444E+02  0.57533933289E+03  0.16617450134E+03 0.  0.
         24    2    3    3    0    0 -0.29346199609E+03 -0.43798981117E+03  0.58229319112E+02  0.53747842311E+03  0.86818107934E+02 0.  0.
         -6    2    1    2    0  502  0.27747929979E+03  0.47183071095E+03  0.64822511806E+02  0.57753117659E+03  0.17239872473E+03 0.  0.
        -24    2    5    5    0    0  0.13299188819E+03  0.32646011579E+03  0.85561603286E+02  0.37146948203E+03  0.80035858207E+02 0.  0.
          5    1    3    3  501    0  0.15982696304E+02 -0.33840899781E+02  0.32719123321E+01  0.37860909781E+02  0.47000000000E+01 0. -1.
        -13    1    4    4    0    0 -0.43070344038E+02 -0.13221704301E+03  0.12031710434E+02  0.13957493706E+03  0.00000000000E+00 0.  1.
         14    1    4    4    0    0 -0.25039165205E+03 -0.30577276816E+03  0.46197608678E+02  0.39790348605E+03  0.00000000000E+00 0. -1.
         -5    1    5    5    0  502  0.14448741160E+03  0.14537059517E+03 -0.20739091480E+02  0.20606169456E+03  0.47000000000E+01 0.  1.
         11    1    6    6    0    0 -0.52202153997E+01 -0.13119435173E+01 -0.73079572540E+00  0.54319340022E+01  0.00000000000E+00 0. -1.
        -12    1    6    6    0    0  0.13821210359E+03  0.32777205930E+03  0.86292399012E+02  0.36603754803E+03  0.00000000000E+00 0.  1.
</event>
<event>
12    1  0.9873238E-001  0.1757526E+03  0.7818608E-02  0.1172438E+00
         21   -1    0    0  501  502  0.00000000000E+00  0.00000000000E+00  0.11098842852E+03  0.11098842852E+03  0.00000000000E+00 0.  1.
         21   -1    0    0  502  503 -0.00000000000E+00 -0.00000000000E+00 -0.29952911290E+03  0.29952911290E+03  0.00000000000E+00 0.  1.
         -6    2    1    2    0  503  0.54982899183E+01 -0.33296639212E+02 -0.35580679532E+02  0.17752454714E+03  0.17061677147E+03 0.  0.
        -24    2    3    3    0    0  0.11749619640E+02 -0.81724427201E+02 -0.51533463325E+02  0.12594052749E+03  0.79927361143E+02 0.  0.
          6    2    1    2  501    0 -0.54982899183E+01  0.33296639212E+02 -0.15296000485E+03  0.23299299427E+03  0.17248210029E+03 0.  0.
         24    2    5    5    0    0 -0.56395079690E+02  0.63414870032E+02 -0.94111775566E+02  0.14942987366E+03  0.79185921014E+02 0.  0.
          5    1    5    5  501    0  0.50896789772E+02 -0.30118230819E+02 -0.58848229286E+02  0.83563120614E+02  0.47000000000E+01 0. -1.
        -13    1    6    6    0    0 -0.60376043744E+01  0.58401057444E+02 -0.25102231380E+02  0.63853411791E+02  0.00000000000E+00 0.  1.
         14    1    6    6    0    0 -0.50357475315E+02  0.50138125879E+01 -0.69009544186E+02  0.85576461866E+02  0.00000000000E+00 0. -1.
         -5    1    3    3    0  503 -0.62513297215E+01  0.48427787989E+02  0.15952783793E+02  0.51584019653E+02  0.47000000000E+01 0.  1.
         11    1    4    4    0    0 -0.26586165992E+02 -0.40716679368E+02  0.15886995500E+01  0.48653840210E+02  0.00000000000E+00 0. -1.
        -12    1    4    4    0    0  0.38335785632E+02 -0.41007747834E+02 -0.53122162875E+02  0.77286687281E+02  0.00000000000E+00 0.  1.
</event>
<event>
12    1  0.9873238E-001  0.2610010E+03  0.7818608E-02  0.1106812E+00
         21   -1    0    0  503  502  0.00000000000E+00  0.00000000000E+00  0.75036237073E+02  0.75036237073E+02  0.00000000000E+00 0.  1.
         21   -1    0    0  501  503 -0.00000000000E+00 -0.00000000000E+00 -0.13485955508E+04  0.13485955508E+04  0.00000000000E+00 0.  1.
          6    2    1    2  501    0  0.18623493989E+03 -0.60841143068E+02 -0.22552675373E+03  0.34358837977E+03  0.16972200959E+03 0.  0.
         24    2    3    3    0    0  0.46405924947E+02  0.20553328765E+02 -0.59526717784E+02  0.11173645418E+03  0.79785060439E+02 0.  0.
         -6    2    1    2    0  502 -0.18623493989E+03  0.60841143068E+02 -0.10480325600E+04  0.10800434081E+04  0.17244250940E+03 0.  0.
        -24    2    5    5    0    0 -0.13387063471E+03  0.15067717112E+02 -0.41152113977E+03  0.43972621713E+03  0.76557916729E+02 0.  0.
          5    1    3    3  501    0  0.13982901494E+03 -0.81394471833E+02 -0.16600003594E+03  0.23185192559E+03  0.47000000000E+01 0. -1.
        -13    1    4    4    0    0  0.10402563272E+02 -0.19381173797E+01  0.19411057664E+02  0.22107889570E+02  0.00000000000E+00 0.  1.
         14    1    4    4    0    0  0.36003361675E+02  0.22491446144E+02 -0.78937775448E+02  0.89628564611E+02  0.00000000000E+00 0. -1.
         -5    1    5    5    0  502 -0.52364305181E+02  0.45773425956E+02 -0.63651142026E+03  0.64031719101E+03  0.47000000000E+01 0.  1.
         13    1    6    6    0    0 -0.47956759697E+02 -0.30754457891E+02 -0.17113049366E+03  0.18036444589E+03  0.00000000000E+00 0. -1.
        -14    1    6    6    0    0 -0.85913875012E+02  0.45822175003E+02 -0.24039064611E+03  0.25936177123E+03  0.00000000000E+00 0.  1.
</event>
<event>
12    1  0.9873238E-001  0.2291120E+03  0.7818608E-02  0.1127542E+00
         21   -1    0    0  501  502  0.00000000000E+00  0.00000000000E+00  0.25925754604E+03  0.25925754604E+03  0.00000000000E+00 0. -1.
         21   -1    0    0  502  503 -0.00000000000E+00 -0.00000000000E+00 -0.22693482436E+03  0.22693482436E+03  0.00000000000E+00 0. -1.
         -6    2    1    2    0  503 -0.67456759403E+02  0.13608587586E+03  0.98128586359E+02  0.24781718560E+03  0.16945311451E+03 0.  0.
        -24    2    3    3    0    0 -0.83024084779E+02  0.84455367521E+02  0.12248329674E+03  0.18845985303E+03  0.80555884137E+02 0.  0.
          6    2    1    2  501    0  0.67456759403E+02 -0.13608587586E+03 -0.65805864678E+02  0.23837518481E+03  0.17152998836E+03 0.  0.
         24    2    5    5    0    0 -0.61540551949E+01 -0.18961454196E+02  0.56545722286E+01  0.82601739639E+02  0.79960390592E+02 0.  0.
          5    1    5    5  501    0  0.73610814598E+02 -0.11712442167E+03 -0.71460436906E+02  0.15577344517E+03  0.47000000000E+01 0. -1.
        -13    1    6    6    0    0  0.29105702873E+02 -0.17929691667E+02 -0.19426470518E+02  0.39319251515E+02  0.00000000000E+00 0.  1.
         14    1    6    6    0    0 -0.35259758067E+02 -0.10317625298E+01  0.25081042746E+02  0.43282488123E+02  0.00000000000E+00 0. -1.
         -5    1    3    3    0  503  0.15567325376E+02  0.51630508344E+02 -0.24354710380E+02  0.59357332562E+02  0.47000000000E+01 0.  1.
         11    1    4    4    0    0  0.20198973951E+01  0.47196060127E+02  0.60779302818E+02  0.76978384810E+02  0.00000000000E+00 0. -1.
        -12    1    4    4    0    0 -0.85043982174E+02  0.37259307394E+02  0.61703993921E+02  0.11148146822E+03  0.00000000000E+00 0.  1.
</event>
<event>
12    1  0.9873238E-001  0.2220595E+03  0.7818608E-02  0.1132656E+00
         21   -1    0    0  503  502  0.00000000000E+00  0.00000000000E+00  0.65615255339E+02  0.65615255339E+02  0.00000000000E+00 0. -1.
         21   -1    0    0  501  503 -0.00000000000E+00 -0.00000000000E+00 -0.77220681269E+03  0.77220681269E+03  0.00000000000E+00 0. -1.
          6    2    1    2  501    0  0.13573825711E+03 -0.24928106549E+02 -0.27492701325E+03  0.35238957302E+03  0.17189317502E+03 0.  0.
         24    2    3    3    0    0  0.15550206467E+03  0.12510385861E+02 -0.19584438376E+03  0.26256529406E+03  0.79044981647E+02 0.  0.
         -6    2    1    2    0  502 -0.13573825711E+03  0.24928106549E+02 -0.43166454411E+03  0.48543249502E+03  0.17396592666E+03 0.  0.
        -24    2    5    5    0    0 -0.12363843836E+03 -0.39479699131E+02 -0.26078961590E+03  0.30236119159E+03  0.81030588905E+02 0.  0.
          5    1    3    3  501    0 -0.19763807563E+02 -0.37438492410E+02 -0.79082629484E+02  0.89824278953E+02  0.47000000000E+01 0. -1.
        -11    1    4    4    0    0  0.70676791685E+02 -0.31912648517E+02 -0.10536573798E+03  0.13082646811E+03  0.00000000000E+00 0.  1.
         12    1    4    4    0    0  0.84825272988E+02  0.44423034377E+02 -0.90478645778E+02  0.13173882595E+03  0.00000000000E+00 0. -1.
         -5    1    5    5    0  502 -0.12099818750E+02  0.64407805680E+02 -0.17087492821E+03  0.18307130342E+03  0.47000000000E+01 0.  1.
         13    1    6    6    0    0 -0.41272671134E+01  0.78320411079E+01  0.26466084804E+01  0.92401157022E+01  0.00000000000E+00 0. -1.
        -14    1    6    6    0    0 -0.11951117125E+03 -0.47311740239E+02 -0.26343622438E+03  0.29312107589E+03  0.00000000000E+00 0.  1.
</event>
<event>
12    1  0.9873238E-001  0.2284344E+03  0.7818608E-02  0.1128031E+00
         21   -1    0    0  501  502  0.00000000000E+00  0.00000000000E+00  0.30870144856E+03  0.30870144856E+03  0.00000000000E+00 0. -1.
         21   -1    0    0  502  503 -0.00000000000E+00 -0.00000000000E+00 -0.21989143763E+03  0.21989143763E+03  0.00000000000E+00 0. -1.
         -6    2    1    2    0  503  0.50040975383E+01  0.14501508393E+03  0.17285200281E+03  0.28518928734E+03  0.17435796275E+03 0.  0.
        -24    2    3    3    0    0  0.32221057429E+02  0.42430270795E+02  0.14682026419E+03  0.17580853854E+03  0.80708907951E+02 0.  0.
          6    2    1    2  501    0 -0.50040975383E+01 -0.14501508393E+03 -0.84041991889E+02  0.24340359885E+03  0.17643083623E+03 0.  0.
         24    2    5    5    0    0  0.64470286720E+01 -0.10845472048E+03  0.14455647776E+02  0.13761294007E+03  0.83212769142E+02 0.  0.
          5    1    5    5  501    0 -0.11451126210E+02 -0.36560363455E+02 -0.98497639665E+02  0.10579065879E+03  0.47000000000E+01 0. -1.
        -13    1    6    6    0    0 -0.83073812484E+01 -0.11382417268E+03 -0.29589806107E+01  0.11416527684E+03  0.00000000000E+00 0.  1.
         14    1    6    6    0    0  0.14754409920E+02  0.53694522002E+01  0.17414628386E+02  0.23447663228E+02  0.00000000000E+00 0. -1.
         -5    1    3    3    0  503 -0.27216959891E+02  0.10258481314E+03  0.26031738619E+02  0.10938074880E+03  0.47000000000E+01 0.  1.
         13    1    4    4    0    0  0.34068987660E+02 -0.15963445203E+02  0.67754244248E+02  0.77499452363E+02  0.00000000000E+00 0. -1.
        -14    1    4    4    0    0 -0.18479302310E+01  0.58393715998E+02  0.79066019946E+02  0.98309086173E+02  0.00000000000E+00 0.  1.
</event>
<event>
12    1  0.9873238E-001  0.3162633E+03  0.7818608E-02  0.1077687E+00
         21   -1    0    0  501  502  0.00000000000E+00  0.00000000000E+00  0.16983400063E+04  0.16983400063E+04  0.00000000000E+00 0.  1.
         21   -1    0    0  502  503 -0.00000000000E+00 -0.00000000000E+00 -0.77960805635E+02  0.77960805635E+02  0.00000000000E+00 0.  1.
         -6    2    1    2    0  503  0.38633007377E+02  0.26275900556E+03  0.12574386256E+04  0.12966010859E+04  0.17171975557E+03 0.  0.
        -24    2    3    3    0    0 -0.18197596760E+02  0.55091127050E+02  0.46485058784E+03  0.47527681803E+03  0.80223437572E+02 0.  0.
          6    2    1    2  501    0 -0.38633007377E+02 -0.26275900556E+03  0.36294057497E+03  0.47969972597E+03  0.16688667377E+03 0.  0.
         24    2    5    5    0    0 -0.51883471018E+02 -0.12908939464E+03  0.11228866447E+03  0.19528522229E+03  0.78559579316E+02 0.  0.
          5    1    5    5  501    0  0.13250463641E+02 -0.13366961092E+03  0.25065191050E+03  0.28441450368E+03  0.47000000000E+01 0. -1.
        -11    1    6    6    0    0 -0.72782242139E+02 -0.94517814398E+02  0.81119821138E+02  0.14426121236E+03  0.00000000000E+00 0.  1.
         12    1    6    6    0    0  0.20898771121E+02 -0.34571580246E+02  0.31168843330E+02  0.51024009932E+02  0.00000000000E+00 0. -1.
         -5    1    3    3    0  503  0.56830604136E+02  0.20766787851E+03  0.79258803781E+03  0.82132426788E+03  0.47000000000E+01 0.  1.
         13    1    4    4    0    0 -0.16455371750E+02  0.47550684190E+02  0.11725867199E+03  0.12759875777E+03  0.00000000000E+00 0. -1.
        -14    1    4    4    0    0 -0.17422250096E+01  0.75404428598E+01  0.34759191585E+03  0.34767806027E+03  0.00000000000E+00 0.  1.
</event>
<event>
12    1  0.9873238E-001  0.2776241E+03  0.7818608E-02  0.1097099E+00
         21   -1    0    0  503  502  0.00000000000E+00  0.00000000000E+00  0.16065996661E+03  0.16065996661E+03  0.00000000000E+00 0. -1.
         21   -1    0    0  501  503 -0.00000000000E+00 -0.00000000000E+00 -0.76880186440E+03  0.76880186440E+03  0.00000000000E+00 0. -1.
          6    2    1    2  501    0 -0.21653408504E+03 -0.11565736159E+02 -0.58942114426E+03  0.65120726184E+03  0.17214190755E+03 0.  0.
         24    2    3    3    0    0 -0.15742155863E+03  0.15620682126E+02 -0.54255037721E+03  0.57088073495E+03  0.80736292304E+02 0.  0.
         -6    2    1    2    0  502  0.21653408504E+03  0.11565736159E+02 -0.18720753520E+02  0.27825456917E+03  0.17336194050E+03 0.  0.
        -24    2    5    5    0    0  0.19536768087E+03  0.22517083822E+02 -0.67590603321E+02  0.22368075768E+03  0.82395642515E+02 0.  0.
          5    1    3    3  501    0 -0.59112526414E+02 -0.27186418285E+02 -0.46870767046E+02  0.80326526887E+02  0.47000000000E+01 0. -1.
        -13    1    4    4    0    0 -0.11048354286E+03  0.62107402640E+01 -0.47725886824E+03  0.48991959937E+03  0.00000000000E+00 0.  1.
         14    1    4    4    0    0 -0.46938015771E+02  0.94099418620E+01 -0.65291508978E+02  0.80961135584E+02  0.00000000000E+00 0. -1.
         -5    1    5    5    0  502  0.21166404175E+02 -0.10951347664E+02  0.48869849801E+02  0.54573811493E+02  0.47000000000E+01 0.  1.
         11    1    6    6    0    0  0.79217800404E+02  0.31742284056E+02 -0.64760812373E+02  0.10713073937E+03  0.00000000000E+00 0. -1.
        -12    1    6    6    0    0  0.11614988046E+03 -0.92252002338E+01 -0.28297909485E+01  0.11655001831E+03  0.00000000000E+00 0.  1.
</event>
<event>
12    1  0.9873238E-001  0.2279457E+03  0.7818608E-02  0.1128437E+00
         21   -1    0    0  501  502  0.00000000000E+00  0.00000000000E+00  0.34583745260E+02  0.34583745260E+02  0.00000000000E+00 0.  1.
         21   -1    0    0  502  503 -0.00000000000E+00 -0.00000000000E+00 -0.19889883258E+04  0.19889883258E+04  0.00000000000E+00 0.  1.
         -6    2    1    2    0  503  0.14236368980E+03  0.47254990613E+02 -0.47342497217E+03  0.52544308712E+03  0.17163560008E+03 0.  0.
        -24    2    3    3    0    0  0.32466723880E+02  0.75344526271E+02 -0.24248384007E+03  0.26810622302E+03  0.79697229089E+02 0.  0.
          6    2    1    2  501    0 -0.14236368980E+03 -0.47254990613E+02 -0.14809796083E+04  0.14981289839E+04  0.16908399628E+03 0.  0.
         24    2    5    5    0    0 -0.18084930798E+02  0.12592349461E+02 -0.41429597951E+03  0.42255333893E+03  0.80153188446E+02 0.  0.
          5    1    5    5  501    0 -0.12427875901E+03 -0.59847340074E+02 -0.10666836288E+04  0.10755756450E+04  0.47000000000E+01 0. -1.
        -11    1    6    6    0    0 -0.47866589331E+02 -0.41659415413E+00 -0.29723607122E+03  0.30106588308E+03  0.00000000000E+00 0.  1.
         12    1    6    6    0    0  0.29781658533E+02  0.13008943615E+02 -0.11705990830E+03  0.12148745585E+03  0.00000000000E+00 0. -1.
         -5    1    3    3    0  503  0.10989696592E+03 -0.28089535657E+02 -0.23094113209E+03  0.25733686410E+03  0.47000000000E+01 0.  1.
         11    1    4    4    0    0  0.51233865729E+02  0.66461310763E+02 -0.13746726104E+03  0.16105670643E+03  0.00000000000E+00 0. -1.
        -12    1    4    4    0    0 -0.18767141849E+02  0.88832155075E+01 -0.10501657903E+03  0.10704951659E+03  0.00000000000E+00 0.  1.
</event>
<event>
12    1  0.9873238E-001  0.2030312E+03  0.7818608E-02  0.1147549E+00
         21   -1    0    0  501  502  0.00000000000E+00  0.00000000000E+00  0.18533285406E+03  0.18533285406E+03  0.00000000000E+00 0. -1.
         21   -1    0    0  502  503 -0.00000000000E+00 -0.00000000000E+00 -0.48027339627E+03  0.48027339627E+03  0.00000000000E+00 0. -1.
         -6    2    1    2    0  503 -0.10778434729E+03  0.23910670018E+01  0.96957173590E+02  0.22499411529E+03  0.17204207532E+03 0.  0.
        -24    2    3    3    0    0  0.14645150246E+02 -0.76212542504E-01  0.50980239224E+02  0.94108524675E+02  0.77736371096E+02 0.  0.
          6    2    1    2  501    0  0.10778434729E+03 -0.23910670018E+01 -0.39189771580E+03  0.44061213503E+03  0.17009424202E+03 0.  0.
         24    2    5    5    0    0  0.47044216536E+02  0.36296130932E+02 -0.93467493634E+02  0.13357997015E+03  0.74678434841E+02 0.  0.
          5    1    5    5  501    0  0.60740130759E+02 -0.38687197934E+02 -0.29843022217E+03  0.30703216488E+03  0.47000000000E+01 0. -1.
        -11    1    6    6    0    0  0.41804052116E+02 -0.13904992321E+02 -0.52766373747E+02  0.68740219546E+02  0.00000000000E+00 0.  1.
         12    1    6    6    0    0  0.52401644194E+01  0.50201123253E+02 -0.40701119887E+02  0.64839750609E+02  0.00000000000E+00 0. -1.
         -5    1    3    3    0  503 -0.12242949754E+03  0.24672795443E+01  0.45976934366E+02  0.13088559061E+03  0.47000000000E+01 0.  1.
         13    1    4    4    0    0  0.75973540769E+01  0.10316226874E+02 -0.19052167846E+02  0.22959299326E+02  0.00000000000E+00 0. -1.
        -14    1    4    4    0    0  0.70477961695E+01 -0.10392439416E+02  0.70032407070E+02  0.71149225350E+02  0.00000000000E+00 0.  1.
</event>
<event>
12    1  0.9873238E-001  0.1849713E+03  0.7818608E-02  0.1164919E+00
         21   -1    0    0  503  502  0.00000000000E+00  0.00000000000E+00  0.60324541456E+03  0.60324541456E+03  0.00000000000E+00 0. -1.
         21   -1    0    0  501  503 -0.00000000000E+00 -0.00000000000E+00 -0.87329030701E+02  0.87329030701E+02  0.00000000000E+00 0. -1.
          6    2    1    2  501    0  0.23344164954E+01  0.43917682645E+02  0.42466010724E+02  0.18227370194E+03  0.17171525268E+03 0.  0.
         24    2    3    3    0    0 -0.65075866937E+02  0.32005709959E+02  0.17837768678E+02  0.10937183837E+03  0.79904812800E+02 0.  0.
         -6    2    1    2    0  502 -0.23344164954E+01 -0.43917682645E+02  0.47345037313E+03  0.50830074332E+03  0.17966685141E+03 0.  0.
        -24    2    5    5    0    0 -0.66640527418E+02  0.40166285427E+01  0.30390509104E+03  0.32068233599E+03  0.77600019688E+02 0.  0.
          5    1    3    3  501    0  0.67410283432E+02  0.11911972686E+02  0.24628242046E+02  0.72901863570E+02  0.47000000000E+01 0. -1.
        -13    1    4    4    0    0 -0.22409436558E+02 -0.21755278842E+02  0.25487721697E+02  0.40312516190E+02  0.00000000000E+00 0.  1.
         14    1    4    4    0    0 -0.42666430379E+02  0.53760988801E+02 -0.76499530182E+01  0.69059322176E+02  0.00000000000E+00 0. -1.
         -5    1    5    5    0  502  0.64306110923E+02 -0.47934311188E+02  0.16954528209E+03  0.18761840733E+03  0.47000000000E+01 0.  1.
         11    1    6    6    0    0 -0.37274011645E+02  0.35742536397E+02  0.22353754061E+03  0.22942517934E+03  0.00000000000E+00 0. -1.
        -12    1    6    6    0    0 -0.29366515773E+02 -0.31725907854E+02  0.80367550430E+02  0.91257156650E+02  0.00000000000E+00 0.  1.
</event>
<event>
12    1  0.9873238E-001  0.2164650E+03  0.7818608E-02  0.1136840E+00
         21   -1    0    0  501  502  0.00000000000E+00  0.00000000000E+00  0.27763807219E+03  0.27763807219E+03  0.00000000000E+00 0.  1.
         21   -1    0    0  502  503 -0.00000000000E+00 -0.00000000000E+00 -0.15753050647E+04  0.15753050647E+04  0.00000000000E+00 0.  1.
         -6    2    1    2    0  503  0.28110408492E+02  0.12560095446E+03  0.22672925836E+03  0.31346966727E+03  0.17404390501E+03 0.  0.
        -24    2    3    3    0    0  0.41388148191E+02  0.24337073972E+02  0.17766395653E+03  0.20006699663E+03  0.78466870149E+02 0.  0.
          6    2    1    2  501    0 -0.28110408492E+02 -0.12560095446E+03 -0.15243962509E+04  0.15394734696E+04  0.17213029707E+03 0.  0.
         24    2    5    5    0    0 -0.37355365834E+02 -0.16271554263E+02 -0.10110335344E+04  0.10144956076E+04  0.73159710607E+02 0.  0.
          5    1    5    5  501    0  0.92449573420E+01 -0.10932940020E+03 -0.51336271644E+03  0.52497786202E+03  0.47000000000E+01 0. -1.
        -11    1    6    6    0    0  0.15741882673E+02  0.11965246349E+02 -0.14012883478E+03  0.14151701074E+03  0.00000000000E+00 0.  1.
         12    1    6    6    0    0 -0.53097248507E+02 -0.28236800612E+02 -0.87090469966E+03  0.87297859687E+03  0.00000000000E+00 0. -1.
         -5    1    3    3    0  503 -0.13277739699E+02  0.10126388049E+03  0.49065301829E+02  0.11340267064E+03  0.47000000000E+01 0.  1.
         13    1    4    4    0    0  0.63618524926E+02  0.96637076761E+01  0.11139252235E+03  0.12864290884E+03  0.00000000000E+00 0. -1.
        -14    1    4    4    0    0 -0.22230376735E+02  0.14673366296E+02  0.66271434183E+02  0.71424087792E+02  0.00000000000E+00 0.  1.
</event>
<event>
12    1  0.9873238E-001  0.1966569E+03  0.7818608E-02  0.1152939E+00
         21   -1    0    0  503  502  0.00000000000E+00  0.00000000000E+00  0.10339393679E+03  0.10339393679E+03  0.00000000000E+00 0.  1.
         21   -1    0    0  501  503 -0.00000000000E+00 -0.00000000000E+00 -0.38227011760E+03  0.38227011760E+03  0.00000000000E+00 0.  1.
          6    2    1    2  501    0  0.11458226670E+02  0.90593588975E+02 -0.18171091094E+03  0.26775508786E+03  0.17417072831E+03 0.  0.
         24    2    3    3    0    0 -0.31290624725E+02  0.52749416193E+02 -0.31685623613E+02  0.10716454472E+03  0.81967413016E+02 0.  0.
         -6    2    1    2    0  502 -0.11458226670E+02 -0.90593588975E+02 -0.97165269875E+02  0.21790896653E+03  0.17235062721E+03 0.  0.
        -24    2    5    5    0    0  0.21597579259E+02 -0.52910463219E+02 -0.12640793070E+03  0.15968588275E+03  0.79086305131E+02 0.  0.
          5    1    3    3  501    0  0.42748851395E+02  0.37844172782E+02 -0.15002528733E+03  0.16059054314E+03  0.47000000000E+01 0. -1.
        -13    1    4    4    0    0 -0.20281952848E+02 -0.20027774171E+02 -0.12334760702E+02  0.31058262526E+02  0.00000000000E+00 0.  1.
         14    1    4    4    0    0 -0.11008671877E+02  0.72777190364E+02 -0.19350862911E+02  0.76106282192E+02  0.00000000000E+00 0. -1.
         -5    1    5    5    0  502 -0.33055805930E+02 -0.37683125756E+02  0.29242660821E+02  0.58223083775E+02  0.47000000000E+01 0.  1.
         13    1    6    6    0    0  0.65740496137E+01 -0.34101330365E+02 -0.13069848060E+03  0.13523391473E+03  0.00000000000E+00 0. -1.
        -14    1    6    6    0    0  0.15023529646E+02 -0.18809132854E+02  0.42905499055E+01  0.24451968024E+02  0.00000000000E+00 0.  1.
</event>
<event>
12    1  0.9873238E-001  0.2415198E+03  0.7818608E-02  0.1118789E+00
         21   -1    0    0  501  502  0.00000000000E+00  0.00000000000E+00  0.21407277321E+03  0.21407277321E+03  0.00000000000E+00 0. -1.
         21   -1    0    0  502  503 -0.00000000000E+00 -0.00000000000E+00 -0.32277142100E+03  0.32277142100E+03  0.00000000000E+00 0.  1.
         -6    2    1    2    0  503  0.15918951193E+03 -0.59597224538E+02  0.51626888882E+02  0.24697596283E+03  0.17157698178E+03 0.  0.
        -24    2    3    3    0    0  0.17690641469E+03 -0.77544729500E+02  0.24811505934E+02  0.20986590570E+03  0.78224183699E+02 0.  0.
          6    2    1    2  501    0 -0.15918951193E+03  0.59597224538E+02 -0.16032553667E+03  0.28986823138E+03  0.17154061901E+03 0.  0.
         24    2    5    5    0    0 -0.13432277378E+03  0.67810942349E+02 -0.18688990260E+03  0.25227068673E+03  0.77921320770E+02 0.  0.
          5    1    5    5  501    0 -0.24866738152E+02 -0.82137178107E+01  0.26564365927E+02  0.37597544650E+02  0.47000000000E+01 0. -1.
        -11    1    6    6    0    0 -0.10246996190E+03  0.53320870069E+02 -0.81895661905E+02  0.14159840294E+03  0.00000000000E+00 0.  1.
         12    1    6    6    0    0 -0.31852811879E+02  0.14490072280E+02 -0.10499424070E+03  0.11067228379E+03  0.00000000000E+00 0. -1.
         -5    1    3    3    0  503 -0.17716902754E+02  0.17947504962E+02  0.26815382948E+02  0.37110057130E+02  0.47000000000E+01 0.  1.
         13    1    4    4    0    0  0.17269207945E+02 -0.41188345167E+02  0.46072595243E+01  0.44899133188E+02  0.00000000000E+00 0. -1.
        -14    1    4    4    0    0  0.15963720674E+03 -0.36356384333E+02  0.20204246410E+02  0.16496677251E+03  0.00000000000E+00 0.  1.
</event>
<event>
12    1  0.9873238E-001  0.2211456E+03  0.7818608E-02  0.1133234E+00
         21   -1    0    0  503  502  0.00000000000E+00  0.00000000000E+00  0.50084129049E+03  0.50084129049E+03  0.00000000000E+00 0.  1.
         21   -1    0    0  501  503 -0.00000000000E+00 -0.00000000000E+00 -0.10022944700E+03  0.10022944700E+03  0.00000000000E+00 0. -1.
          6    2    1    2  501    0  0.13277923076E+03  0.38127559081E+02  0.14729480921E+03  0.26480463591E+03  0.17129418991E+03 0.  0.
         24    2    3    3    0    0  0.10264544654E+02  0.17471591906E+02  0.10482348651E+03  0.13341810485E+03  0.80011311553E+02 0.  0.
         -6    2    1    2    0  502 -0.13277923076E+03 -0.38127559081E+02  0.25331703428E+03  0.33626610158E+03  0.17268855298E+03 0.  0.
        -24    2    5    5    0    0 -0.12384032623E+03 -0.78850910750E+02  0.15032458416E+03  0.22505535494E+03  0.80613520318E+02 0.  0.
          5    1    3    3  501    0  0.12251468611E+03  0.20655967174E+02  0.42471322693E+02  0.13138653106E+03  0.47000000000E+01 0. -1.
        -13    1    4    4    0    0  0.35344970453E+02  0.45391394434E+01  0.98153548963E+02  0.10442217148E+03  0.00000000000E+00 0.  1.
         14    1    4    4    0    0 -0.25080425799E+02  0.12932452463E+02  0.66699375509E+01  0.28995933368E+02  0.00000000000E+00 0. -1.
         -5    1    5    5    0  502 -0.89389045274E+01  0.40723351669E+02  0.10299245012E+03  0.11121074664E+03  0.47000000000E+01 0.  1.
         11    1    6    6    0    0 -0.13309872751E+02 -0.37294544327E+02  0.84884082822E+01  0.40498010129E+02  0.00000000000E+00 0. -1.
        -12    1    6    6    0    0 -0.11053045348E+03 -0.41556366422E+02  0.14183617588E+03  0.18455734481E+03  0.00000000000E+00 0.  1.
</event>
<event>
12    1  0.9873238E-001  0.1832659E+03  0.7818608E-02  0.1165010E+00
         21   -1    0    0  503  502  0.00000000000E+00  0.00000000000E+00  0.90017844159E+03  0.90017844159E+03  0.00000000000E+00 0. -1.
         21   -1    0    0  501  503 -0.00000000000E+00 -0.00000000000E+00 -0.41156681429E+02  0.41156681429E+02  0.00000000000E+00 0. -1.
          6    2    1    2  501    0 -0.64292019551E+02  0.60897862778E+01  0.28190787086E+03  0.33624163465E+03  0.17151046600E+03 0.  0.
         24    2    3    3    0    0 -0.43971738812E+02 -0.37990404059E+02  0.75721688757E+02  0.12436712302E+03  0.79728429846E+02 0.  0.
         -6    2    1    2    0  502  0.64292019551E+02 -0.60897862778E+01  0.57711388930E+03  0.60509348836E+03  0.17002099624E+03 0.  0.
        -24    2    5    5    0    0  0.82379519694E+02 -0.92561363751E+01  0.22474866637E+03  0.25221883107E+03  0.78932340534E+02 0.  0.
          5    1    3    3  501    0 -0.20320280739E+02  0.44080190337E+02  0.20618618210E+03  0.21187451163E+03  0.47000000000E+01 0. -1.
        -13    1    4    4    0    0  0.45183542760E+01 -0.25807890783E+02  0.69141139252E+02  0.73938892939E+02  0.00000000000E+00 0.  1.
         14    1    4    4    0    0 -0.48490093088E+02 -0.12182513275E+02  0.65805495047E+01  0.50428230082E+02  0.00000000000E+00 0. -1.
         -5    1    5    5    0  502 -0.18087500143E+02  0.31663500974E+01  0.35236522293E+03  0.35287465730E+03  0.47000000000E+01 0.  1.
         13    1    6    6    0    0  0.20065614325E+02 -0.28441604340E+02  0.27158079470E+02  0.44148782726E+02  0.00000000000E+00 0. -1.
        -14    1    6    6    0    0  0.62313905370E+02  0.19185467965E+02  0.19759058690E+03  0.20807004834E+03  0.00000000000E+00 0.  1.
</event>
<event>
12    1  0.9873238E-001  0.2059378E+03  0.7818608E-02  0.1145753E+00
         21   -1    0    0  501  502  0.00000000000E+00  0.00000000000E+00  0.76095509462E+02  0.76095509462E+02  0.00000000000E+00 0. -1.
         21   -1    0    0  502  503 -0.00000000000E+00 -0.00000000000E+00 -0.95769715880E+03  0.95769715880E+03  0.00000000000E+00 0. -1.
         -6    2    1    2    0  503  0.92760712045E+02 -0.50589280877E+02 -0.78282838426E+03  0.80946320215E+03  0.17676699747E+03 0.  0.
        -24    2    3    3    0    0  0.11087698487E+03 -0.77919199142E+02 -0.73085273384E+03  0.74782975336E+03  0.82088452739E+02 0.  0.
          6    2    1    2  501    0 -0.92760712045E+02  0.50589280877E+02 -0.98773265084E+02  0.22432946612E+03  0.17147514816E+03 0.  0.
         24    2    5    5    0    0 -0.56726010804E+02  0.13505076401E+02  0.13759501088E+02  0.10039621240E+03  0.80559594113E+02 0.  0.
          5    1    5    5  501    0 -0.36034701241E+02  0.37084204476E+02 -0.11253276617E+03  0.12393325372E+03  0.47000000000E+01 0. -1.
        -11    1    6    6    0    0 -0.77246599560E+02  0.14779864469E+02  0.80542770902E+01  0.79059173514E+02  0.00000000000E+00 0.  1.
         12    1    6    6    0    0  0.20520588756E+02 -0.12747880682E+01  0.57052239975E+01  0.21337038885E+02  0.00000000000E+00 0. -1.
         -5    1    3    3    0  503 -0.18116272830E+02  0.27329918266E+02 -0.51975650419E+02  0.61633448793E+02  0.47000000000E+01 0.  1.
         13    1    4    4    0    0 -0.10171412569E+02 -0.20882452740E+02 -0.14815244846E+03  0.14996227009E+03  0.00000000000E+00 0. -1.
        -14    1    4    4    0    0  0.12104839744E+03 -0.57036746403E+02 -0.58270028538E+03  0.59786748326E+03  0.00000000000E+00 0.  1.
</event>
<event>
12    1  0.9873238E-001  0.1868124E+03  0.7818608E-02  0.1161771E+00
         21   -1    0    0  503  502  0.00000000000E+00  0.00000000000E+00  0.11054918488E+04  0.11054918488E+04  0.00000000000E+00 0.  1.
         21   -1    0    0  501  503 -0.00000000000E+00 -0.00000000000E+00 -0.11106860334E+03  0.11106860334E+03  0.00000000000E+00 0.  1.
          6    2    1    2  501    0 -0.48451721164E+01  0.72130692241E+02  0.10134387302E+04  0.10305129390E+04  0.17225720665E+03 0.  0.
         24    2    3    3    0    0 -0.11038425404E+02 -0.14959122313E+02  0.30779628433E+03  0.31947402058E+03  0.83543252265E+02 0.  0.
         -6    2    1    2    0  502  0.48451721164E+01 -0.72130692241E+02 -0.19015484681E+02  0.18604751314E+03  0.17036952789E+03 0.  0.
        -24    2    5    5    0    0 -0.33871883568E+02 -0.10208570965E+03 -0.25235135674E+02  0.13647849533E+03  0.80129713606E+02 0.  0.
          5    1    3    3  501    0  0.61932532877E+01  0.87089814554E+02  0.70564244585E+03  0.71103891846E+03  0.47000000000E+01 0. -1.
        -13    1    4    4    0    0 -0.34669014549E+02 -0.94369346251E+01  0.56160608228E+02  0.66670909859E+02  0.00000000000E+00 0.  1.
         14    1    4    4    0    0  0.23630589145E+02 -0.55221876880E+01  0.25163567610E+03  0.25280311072E+03  0.00000000000E+00 0. -1.
         -5    1    5    5    0  502  0.38717055684E+02  0.29955017410E+02  0.62196509926E+01  0.49569017817E+02  0.47000000000E+01 0.  1.
         13    1    6    6    0    0 -0.10648227602E+00 -0.82827964740E+02 -0.43470797737E+02  0.93542468095E+02  0.00000000000E+00 0. -1.
        -14    1    6    6    0    0 -0.33765401292E+02 -0.19257744910E+02  0.18235662063E+02  0.42936027230E+02  0.00000000000E+00 0.  1.
</event>
<event>
12    1  0.9873238E-001  0.1847746E+03  0.7818608E-02  0.1163283E+00
         21   -1    0    0  501  502  0.00000000000E+00  0.00000000000E+00  0.10407414801E+04  0.10407414801E+04  0.00000000000E+00 0.  1.
         21   -1    0    0  502  503 -0.00000000000E+00 -0.00000000000E+00 -0.10444718717E+03  0.10444718717E+03  0.00000000000E+00 0.  1.
         -6    2    1    2    0  503  0.21106840131E+02  0.62015383836E+02 -0.60945024257E+01  0.18487512412E+03  0.17277228373E+03 0.  0.
        -24    2    3    3    0    0 -0.34992775550E+02  0.83608708262E+02  0.13659438365E+02  0.12142635174E+03  0.79642125811E+02 0.  0.
          6    2    1    2  501    0 -0.21106840131E+02 -0.62015383836E+02  0.94238879540E+03  0.96031354320E+03  0.17266746372E+03 0.  0.
         24    2    5    5    0    0 -0.16086765040E+02 -0.10669713139E+03  0.83099951002E+03  0.84009988917E+03  0.59704072512E+02 0.  0.
          5    1    5    5  501    0 -0.50200750902E+01  0.44681747552E+02  0.11138928538E+03  0.12021365403E+03  0.47000000000E+01 0. -1.
        -13    1    6    6    0    0 -0.19922442724E+02 -0.36485357792E+02  0.49938877063E+03  0.50111598387E+03  0.00000000000E+00 0.  1.
         14    1    6    6    0    0  0.38356776831E+01 -0.70211773595E+02  0.33161073939E+03  0.33898390530E+03  0.00000000000E+00 0. -1.
         -5    1    3    3    0  503  0.56099615680E+02 -0.21593324426E+02 -0.19753940790E+02  0.63448772376E+02  0.47000000000E+01 0.  1.
         13    1    4    4    0    0 -0.43764360849E+02  0.86285944263E+01  0.10724095813E+02  0.45877861254E+02  0.00000000000E+00 0. -1.
        -14    1    4    4    0    0  0.87715852989E+01  0.74980113836E+02  0.29353425519E+01  0.75548490490E+02  0.00000000000E+00 0.  1.
</event>
<event>
12    1  0.9873238E-001  0.2445077E+03  0.7818608E-02  0.1116968E+00
         21   -1    0    0  503  502  0.00000000000E+00  0.00000000000E+00  0.37915755970E+03  0.37915755970E+03  0.00000000000E+00 0. -1.
         21   -1    0    0  501  503 -0.00000000000E+00 -0.00000000000E+00 -0.39955877607E+03  0.39955877607E+03  0.00000000000E+00 0. -1.
          6    2    1    2  501    0  0.12313033783E+03  0.12100414152E+03  0.29308828686E+03  0.38168675499E+03  0.17315008714E+03 0.  0.
         24    2    3    3    0    0 -0.59354972767E+00  0.14559467396E+02  0.10173331435E+03  0.13013778459E+03  0.79836366012E+02 0.  0.
         -6    2    1    2    0  502 -0.12313033783E+03 -0.12100414152E+03 -0.31348950323E+03  0.39702958078E+03  0.17191200371E+03 0.  0.
        -24    2    5    5    0    0 -0.91583348705E+02 -0.11705292065E+03 -0.32121599935E+03  0.36397487746E+03  0.84906402551E+02 0.  0.
          5    1    3    3  501    0  0.12372388756E+03  0.10644467412E+03  0.19135497251E+03  0.25154897039E+03  0.47000000000E+01 0. -1.
        -11    1    4    4    0    0  0.19893984071E+02 -0.10692670065E+02 -0.77158897412E+00  0.22598653608E+02  0.00000000000E+00 0.  1.
         12    1    4    4    0    0 -0.20487533799E+02  0.25252137460E+02  0.10250490333E+03  0.10753913099E+03  0.00000000000E+00 0. -1.
         -5    1    5    5    0  502 -0.31546989125E+02 -0.39512208687E+01  0.77264961145E+01  0.33054703318E+02  0.47000000000E+01 0.  1.
         13    1    6    6    0    0 -0.83060361234E+02 -0.13072350225E+03 -0.29553006458E+03  0.33365502652E+03  0.00000000000E+00 0. -1.
        -14    1    6    6    0    0 -0.85229874707E+01  0.13670581596E+02 -0.25685934763E+02  0.30319850943E+02  0.00000000000E+00 0.  1.
</event>
<event>
12    1  0.9873238E-001  0.1834279E+03  0.7818608E-02  0.1164931E+00
         21   -1    0    0  501  502  0.00000000000E+00  0.00000000000E+00  0.31224964282E+03  0.31224964282E+03  0.00000000000E+00 0.  1.
         21   -1    0    0  502  503 -0.00000000000E+00 -0.00000000000E+00 -0.17596249164E+03  0.17596249164E+03  0.00000000000E+00 0.  1.
         -6    2    1    2    0  503 -0.55689504320E+02 -0.26228010196E+02  0.22142882613E+03  0.28753524095E+03  0.17279050997E+03 0.  0.
        -24    2    3    3    0    0  0.28157031966E+02 -0.36492822217E+01  0.16097316585E+03  0.18162481906E+03  0.79177516171E+02 0.  0.
          6    2    1    2  501    0  0.55689504320E+02  0.26228010196E+02 -0.85141674956E+02  0.20067689351E+03  0.17097625965E+03 0.  0.
         24    2    5    5    0    0 -0.31491612292E+02 -0.11715827443E+02 -0.33416326625E+02  0.92335379915E+02  0.79247645022E+02 0.  0.
          5    1    5    5  501    0  0.87181116612E+02  0.37943837639E+02 -0.51725348331E+02  0.10834151360E+03  0.47000000000E+01 0. -1.
        -11    1    6    6    0    0 -0.27401240095E+02 -0.39334572361E+02  0.10875876695E+01  0.47950176105E+02  0.00000000000E+00 0.  1.
         12    1    6    6    0    0 -0.40903721969E+01  0.27618744919E+02 -0.34503914295E+02  0.44385203810E+02  0.00000000000E+00 0. -1.
         -5    1    3    3    0  503 -0.83846536286E+02 -0.22578727974E+02  0.60455660282E+02  0.10591042189E+03  0.47000000000E+01 0.  1.
         13    1    4    4    0    0  0.30084173966E+02 -0.18161929828E+02  0.21103600331E+02  0.40991159599E+02  0.00000000000E+00 0. -1.
        -14    1    4    4    0    0 -0.19271419998E+01  0.14512647606E+02  0.13986956551E+03  0.14063365946E+03  0.00000000000E+00 0.  1.
</event>
<event>
12    1  0.9873238E-001  0.1959430E+03  0.7818608E-02  0.1153307E+00
         21   -1    0    0  501  502  0.00000000000E+00  0.00000000000E+00  0.10211502637E+03  0.10211502637E+03  0.00000000000E+00 0.  1.
         21   -1    0    0  502  503 -0.00000000000E+00 -0.00000000000E+00 -0.53926053867E+03  0.53926053867E+03  0.00000000000E+00 0.  1.
         -6    2    1    2    0  503  0.61670118443E+02 -0.70487944070E+02 -0.39532686760E+03  0.44101968883E+03  0.17159044238E+03 0.  0.
        -24    2    3    3    0    0 -0.25897506441E+02 -0.62844822502E+02 -0.18434235594E+03  0.21240853338E+03  0.80716344703E+02 0.  0.
          6    2    1    2  501    0 -0.61670118443E+02  0.70487944070E+02 -0.41818644695E+02  0.20035587621E+03  0.17211020981E+03 0.  0.
         24    2    5    5    0    0 -0.82104588838E+02 -0.38882140953E+00  0.50007024101E-01  0.11540790707E+03  0.81102822529E+02 0.  0.
          5    1    5    5  501    0  0.20434470395E+02  0.70876765479E+02 -0.41868651719E+02  0.84947969145E+02  0.47000000000E+01 0. -1.
        -11    1    6    6    0    0 -0.17281359650E+02 -0.36612730775E+02 -0.58919499449E+01  0.40912742762E+02  0.00000000000E+00 0.  1.
         12    1    6    6    0    0 -0.64823229188E+02  0.36223909365E+02  0.59419569690E+01  0.74495164304E+02  0.00000000000E+00 0. -1.
         -5    1    3    3    0  503  0.87567624884E+02 -0.76431215673E+01 -0.21098451166E+03  0.22861115545E+03  0.47000000000E+01 0.  1.
         11    1    4    4    0    0  0.25924376205E+02 -0.28719005831E+01 -0.40443447984E+02  0.48124770954E+02  0.00000000000E+00 0. -1.
        -12    1    4    4    0    0 -0.51821882646E+02 -0.59972921919E+02 -0.14389890796E+03  0.16428376242E+03  0.00000000000E+00 0.  1.
</event>
<event>
12    1  0.9873238E-001  0.2320474E+03  0.7818608E-02  0.1125212E+00
         21   -1    0    0  501  502  0.00000000000E+00  0.00000000000E+00  0.23064278719E+03  0.23064278719E+03  0.00000000000E+00 0. -1.
         21   -1    0    0  502  503 -0.00000000000E+00 -0.00000000000E+00 -0.36245294458E+03  0.36245294458E+03  0.00000000000E+00 0. -1.
         -6    2    1    2    0  503 -0.55586805013E+02  0.14344696429E+03  0.11102636934E+03  0.25721545283E+03  0.17368364929E+03 0.  0.
        -24    2    3    3    0    0 -0.28531185358E+02  0.16442180731E+03  0.12114602053E+03  0.22120923206E+03  0.80053774433E+02 0.  0.
          6    2    1    2  501    0  0.55586805013E+02 -0.14344696429E+03 -0.24283652673E+03  0.33588027894E+03  0.17372120943E+03 0.  0.
         24    2    5    5    0    0  0.37653810960E+02 -0.82878061162E+02 -0.24392863676E+03  0.27252834916E+03  0.80522908322E+02 0.  0.
          5    1    5    5  501    0  0.17932994054E+02 -0.60568903126E+02  0.10921100259E+01  0.63351929773E+02  0.47000000000E+01 0. -1.
        -11    1    6    6    0    0 -0.73348063028E+01 -0.51915256075E+01 -0.11541568862E+03  0.11576498824E+03  0.00000000000E+00 0.  1.
         12    1    6    6    0    0  0.44988617262E+02 -0.77686535554E+02 -0.12851294814E+03  0.15676336092E+03  0.00000000000E+00 0. -1.
         -5    1    3    3    0  503 -0.27055619655E+02 -0.20974843020E+02 -0.10119651182E+02  0.36006220778E+02  0.47000000000E+01 0.  1.
         13    1    4    4    0    0  0.68014163970E+01  0.22453444812E+02 -0.92643026642E+01  0.25223872677E+02  0.00000000000E+00 0. -1.
        -14    1    4    4    0    0 -0.35332601755E+02  0.14196836250E+03  0.13041032319E+03  0.19598535938E+03  0.00000000000E+00 0.  1.
</event>
<event>
12    1  0.9873238E-001  0.3127770E+03  0.7818608E-02  0.1079444E+00
         21   -1    0    0  501  502  0.00000000000E+00  0.00000000000E+00  0.39519159247E+03  0.39519159247E+03  0.00000000000E+00 0. -1.
         21   -1    0    0  502  503 -0.00000000000E+00 -0.00000000000E+00 -0.25435511938E+03  0.25435511938E+03  0.00000000000E+00 0. -1.
         -6    2    1    2    0  503  0.81045373677E+02  0.24319763285E+03  0.13389716320E+03  0.34023216596E+03  0.17920947304E+03 0.  0.
        -24    2    3    3    0    0  0.16438272559E+02  0.37548818373E+02  0.77811983254E+02  0.11744718034E+03  0.77839609880E+02 0.  0.
          6    2    1    2  501    0 -0.81045373677E+02 -0.24319763285E+03  0.69393098987E+01  0.30931454589E+03  0.17295633281E+03 0.  0.
         24    2    5    5    0    0 -0.85124625708E+02 -0.14596255198E+03 -0.52468774804E+02  0.19519744911E+03  0.82448792151E+02 0.  0.
          5    1    5    5  501    0  0.40792520315E+01 -0.97235080866E+02  0.59408084703E+02  0.11411709677E+03  0.47000000000E+01 0. -1.
        -11    1    6    6    0    0 -0.11370743971E+02 -0.10093086100E+03 -0.30072188501E+02  0.10592765947E+03  0.00000000000E+00 0.  1.
         12    1    6    6    0    0 -0.73753881737E+02 -0.45031690987E+02 -0.22396586303E+02  0.89269789640E+02  0.00000000000E+00 0. -1.
         -5    1    3    3    0  503  0.64607101117E+02  0.20564881448E+03  0.56085179943E+02  0.22278498562E+03  0.47000000000E+01 0.  1.
         13    1    4    4    0    0  0.34677530090E+02  0.49403884701E+02  0.73777795424E+02  0.95322809517E+02  0.00000000000E+00 0. -1.
        -14    1    4    4    0    0 -0.18239257530E+02 -0.11855066328E+02  0.40341878295E+01  0.22124370824E+02  0.00000000000E+00 0.  1.
</event>
<event>
12    1  0.9873238E-001  0.2505562E+03  0.7818608E-02  0.1112954E+00
         21   -1    0    0  501  502  0.00000000000E+00  0.00000000000E+00  0.83224281644E+03  0.83224281644E+03  0.00000000000E+00 0. -1.
         21   -1    0    0  502  503 -0.00000000000E+00 -0.00000000000E+00 -0.75581212521E+02  0.75581212521E+02  0.00000000000E+00 0.  1.
         -6    2    1    2    0  503 -0.14066640567E+03 -0.11580945972E+03  0.35819601646E+03  0.43713020111E+03  0.17198708633E+03 0.  0.
        -24    2    3    3    0    0 -0.58836197223E+02 -0.13030424218E+03  0.27039789004E+03  0.31614721578E+03  0.79957172767E+02 0.  0.
          6    2    1    2  501    0  0.14066640567E+03  0.11580945972E+03  0.39846558745E+03  0.47069382785E+03  0.17198542540E+03 0.  0.
         24    2    5    5    0    0  0.47810134652E+02 -0.15388093598E+02  0.15463812928E+03  0.17861677565E+03  0.73948624844E+02 0.  0.
          5    1    5    5  501    0  0.92856271022E+02  0.13119755331E+03  0.24382745817E+03  0.29207705220E+03  0.47000000000E+01 0. -1.
        -11    1    6    6    0    0 -0.12942067587E+02  0.11481223253E+01  0.15480910701E+01  0.13084795920E+02  0.00000000000E+00 0.  1.
         12    1    6    6    0    0  0.60752202239E+02 -0.16536215923E+02  0.15309003821E+03  0.16553197973E+03  0.00000000000E+00 0. -1.
         -5    1    3    3    0  503 -0.81830208451E+02  0.14494782464E+02  0.87798126427E+02  0.12098298532E+03  0.47000000000E+01 0.  1.
         11    1    4    4    0    0 -0.68917480253E+02 -0.11157093668E+03  0.17659636722E+03  0.21996356496E+03  0.00000000000E+00 0. -1.
        -12    1    4    4    0    0  0.10081283030E+02 -0.18733305505E+02  0.93801522815E+02  0.96183650821E+02  0.00000000000E+00 0.  1.
</event>
<event>
12    1  0.9873238E-001  0.3719141E+03  0.7818608E-02  0.1053987E+00
         21   -1    0    0  501  502  0.00000000000E+00  0.00000000000E+00  0.36246641106E+03  0.36246641106E+03  0.00000000000E+00 0. -1.
         21   -1    0    0  502  503 -0.00000000000E+00 -0.00000000000E+00 -0.38355548546E+03  0.38355548546E+03  0.00000000000E+00 0.  1.
         -6    2    1    2    0  503 -0.23856999355E+03 -0.22725759485E+03  0.17713906806E+02  0.37208907509E+03  0.17197337313E+03 0.  0.
        -24    2    3    3    0    0 -0.33428681210E+02 -0.89997364683E+02  0.26942059083E+01  0.12476133659E+03  0.79631212383E+02 0.  0.
          6    2    1    2  501    0  0.23856999355E+03  0.22725759485E+03 -0.38802981200E+02  0.37393282144E+03  0.17250631107E+03 0.  0.
         24    2    5    5    0    0  0.87317993849E+02  0.16783033201E+03 -0.52397042196E+02  0.21078976925E+03  0.76781667065E+02 0.  0.
          5    1    5    5  501    0  0.15125199970E+03  0.59427262839E+02  0.13594060996E+02  0.16314305219E+03  0.47000000000E+01 0. -1.
        -11    1    6    6    0    0  0.95199551734E+02  0.10936675576E+03 -0.33161414331E+02  0.14874044950E+03  0.00000000000E+00 0.  1.
         12    1    6    6    0    0 -0.78815578855E+01  0.58463576248E+02 -0.19235627865E+02  0.62049319753E+02  0.00000000000E+00 0. -1.
         -5    1    3    3    0  503 -0.20514131234E+03 -0.13726023017E+03  0.15019700898E+02  0.24732773849E+03  0.47000000000E+01 0.  1.
         13    1    4    4    0    0 -0.34645986437E+02 -0.39755497153E+01  0.14798972948E+02  0.37883492079E+02  0.00000000000E+00 0. -1.
        -14    1    4    4    0    0  0.12173052273E+01 -0.86021814967E+02 -0.12104767040E+02  0.86877844514E+02  0.00000000000E+00 0.  1.
</event>
<event>
12    1  0.9873238E-001  0.2782735E+03  0.7818608E-02  0.1096731E+00
         21   -1    0    0  501  502  0.00000000000E+00  0.00000000000E+00  0.15107550117E+03  0.15107550117E+03  0.00000000000E+00 0. -1.
         21   -1    0    0  502  503 -0.00000000000E+00 -0.00000000000E+00 -0.51152116691E+03  0.51152116691E+03  0.00000000000E+00 0. -1.
         -6    2    1    2    0  503 -0.15429379025E+03 -0.15550515660E+03 -0.17295750879E+03  0.32705542978E+03  0.17047735000E+03 0.  0.
        -24    2    3    3    0    0 -0.64245343745E+02 -0.77705227261E+02 -0.14962761590E+02  0.12920199447E+03  0.79395872708E+02 0.  0.
          6    2    1    2  501    0  0.15429379025E+03  0.15550515660E+03 -0.18748815695E+03  0.33554123830E+03  0.17160328134E+03 0.  0.
         24    2    5    5    0    0  0.10348999774E+02  0.67934266662E+02 -0.98461600300E+02  0.14491967274E+03  0.81147140608E+02 0.  0.
          5    1    5    5  501    0  0.14394479048E+03  0.87570889940E+02 -0.89026556655E+02  0.19062156557E+03  0.47000000000E+01 0. -1.
        -11    1    6    6    0    0  0.13735097284E+02  0.41206747147E+02 -0.62352766254E+00  0.43440047130E+02  0.00000000000E+00 0.  1.
         12    1    6    6    0    0 -0.33860975102E+01  0.26727519515E+02 -0.97838072637E+02  0.10147962561E+03  0.00000000000E+00 0. -1.
         -5    1    3    3    0  503 -0.90048446505E+02 -0.77799929341E+02 -0.15799474720E+03  0.19785343531E+03  0.47000000000E+01 0.  1.
         11    1    4    4    0    0 -0.23924476777E+02 -0.32617818233E+02  0.32842264671E+02  0.52104865455E+02  0.00000000000E+00 0. -1.
        -12    1    4    4    0    0 -0.40320866968E+02 -0.45087409028E+02 -0.47805026262E+02  0.77097129011E+02  0.00000000000E+00 0.  1.
</event>
<event>
12    1  0.9873238E-001  0.3926954E+03  0.7818608E-02  0.1046339E+00
         21   -1    0    0  501  502  0.00000000000E+00  0.00000000000E+00  0.27029443160E+03  0.27029443160E+03  0.00000000000E+00 0. -1.
         21   -1    0    0  502  503 -0.00000000000E+00 -0.00000000000E+00 -0.61664079449E+03  0.61664079449E+03  0.00000000000E+00 0. -1.
         -6    2    1    2    0  503  0.35255564038E+03  0.15265261001E+02 -0.29445440978E+03  0.49082610568E+03  0.17227408051E+03 0.  0.
        -24    2    3    3    0    0  0.20265928900E+03 -0.82305732150E+01 -0.92183158247E+02  0.23792944777E+03  0.83511422561E+02 0.  0.
          6    2    1    2  501    0 -0.35255564038E+03 -0.15265261001E+02 -0.51891953104E+02  0.39610912041E+03  0.17228218921E+03 0.  0.
         24    2    5    5    0    0 -0.32972796446E+03 -0.36953197658E+02 -0.72944717642E+01  0.34131409576E+03  0.79724734454E+02 0.  0.
          5    1    5    5  501    0 -0.22827675920E+02  0.21687936657E+02 -0.44597481340E+02  0.54795024648E+02  0.47000000000E+01 0. -1.
        -11    1    6    6    0    0 -0.26741478955E+03  0.11038724883E+01 -0.15339521998E+02  0.26785665782E+03  0.00000000000E+00 0.  1.
         12    1    6    6    0    0 -0.62313174911E+02 -0.38057070147E+02  0.80450502342E+01  0.73457437941E+02  0.00000000000E+00 0. -1.
         -5    1    3    3    0  503  0.14989635138E+03  0.23495834216E+02 -0.20227125154E+03  0.25289665791E+03  0.47000000000E+01 0.  1.
         13    1    4    4    0    0  0.14484985757E+03  0.28700076079E+02 -0.81007511104E+02  0.16842622260E+03  0.00000000000E+00 0. -1.
        -14    1    4    4    0    0  0.57809431431E+02 -0.36930649294E+02 -0.11175647143E+02  0.69503225168E+02  0.00000000000E+00 0.  1.
</event>
<event>
12    1  0.9873238E-001  0.1871743E+03  0.7818608E-02  0.1162989E+00
         21   -1    0    0  503  502  0.00000000000E+00  0.00000000000E+00  0.54623665157E+03  0.54623665157E+03  0.00000000000E+00 0.  1.
         21   -1    0    0  501  503 -0.00000000000E+00 -0.00000000000E+00 -0.70096213775E+02  0.70096213775E+02  0.00000000000E+00 0.  1.
          6    2    1    2  501    0 -0.29769588339E+02 -0.38502508613E+02  0.12437835912E+03  0.21787234249E+03  0.17213282617E+03 0.  0.
         24    2    3    3    0    0  0.16009498797E+02 -0.26528544371E+02 -0.97398645654E+00  0.83803698955E+02  0.77859126573E+02 0.  0.
         -6    2    1    2    0  502  0.29769588339E+02  0.38502508613E+02  0.35176207868E+03  0.39846052286E+03  0.18073615222E+03 0.  0.
        -24    2    5    5    0    0  0.77907285569E+02  0.15611604588E+02  0.31161073038E+03  0.33156170260E+03  0.80738144639E+02 0.  0.
          5    1    3    3  501    0 -0.45779087135E+02 -0.11973964242E+02  0.12535234557E+03  0.13406864353E+03  0.47000000000E+01 0. -1.
        -11    1    4    4    0    0  0.28005853162E+02  0.15438842272E+02  0.17445059213E+02  0.36428227420E+02  0.00000000000E+00 0.  1.
         12    1    4    4    0    0 -0.11996354365E+02 -0.41967386643E+02 -0.18419045670E+02  0.47375471534E+02  0.00000000000E+00 0. -1.
         -5    1    5    5    0  502 -0.48137697231E+02  0.22890904025E+02  0.40151348301E+02  0.66898820259E+02  0.47000000000E+01 0.  1.
         11    1    6    6    0    0  0.75131289476E+02  0.41618147210E+02  0.21632088408E+03  0.23274772979E+03  0.00000000000E+00 0. -1.
        -12    1    6    6    0    0  0.27759960937E+01 -0.26006542622E+02  0.95289846304E+02  0.98813972808E+02  0.00000000000E+00 0.  1.
</event>
<event>
12    1  0.9873238E-001  0.1799582E+03  0.7818608E-02  0.1169888E+00
         21   -1    0    0  501  502  0.00000000000E+00  0.00000000000E+00  0.17982808559E+03  0.17982808559E+03  0.00000000000E+00 0. -1.
         21   -1    0    0  502  503 -0.00000000000E+00 -0.00000000000E+00 -0.17509870058E+03  0.17509870058E+03  0.00000000000E+00 0. -1.
         -6    2    1    2    0  503  0.19720450258E+02 -0.17148457864E+02  0.26252453551E+02  0.18186298070E+03  0.17805051718E+03 0.  0.
        -24    2    3    3    0    0  0.28355135696E+02  0.53397636559E+02  0.41754316438E+02  0.10896780265E+03  0.80468862063E+02 0.  0.
          6    2    1    2  501    0 -0.19720450258E+02  0.17148457864E+02 -0.21523068542E+02  0.17306380547E+03  0.16971998267E+03 0.  0.
         24    2    5    5    0    0 -0.68296499373E+02  0.45865578371E+02 -0.29631644553E+01  0.11347466554E+03  0.78100296220E+02 0.  0.
          5    1    5    5  501    0  0.48576049115E+02 -0.28717120507E+02 -0.18559904087E+02  0.59589139930E+02  0.47000000000E+01 0. -1.
        -11    1    6    6    0    0 -0.45036331830E+01  0.29688101932E+02  0.27715369845E+02  0.40863282220E+02  0.00000000000E+00 0.  1.
         12    1    6    6    0    0 -0.63792866190E+02  0.16177476439E+02 -0.30678534300E+02  0.72611383319E+02  0.00000000000E+00 0. -1.
         -5    1    3    3    0  503 -0.86346854379E+01 -0.70546094423E+02 -0.15501862887E+02  0.72895178057E+02  0.47000000000E+01 0.  1.
         11    1    4    4    0    0  0.46105376809E+02  0.18512905622E+02 -0.26764886220E+01  0.49755371937E+02  0.00000000000E+00 0. -1.
        -12    1    4    4    0    0 -0.17750241112E+02  0.34884730937E+02  0.44430805060E+02  0.59212430708E+02  0.00000000000E+00 0.  1.
</event>
<event>
12    1  0.9873238E-001  0.2052577E+03  0.7818608E-02  0.1145457E+00
         21   -1    0    0  501  502  0.00000000000E+00  0.00000000000E+00  0.26549498078E+03  0.26549498078E+03  0.00000000000E+00 0. -1.
         21   -1    0    0  502  503 -0.00000000000E+00 -0.00000000000E+00 -0.15969611386E+03  0.15969611386E+03  0.00000000000E+00 0. -1.
         -6    2    1    2    0  503  0.10192175255E+03 -0.46311227215E+02  0.33689247523E+02  0.20800404813E+03  0.17204053369E+03 0.  0.
        -24    2    3    3    0    0  0.90149782159E+02  0.27648302482E+02 -0.35543838378E+01  0.12423192033E+03  0.80805473398E+02 0.  0.
          6    2    1    2  501    0 -0.10192175255E+03  0.46311227215E+02  0.72109619396E+02  0.21718704650E+03  0.17157401479E+03 0.  0.
         24    2    5    5    0    0 -0.11606634227E+03  0.88065066002E+00  0.12688126684E+02  0.14091771780E+03  0.78896408531E+02 0.  0.
          5    1    5    5  501    0  0.14144589719E+02  0.45430576555E+02  0.59421492712E+02  0.76269328701E+02  0.47000000000E+01 0. -1.
        -13    1    6    6    0    0 -0.37358143883E+02 -0.16941726304E+02 -0.28854426608E+02  0.50152078117E+02  0.00000000000E+00 0.  1.
         14    1    6    6    0    0 -0.78708198385E+02  0.17822376964E+02  0.41542553292E+02  0.90765639687E+02  0.00000000000E+00 0. -1.
         -5    1    3    3    0  503  0.11771970390E+02 -0.73959529697E+02  0.37243631360E+02  0.83772127804E+02  0.47000000000E+01 0.  1.
         11    1    4    4    0    0 -0.21003722681E+01  0.29390412930E+02 -0.11486221029E+02  0.31625009239E+02  0.00000000000E+00 0. -1.
        -12    1    4    4    0    0  0.92250154427E+02 -0.17421104473E+01  0.79318371912E+01  0.92606911091E+02  0.00000000000E+00 0.  1.
</event>
<event>
12    1  0.9873238E-001  0.1817429E+03  0.7818608E-02  0.1166183E+00
         21   -1    0    0  503  502  0.00000000000E+00  0.00000000000E+00  0.10593947547E+03  0.10593947547E+03  0.00000000000E+00 0. -1.
         21   -1    0    0  501  503 -0.00000000000E+00 -0.00000000000E+00 -0.34064712474E+03  0.34064712474E+03  0.00000000000E+00 0. -1.
          6    2    1    2  501    0  0.46418913882E+02  0.37426462398E+02 -0.18286821616E+03  0.25782023980E+03  0.17168295174E+03 0.  0.
         24    2    3    3    0    0  0.69656204209E+02 -0.10190745895E+02 -0.55441548384E+02  0.11973687423E+03  0.79418610398E+02 0.  0.
         -6    2    1    2    0  502 -0.46418913882E+02 -0.37426462398E+02 -0.51839433111E+02  0.18876636040E+03  0.17143499158E+03 0.  0.
        -24    2    5    5    0    0  0.50844476353E+01  0.18925344431E+02 -0.70211795718E+02  0.11010406900E+03  0.82517813121E+02 0.  0.
          5    1    3    3  501    0 -0.23237290327E+02  0.47617208293E+02 -0.12742666777E+03  0.13808336557E+03  0.47000000000E+01 0. -1.
        -13    1    4    4    0    0  0.66282792304E+02  0.14289692567E+01 -0.72872393145E+02  0.98518202336E+02  0.00000000000E+00 0.  1.
         14    1    4    4    0    0  0.33734119051E+01 -0.11619715152E+02  0.17430844761E+02  0.21218671899E+02  0.00000000000E+00 0. -1.
         -5    1    5    5    0  502 -0.51503361517E+02 -0.56351806829E+02  0.18372362607E+02  0.78662291400E+02  0.47000000000E+01 0.  1.
         11    1    6    6    0    0  0.30016818349E+02 -0.85554877895E+01 -0.59717409343E+00  0.31217981549E+02  0.00000000000E+00 0. -1.
        -12    1    6    6    0    0 -0.24932370714E+02  0.27480832220E+02 -0.69614621624E+02  0.78886087448E+02  0.00000000000E+00 0.  1.
</event>
<event>
12    1  0.9873238E-001  0.1757910E+03  0.7818608E-02  0.1172300E+00
         21   -1    0    0  501  502  0.00000000000E+00  0.00000000000E+00  0.39984664656E+03  0.39984664656E+03  0.00000000000E+00 0.  1.
         21   -1    0    0  502  503 -0.00000000000E+00 -0.00000000000E+00 -0.10535842360E+03  0.10535842360E+03  0.00000000000E+00 0.  1.
         -6    2    1    2    0  503 -0.25132674873E+02 -0.18326158634E+02  0.14959085348E+02  0.17499448924E+03  0.17155698060E+03 0.  0.
        -24    2    3    3    0    0 -0.54457685244E+02  0.21983879359E+02 -0.35137353088E+02  0.10416653896E+03  0.78530909986E+02 0.  0.
          6    2    1    2  501    0  0.25132674873E+02  0.18326158634E+02  0.27952913761E+03  0.33021058093E+03  0.17301730997E+03 0.  0.
         24    2    5    5    0    0  0.22149817907E+02  0.54483644247E+02  0.27550802552E+03  0.29340676939E+03  0.81998648015E+02 0.  0.
          5    1    5    5  501    0  0.29828569660E+01 -0.36157485613E+02  0.40211120943E+01  0.36803811542E+02  0.47000000000E+01 0. -1.
        -13    1    6    6    0    0  0.19005700054E+02  0.76129728670E+02  0.20167390876E+03  0.21640082646E+03  0.00000000000E+00 0.  1.
         14    1    6    6    0    0  0.31441178530E+01 -0.21646084424E+02  0.73834116762E+02  0.77005942926E+02  0.00000000000E+00 0. -1.
         -5    1    3    3    0  503  0.29325010371E+02 -0.40310037993E+02  0.50096438436E+02  0.70827950275E+02  0.47000000000E+01 0.  1.
         11    1    4    4    0    0 -0.23344835854E+02  0.45939163429E+02 -0.84754702660E-01  0.51530527660E+02  0.00000000000E+00 0. -1.
        -12    1    4    4    0    0 -0.31112849391E+02 -0.23955284070E+02 -0.35052598385E+02  0.52636011301E+02  0.00000000000E+00 0.  1.
</event>
<event>
12    1  0.9873238E-001  0.2466465E+03  0.7818608E-02  0.1115448E+00
         21   -1    0    0  501  502  0.00000000000E+00  0.00000000000E+00  0.11512096004E+03  0.11512096004E+03  0.00000000000E+00 0.  1.
         21   -1    0    0  502  503 -0.00000000000E+00 -0.00000000000E+00 -0.54740998046E+03  0.54740998046E+03  0.00000000000E+00 0.  1.
         -6    2    1    2    0  503  0.16646604093E+03  0.58452009928E+02 -0.27792007994E+03  0.37155972691E+03  0.17230635386E+03 0.  0.
        -24    2    3    3    0    0  0.70289376218E+02  0.96647853701E+02 -0.15534217056E+03  0.21107201030E+03  0.78350491645E+02 0.  0.
          6    2    1    2  501    0 -0.16646604093E+03 -0.58452009928E+02 -0.15436894047E+03  0.29097121359E+03  0.17235688878E+03 0.  0.
         24    2    5    5    0    0 -0.31734653577E+02 -0.35593016219E+02 -0.13267819867E+02  0.94485344972E+02  0.80482882212E+02 0.  0.
          5    1    5    5  501    0 -0.13473138735E+03 -0.22858993709E+02 -0.14110112060E+03  0.19648586862E+03  0.47000000000E+01 0. -1.
        -11    1    6    6    0    0 -0.26236948532E+02 -0.41975897319E+02  0.24891627559E+02  0.55407098341E+02  0.00000000000E+00 0.  1.
         12    1    6    6    0    0 -0.54977050448E+01  0.63828810996E+01 -0.38159447426E+02  0.39078246631E+02  0.00000000000E+00 0. -1.
         -5    1    3    3    0  503  0.96176664712E+02 -0.38195843773E+02 -0.12257790938E+03  0.16048771662E+03  0.47000000000E+01 0.  1.
         13    1    4    4    0    0  0.58512051129E+02  0.18511105537E+02 -0.87787705087E+02  0.10711210165E+03  0.00000000000E+00 0. -1.
        -14    1    4    4    0    0  0.11777325089E+02  0.78136748164E+02 -0.67554465477E+02  0.10395990865E+03  0.00000000000E+00 0.  1.
</event>
<event>
12    1  0.9873238E-001  0.6050873E+03  0.7818608E-02  0.9895050E-01
         21   -1    0    0  501  502  0.00000000000E+00  0.00000000000E+00  0.48684798001E+03  0.48684798001E+03  0.00000000000E+00 0.  1.
         21   -1    0    0  502  503 -0.00000000000E+00 -0.00000000000E+00 -0.80053958091E+03  0.80053958091E+03  0.00000000000E+00 0. -1.
         -6    2    1    2    0  503  0.46212182195E+03 -0.34975413202E+03  0.21166907087E+01  0.60509104626E+03  0.17391423948E+03 0.  0.
        -24    2    3    3    0    0  0.23214038153E+03 -0.12524028230E+03 -0.46546447159E+02  0.27999394901E+03  0.81582808785E+02 0.  0.
          6    2    1    2  501    0 -0.46212182195E+03  0.34975413202E+03 -0.31580829160E+03  0.68229651467E+03  0.17294255028E+03 0.  0.
         24    2    5    5    0    0 -0.10295463187E+03  0.12259984810E+03 -0.11040959440E+03  0.21026806855E+03  0.79950003993E+02 0.  0.
          5    1    5    5  501    0 -0.35916719008E+03  0.22715428393E+03 -0.20539869720E+03  0.47202844612E+03  0.47000000000E+01 0. -1.
        -13    1    6    6    0    0 -0.98767315090E+02  0.60004602081E+02 -0.62912119569E+02  0.13158065811E+03  0.00000000000E+00 0.  1.
         14    1    6    6    0    0 -0.41873167800E+01  0.62595246015E+02 -0.47497474828E+02  0.78687410432E+02  0.00000000000E+00 0. -1.
         -5    1    3    3    0  503  0.22998144041E+03 -0.22451384972E+03  0.48663137868E+02  0.32509709725E+03  0.47000000000E+01 0.  1.
         13    1    4    4    0    0  0.10637958648E+03 -0.13483220815E+02 -0.27324346887E+02  0.11065727991E+03  0.00000000000E+00 0. -1.
        -14    1    4    4    0    0  0.12576079505E+03 -0.11175706149E+03 -0.19222100273E+02  0.16933666910E+03  0.00000000000E+00 0.  1.
</event>
<event>
12    1  0.9873238E-001  0.3111110E+03  0.7818608E-02  0.1080193E+00
         21   -1    0    0  503  502  0.00000000000E+00  0.00000000000E+00  0.69883743993E+03  0.69883743993E+03  0.00000000000E+00 0. -1.
         21   -1    0    0  501  503 -0.00000000000E+00 -0.00000000000E+00 -0.17756297093E+03  0.17756297093E+03  0.00000000000E+00 0.  1.
          6    2    1    2  501    0  0.94069099472E+01 -0.25809088861E+03  0.52485580345E+02  0.31550724107E+03  0.17346667199E+03 0.  0.
         24    2    3    3    0    0  0.63364295757E+02 -0.14232540829E+03  0.64949245285E+02  0.18709198162E+03  0.80705943416E+02 0.  0.
         -6    2    1    2    0  502 -0.94069099472E+01  0.25809088861E+03  0.46878888865E+03  0.56089316978E+03  0.16774602544E+03 0.  0.
        -24    2    5    5    0    0 -0.39867801276E+02  0.10405707099E+03  0.31331317271E+03  0.33987491009E+03  0.70231721565E+02 0.  0.
          5    1    3    3  501    0 -0.53957385810E+02 -0.11576548031E+03 -0.12463664940E+02  0.12841525945E+03  0.47000000000E+01 0. -1.
        -11    1    4    4    0    0 -0.70655864578E+01  0.25995461859E+01  0.17606650234E+02  0.19148741077E+02  0.00000000000E+00 0.  1.
         12    1    4    4    0    0  0.70429882215E+02 -0.14492495448E+03  0.47342595051E+02  0.16794324055E+03  0.00000000000E+00 0. -1.
         -5    1    5    5    0  502  0.30460891328E+02  0.15403381762E+03  0.15547571594E+03  0.22101825969E+03  0.47000000000E+01 0.  1.
         11    1    6    6    0    0 -0.17428741863E+02  0.10592279060E+01  0.10464713034E+03  0.10609384947E+03  0.00000000000E+00 0. -1.
        -12    1    6    6    0    0 -0.22439059413E+02  0.10299784308E+03  0.20866604237E+03  0.23378106062E+03  0.00000000000E+00 0.  1.
</event>
<event>
12    1  0.9873238E-001  0.2606168E+03  0.7818608E-02  0.1106863E+00
         21   -1    0    0  501  502  0.00000000000E+00  0.00000000000E+00  0.73768134532E+02  0.73768134532E+02  0.00000000000E+00 0.  1.
         21   -1    0    0  502  503 -0.00000000000E+00 -0.00000000000E+00 -0.13874824791E+04  0.13874824791E+04  0.00000000000E+00 0.  1.
         -6    2    1    2    0  503  0.17520555480E+03  0.87558484641E+02 -0.23263895542E+03  0.34934509119E+03  0.17192333899E+03 0.  0.
        -24    2    3    3    0    0  0.15301374002E+03  0.24029091669E+02 -0.21998692111E+03  0.28071110262E+03  0.80086676752E+02 0.  0.
          6    2    1    2  501    0 -0.17520555480E+03 -0.87558484641E+02 -0.10810753891E+04  0.11119055224E+04  0.17101584477E+03 0.  0.
         24    2    5    5    0    0 -0.72802562655E+02 -0.10004228011E+03 -0.77288187528E+03  0.78687083209E+03  0.80688551279E+02 0.  0.
          5    1    5    5  501    0 -0.10240299214E+03  0.12483795470E+02 -0.30819351382E+03  0.32503469031E+03  0.47000000000E+01 0. -1.
        -11    1    6    6    0    0 -0.21393058607E+02 -0.42242241537E+02 -0.11369853397E+03  0.12316422595E+03  0.00000000000E+00 0.  1.
         12    1    6    6    0    0 -0.51409504048E+02 -0.57800038573E+02 -0.65918334131E+03  0.66370660613E+03  0.00000000000E+00 0. -1.
         -5    1    3    3    0  503  0.22191814775E+02  0.63529392972E+02 -0.12652034318E+02  0.68633988568E+02  0.47000000000E+01 0.  1.
         13    1    4    4    0    0  0.90840355721E+00 -0.60285216452E+00  0.66034932319E+01  0.66928880626E+01  0.00000000000E+00 0. -1.
        -14    1    4    4    0    0  0.15210533647E+03  0.24631943833E+02 -0.22659041434E+03  0.27401821456E+03  0.00000000000E+00 0.  1.
</event>
<event>
12    1  0.9873238E-001  0.2153037E+03  0.7818608E-02  0.1137537E+00
         21   -1    0    0  501  502  0.00000000000E+00  0.00000000000E+00  0.35975670057E+03  0.35975670057E+03  0.00000000000E+00 0. -1.
         21   -1    0    0  502  503 -0.00000000000E+00 -0.00000000000E+00 -0.31594508052E+03  0.31594508052E+03  0.00000000000E+00 0. -1.
         -6    2    1    2    0  503 -0.12768748007E+03  0.56780472988E+01  0.28210266147E+03  0.35455023245E+03  0.17259091208E+03 0.  0.
        -24    2    3    3    0    0 -0.29448530152E+02  0.55520856968E+02  0.10806749960E+03  0.14852711597E+03  0.80199365466E+02 0.  0.
          6    2    1    2  501    0  0.12768748007E+03 -0.56780472988E+01 -0.23829104142E+03  0.32115154864E+03  0.17326097075E+03 0.  0.
         24    2    5    5    0    0  0.68940269294E+02  0.53490016120E+02 -0.82626384336E+02  0.14450028211E+03  0.80245059569E+02 0.  0.
          5    1    5    5  501    0  0.58747210779E+02 -0.59168063419E+02 -0.15566465708E+03  0.17665126653E+03  0.47000000000E+01 0. -1.
        -11    1    6    6    0    0  0.32619960780E+02  0.23008739231E+02 -0.88146592248E+02  0.96764072089E+02  0.00000000000E+00 0.  1.
         12    1    6    6    0    0  0.36320308515E+02  0.30481276889E+02  0.55202079117E+01  0.47736210017E+02  0.00000000000E+00 0. -1.
         -5    1    3    3    0  503 -0.98238949922E+02 -0.49842809669E+02  0.17403516187E+03  0.20602311648E+03  0.47000000000E+01 0.  1.
         13    1    4    4    0    0 -0.30312096262E+02  0.75503425304E+02  0.92436110804E+02  0.12314229571E+03  0.00000000000E+00 0. -1.
        -14    1    4    4    0    0  0.86356611016E+00 -0.19982568336E+02  0.15631388795E+02  0.25384820255E+02  0.00000000000E+00 0.  1.
</event>
<event>
12    1  0.9873238E-001  0.2283796E+03  0.7818608E-02  0.1128312E+00
         21   -1    0    0  503  502  0.00000000000E+00  0.00000000000E+00  0.12572988921E+03  0.12572988921E+03  0.00000000000E+00 0. -1.
         21   -1    0    0  501  503 -0.00000000000E+00 -0.00000000000E+00 -0.82098954430E+03  0.82098954430E+03  0.00000000000E+00 0. -1.
          6    2    1    2  501    0  0.13213806168E+03 -0.62718372607E+02 -0.11389811759E+02  0.22572343923E+03  0.17154381831E+03 0.  0.
         24    2    3    3    0    0  0.56183575070E+01 -0.49774204214E+02 -0.22693239580E+02  0.97955506948E+02  0.81063313975E+02 0.  0.
         -6    2    1    2    0  502 -0.13213806168E+03  0.62718372607E+02 -0.68386984333E+03  0.72099599429E+03  0.17539441142E+03 0.  0.
        -24    2    5    5    0    0 -0.13492316078E+03  0.63813088313E+02 -0.69123676924E+03  0.71175928617E+03  0.80725713056E+02 0.  0.
          5    1    3    3  501    0  0.12651970417E+03 -0.12944168393E+02  0.11303427821E+02  0.12776793228E+03  0.47000000000E+01 0. -1.
        -13    1    4    4    0    0  0.39826183823E+02 -0.14346375819E+02  0.29458226220E+01  0.42433728188E+02  0.00000000000E+00 0.  1.
         14    1    4    4    0    0 -0.34207826316E+02 -0.35427828395E+02 -0.25639062202E+02  0.55521778760E+02  0.00000000000E+00 0. -1.
         -5    1    5    5    0  502  0.27850991001E+01 -0.10947157057E+01  0.73669259102E+01  0.92367081171E+01  0.47000000000E+01 0.  1.
         13    1    6    6    0    0 -0.16012919868E+02  0.46350055374E+02 -0.22490108825E+03  0.23018523135E+03  0.00000000000E+00 0. -1.
        -14    1    6    6    0    0 -0.11891024091E+03  0.17463032938E+02 -0.46633568099E+03  0.48157405482E+03  0.00000000000E+00 0.  1.
</event>
<event>
12    1  0.9873238E-001  0.2764903E+03  0.7818608E-02  0.1098444E+00
         21   -1    0    0  501  502  0.00000000000E+00  0.00000000000E+00  0.56611748213E+02  0.56611748213E+02  0.00000000000E+00 0.  1.
         21   -1    0    0  502  503 -0.00000000000E+00 -0.00000000000E+00 -0.15979579899E+04  0.15979579899E+04  0.00000000000E+00 0.  1.
         -6    2    1    2    0  503 -0.19724573122E+03 -0.73530228398E+02 -0.42000949349E+03  0.49964854228E+03  0.17008268050E+03 0.  0.
        -24    2    3    3    0    0 -0.77609055342E+02 -0.82728347891E+02 -0.29325910730E+03  0.32504816995E+03  0.82390920362E+02 0.  0.
          6    2    1    2  501    0  0.19724573122E+03  0.73530228398E+02 -0.11213367481E+04  0.11549211958E+04  0.17926040485E+03 0.  0.
         24    2    5    5    0    0  0.97570987857E+02  0.84605697201E+02 -0.42736034853E+03  0.45372004511E+03  0.80912237461E+02 0.  0.
          5    1    5    5  501    0  0.99674743367E+02 -0.11075468804E+02 -0.69397639962E+03  0.70120115067E+03  0.47000000000E+01 0. -1.
        -11    1    6    6    0    0  0.95663291415E+01 -0.13809459932E+02 -0.87877035233E+02  0.89468369597E+02  0.00000000000E+00 0.  1.
         12    1    6    6    0    0  0.88004658716E+02  0.98415157134E+02 -0.33948331329E+03  0.36425167551E+03  0.00000000000E+00 0. -1.
         -5    1    3    3    0  503 -0.11963667588E+03  0.91981194935E+01 -0.12675038619E+03  0.17460037233E+03  0.47000000000E+01 0.  1.
         13    1    4    4    0    0  0.58843007626E+01 -0.49124867005E+02 -0.12020855757E+03  0.12999221079E+03  0.00000000000E+00 0. -1.
        -14    1    4    4    0    0 -0.83493356105E+02 -0.33603480887E+02 -0.17305054974E+03  0.19505595916E+03  0.00000000000E+00 0.  1.
</event>
<event>
12    1  0.9873238E-001  0.2045960E+03  0.7818608E-02  0.1146191E+00
         21   -1    0    0  503  502  0.00000000000E+00  0.00000000000E+00  0.60369617370E+02  0.60369617370E+02  0.00000000000E+00 0.  1.
         21   -1    0    0  501  503 -0.00000000000E+00 -0.00000000000E+00 -0.90212890364E+03  0.90212890364E+03  0.00000000000E+00 0.  1.
          6    2    1    2  501    0 -0.95570086944E+02  0.47876314178E+02 -0.65589161353E+03  0.68706138271E+03  0.17445272122E+03 0.  0.
         24    2    3    3    0    0  0.17847228332E+01 -0.12369216893E+02 -0.17959523863E+03  0.19717587594E+03  0.80421971834E+02 0.  0.
         -6    2    1    2    0  502  0.95570086944E+02 -0.47876314178E+02 -0.18586767274E+03  0.27543713830E+03  0.17289604508E+03 0.  0.
        -24    2    5    5    0    0  0.58584392594E+02  0.13357450224E+02 -0.28976177375E+02  0.10294207516E+03  0.78402164831E+02 0.  0.
          5    1    3    3  501    0 -0.97354809777E+02  0.60245531071E+02 -0.47629637490E+03  0.48988550677E+03  0.47000000000E+01 0. -1.
        -11    1    4    4    0    0  0.20052474315E+02  0.16279640874E+02 -0.14972163459E+03  0.15193319682E+03  0.00000000000E+00 0.  1.
         12    1    4    4    0    0 -0.18267751482E+02 -0.28648857767E+02 -0.29873604040E+02  0.45242679119E+02  0.00000000000E+00 0. -1.
         -5    1    5    5    0  502  0.36985694350E+02 -0.61233764403E+02 -0.15689149537E+03  0.17249506314E+03  0.47000000000E+01 0.  1.
         13    1    6    6    0    0  0.25432894953E+02 -0.21720225084E+02 -0.41285312488E+02  0.53132639222E+02  0.00000000000E+00 0. -1.
        -14    1    6    6    0    0  0.33151497641E+02  0.35077675309E+02  0.12309135113E+02  0.49809435935E+02  0.00000000000E+00 0.  1.
</event>
<event>
12    1  0.9873238E-001  0.2020527E+03  0.7818608E-02  0.1148060E+00
         21   -1    0    0  501  502  0.00000000000E+00  0.00000000000E+00  0.35256546042E+03  0.35256546042E+03  0.00000000000E+00 0.  1.
         21   -1    0    0  502  503 -0.00000000000E+00 -0.00000000000E+00 -0.12233760622E+03  0.12233760622E+03  0.00000000000E+00 0.  1.
         -6    2    1    2    0  503  0.10615233031E+03 -0.11737819084E+02  0.17044614353E+03  0.26419202258E+03  0.17128760411E+03 0.  0.
        -24    2    3    3    0    0  0.31365304563E+02 -0.29737639872E+02  0.16328749728E+03  0.18679416094E+03  0.79756769234E+02 0.  0.
          6    2    1    2  501    0 -0.10615233031E+03  0.11737819084E+02  0.59781710681E+02  0.21071104406E+03  0.17152025399E+03 0.  0.
         24    2    5    5    0    0 -0.94388672646E+02 -0.53530319092E+02  0.57200330506E+02  0.14417483568E+03  0.75761394172E+02 0.  0.
          5    1    5    5  501    0 -0.11763657669E+02  0.65268138176E+02  0.25813801747E+01  0.66536208386E+02  0.47000000000E+01 0. -1.
        -11    1    6    6    0    0 -0.81992563342E+02 -0.15422441736E+02  0.61817198426E+02  0.10383640101E+03  0.00000000000E+00 0.  1.
         12    1    6    6    0    0 -0.12396109304E+02 -0.38107877356E+02 -0.46168679199E+01  0.40338434673E+02  0.00000000000E+00 0. -1.
         -5    1    3    3    0  503  0.74787025752E+02  0.17999820788E+02  0.71586462471E+01  0.77397861632E+02  0.47000000000E+01 0.  1.
         13    1    4    4    0    0 -0.44655144334E+00  0.23492392610E+02  0.20732959978E+02  0.31336042319E+02  0.00000000000E+00 0. -1.
        -14    1    4    4    0    0  0.31811856006E+02 -0.53230032482E+02  0.14255453730E+03  0.15545811863E+03  0.00000000000E+00 0.  1.
</event>
<event>
12    1  0.9873238E-001  0.6004738E+03  0.7818608E-02  0.9907395E-01
         21   -1    0    0  501  502  0.00000000000E+00  0.00000000000E+00  0.60779851870E+03  0.60779851870E+03  0.00000000000E+00 0.  1.
         21   -1    0    0  502  503 -0.00000000000E+00 -0.00000000000E+00 -0.78637066394E+03  0.78637066394E+03  0.00000000000E+00 0.  1.
         -6    2    1    2    0  503  0.38195825307E+02  0.57143121221E+03  0.26084752090E+03  0.65468332027E+03  0.18048897283E+03 0.  0.
        -24    2    3    3    0    0  0.31164454111E+02  0.56329308320E+03  0.27943806952E+03  0.63269769262E+03  0.62852325073E+02 0.  0.
          6    2    1    2  501    0 -0.38195825307E+02 -0.57143121221E+03 -0.43941966614E+03  0.73948586237E+03  0.16049033083E+03 0.  0.
         24    2    5    5    0    0  0.12711322896E+02 -0.48356944956E+03 -0.38893533041E+03  0.62598702876E+03  0.81166980141E+02 0.  0.
          5    1    5    5  501    0 -0.50907148204E+02 -0.87861762656E+02 -0.50484335729E+02  0.11349883360E+03  0.47000000000E+01 0. -1.
        -13    1    6    6    0    0  0.15745411701E+02 -0.41881104979E+03 -0.29775772264E+03  0.51411115024E+03  0.00000000000E+00 0.  1.
         14    1    6    6    0    0 -0.30340888047E+01 -0.64758399767E+02 -0.91177607774E+02  0.11187587852E+03  0.00000000000E+00 0. -1.
         -5    1    3    3    0  503  0.70313711959E+01  0.81381290172E+01 -0.18590548628E+02  0.21985627648E+02  0.47000000000E+01 0.  1.
         13    1    4    4    0    0  0.32998639987E+01  0.78102650992E+01  0.14129862259E+02  0.16478542131E+02  0.00000000000E+00 0. -1.
        -14    1    4    4    0    0  0.27864590113E+02  0.55548281810E+03  0.26530820727E+03  0.61621915049E+03  0.00000000000E+00 0.  1.
</event>
<event>
12    1  0.9873238E-001  0.1767060E+03  0.7818608E-02  0.1171642E+00
         21   -1    0    0  503  502  0.00000000000E+00  0.00000000000E+00  0.28952329164E+03  0.28952329164E+03  0.00000000000E+00 0.  1.
         21   -1    0    0  501  503 -0.00000000000E+00 -0.00000000000E+00 -0.11149494528E+03  0.11149494528E+03  0.00000000000E+00 0.  1.
          6    2    1    2  501    0 -0.27812843902E+02  0.10158070014E+02  0.46571261054E+02  0.18273991597E+03  0.17420750231E+03 0.  0.
         24    2    3    3    0    0  0.32752731297E+02 -0.35053983018E+02  0.68686724320E+00  0.94197348615E+02  0.81062602762E+02 0.  0.
         -6    2    1    2    0  502  0.27812843902E+02 -0.10158070014E+02  0.13145708531E+03  0.21827832095E+03  0.17171988658E+03 0.  0.
        -24    2    5    5    0    0  0.43141007927E+02  0.19031589135E+02  0.11376403063E+02  0.93665123161E+02  0.80127303712E+02 0.  0.
          5    1    3    3  501    0 -0.60565575199E+02  0.45212053033E+02  0.45884393810E+02  0.88542567356E+02  0.47000000000E+01 0. -1.
        -13    1    4    4    0    0  0.54343343792E+01 -0.23728504033E+02 -0.38228071827E+02  0.45320628520E+02  0.00000000000E+00 0.  1.
         14    1    4    4    0    0  0.27318396918E+02 -0.11325478985E+02  0.38914939070E+02  0.48876720095E+02  0.00000000000E+00 0. -1.
         -5    1    5    5    0  502 -0.15328164025E+02 -0.29189659149E+02  0.12008068225E+03  0.12461319779E+03  0.47000000000E+01 0.  1.
         13    1    6    6    0    0  0.22265261722E+01  0.27978539750E+02  0.35560838164E+02  0.45302641383E+02  0.00000000000E+00 0. -1.
        -14    1    6    6    0    0  0.40914481755E+02 -0.89469506153E+01 -0.24184435101E+02  0.48362481778E+02  0.00000000000E+00 0.  1.
</event>
<event>
12    1  0.9873238E-001  0.2472096E+03  0.7818608E-02  0.1115133E+00
         21   -1    0    0  501  502  0.00000000000E+00  0.00000000000E+00  0.59622287408E+03  0.59622287408E+03  0.00000000000E+00 0. -1.
         21   -1    0    0  502  503 -0.00000000000E+00 -0.00000000000E+00 -0.10469448499E+03  0.10469448499E+03  0.00000000000E+00 0. -1.
         -6    2    1    2    0  503  0.17532025051E+03 -0.28593986234E+02  0.19365474585E+03  0.31402983919E+03  0.17192374188E+03 0.  0.
        -24    2    3    3    0    0  0.13700406786E+03 -0.75831025860E+02  0.18083211669E+03  0.25169222948E+03  0.78283234868E+02 0.  0.
          6    2    1    2  501    0 -0.17532025051E+03  0.28593986234E+02  0.29787364323E+03  0.38688751988E+03  0.17145973119E+03 0.  0.
         24    2    5    5    0    0 -0.15713647208E+03 -0.33970706335E+02  0.18865453977E+03  0.25962443366E+03  0.77255623934E+02 0.  0.
          5    1    5    5  501    0 -0.18183778431E+02  0.62564692569E+02  0.10921910346E+03  0.12726308622E+03  0.47000000000E+01 0. -1.
        -11    1    6    6    0    0 -0.16537493345E+03 -0.33424627258E+02  0.18558848612E+03  0.25081698607E+03  0.00000000000E+00 0.  1.
         12    1    6    6    0    0  0.82384613687E+01 -0.54607907736E+00  0.30660536569E+01  0.88074475934E+01  0.00000000000E+00 0. -1.
         -5    1    3    3    0  503  0.38316182651E+02  0.47237039626E+02  0.12822629163E+02  0.62337609709E+02  0.47000000000E+01 0.  1.
         11    1    4    4    0    0  0.25019408790E+02 -0.54716600933E+02  0.75207575048E+02  0.96312286747E+02  0.00000000000E+00 0. -1.
        -12    1    4    4    0    0  0.11198465907E+03 -0.21114424927E+02  0.10562454164E+03  0.15537994273E+03  0.00000000000E+00 0.  1.
</event>
<event>
12    1  0.9873238E-001  0.2235718E+03  0.7818608E-02  0.1131251E+00
         21   -1    0    0  503  502  0.00000000000E+00  0.00000000000E+00  0.17634906961E+04  0.17634906961E+04  0.00000000000E+00 0. -1.
         21   -1    0    0  501  503 -0.00000000000E+00 -0.00000000000E+00 -0.40413413887E+02  0.40413413887E+02  0.00000000000E+00 0. -1.
          6    2    1    2  501    0  0.22986811830E+02 -0.14150497901E+03  0.13545191586E+04  0.13728461379E+04  0.17155848759E+03 0.  0.
         24    2    3    3    0    0  0.27875953489E+02 -0.13290170186E+03  0.67414028551E+03  0.69237907693E+03  0.80521615002E+02 0.  0.
         -6    2    1    2    0  502 -0.22986811830E+02  0.14150497901E+03  0.36855812361E+03  0.43105797211E+03  0.17153376413E+03 0.  0.
        -24    2    5    5    0    0 -0.25785063456E+02  0.13889793241E+02  0.85630938293E+02  0.12063350780E+03  0.79762082198E+02 0.  0.
          5    1    3    3  501    0 -0.48891416589E+01 -0.86032771496E+01  0.68037887311E+03  0.68046706097E+03  0.47000000000E+01 0. -1.
        -11    1    4    4    0    0  0.47238140341E+02 -0.64519580742E+02  0.45585847377E+03  0.46281871863E+03  0.00000000000E+00 0.  1.
         12    1    4    4    0    0 -0.19362186851E+02 -0.68382121122E+02  0.21828181174E+03  0.22956035830E+03  0.00000000000E+00 0. -1.
         -5    1    5    5    0  502  0.27982516251E+01  0.12761518577E+03  0.28292718532E+03  0.31042446431E+03  0.47000000000E+01 0.  1.
         13    1    6    6    0    0 -0.32950689245E+02 -0.49605962203E+01  0.93289350055E+02  0.99061891109E+02  0.00000000000E+00 0. -1.
        -14    1    6    6    0    0  0.71656257894E+01  0.18850389461E+02 -0.76584117611E+01  0.21571616687E+02  0.00000000000E+00 0.  1.
</event>
<event>
12    1  0.1081735E+000  0.5394859E+03  0.7818608E-02  0.1003978E+00
         21   -1    0    0  501  502  0.00000000000E+00  0.00000000000E+00  0.41289964356E+03  0.41289964356E+03  0.00000000000E+00 0.  1.
         21   -1    0    0  502  503 -0.00000000000E+00 -0.00000000000E+00 -0.13152623809E+04  0.13152623809E+04  0.00000000000E+00 0. -1.
         -6    2    1    2    0  503 -0.14501801852E+03  0.49030183831E+03  0.13776214299E+03  0.55645180295E+03  0.17097977255E+03 0.  0.
        -24    2    3    3    0    0 -0.13990180843E+03  0.40208144508E+03  0.57297278248E+02  0.43684537400E+03  0.79428573024E+02 0.  0.
          6    2    1    2  501    0  0.14501801852E+03 -0.49030183831E+03 -0.10401248804E+04  0.11717102216E+04  0.17210159269E+03 0.  0.
         24    2    5    5    0    0  0.11124088613E+02 -0.11995719617E+03 -0.32217166428E+03  0.35283193456E+03  0.78627721077E+02 0.  0.
          5    1    5    5  501    0  0.13389392990E+03 -0.37034464214E+03 -0.71795321609E+03  0.81887828700E+03  0.47000000000E+01 0. -1.
        -11    1    6    6    0    0 -0.77339197112E+01 -0.10927232168E+03 -0.30808704457E+03  0.32698299777E+03  0.00000000000E+00 0.  1.
         12    1    6    6    0    0  0.18858008324E+02 -0.10684874484E+02 -0.14084619706E+02  0.25848936786E+02  0.00000000000E+00 0. -1.
         -5    1    3    3    0  503 -0.51162100830E+01  0.88220393225E+02  0.80464864742E+02  0.11960642894E+03  0.47000000000E+01 0.  1.
         11    1    4    4    0    0 -0.58854840506E+02  0.12680083866E+03  0.54005426227E+02  0.14986304080E+03  0.00000000000E+00 0. -1.
        -12    1    4    4    0    0 -0.81046967926E+02  0.27528060642E+03  0.32918520212E+01  0.28698233320E+03  0.00000000000E+00 0.  1.
</event>
<event>
12    1  0.9873238E-001  0.4504081E+03  0.7818608E-02  0.1027606E+00
         21   -1    0    0  503  502  0.00000000000E+00  0.00000000000E+00  0.61381517079E+03  0.61381517079E+03  0.00000000000E+00 0. -1.
         21   -1    0    0  501  503 -0.00000000000E+00 -0.00000000000E+00 -0.35596409205E+03  0.35596409205E+03  0.00000000000E+00 0. -1.
          6    2    1    2  501    0 -0.11877797882E+03 -0.39895902959E+03  0.25874450579E+03  0.51937024511E+03  0.17181448334E+03 0.  0.
         24    2    3    3    0    0 -0.13651973074E+03 -0.32105562192E+03  0.25469768372E+03  0.43923175588E+03  0.79619570664E+02 0.  0.
         -6    2    1    2    0  502  0.11877797882E+03  0.39895902959E+03 -0.89342704722E+00  0.45040901773E+03  0.17202025896E+03 0.  0.
        -24    2    5    5    0    0  0.93538138207E+02  0.12867791480E+03  0.14665052362E+02  0.17846584931E+03  0.79546254176E+02 0.  0.
          5    1    3    3  501    0  0.17741751915E+02 -0.77903407673E+02  0.40468220718E+01  0.80138489235E+02  0.47000000000E+01 0. -1.
        -13    1    4    4    0    0 -0.34226057083E+02 -0.16621681685E+03  0.95522378511E+02  0.19474079692E+03  0.00000000000E+00 0.  1.
         14    1    4    4    0    0 -0.10229367366E+03 -0.15483880506E+03  0.15917530521E+03  0.24449095896E+03  0.00000000000E+00 0. -1.
         -5    1    5    5    0  502  0.25239840618E+02  0.27028111479E+03 -0.15558479409E+02  0.27194316842E+03  0.47000000000E+01 0.  1.
         13    1    6    6    0    0  0.64676632402E+02  0.10215331393E+03  0.44886493062E+02  0.12896962272E+03  0.00000000000E+00 0. -1.
        -14    1    6    6    0    0  0.28861505805E+02  0.26524600870E+02 -0.30221440700E+02  0.49496226590E+02  0.00000000000E+00 0.  1.
</event>
<event>
12    1  0.9873238E-001  0.2665481E+03  0.7818608E-02  0.1103401E+00
         21   -1    0    0  503  502  0.00000000000E+00  0.00000000000E+00  0.96791683537E+02  0.96791683537E+02  0.00000000000E+00 0. -1.
         21   -1    0    0  501  503 -0.00000000000E+00 -0.00000000000E+00 -0.73463744153E+03  0.73463744153E+03  0.00000000000E+00 0. -1.
          6    2    1    2  501    0  0.42899301182E+02 -0.19878950103E+03 -0.29156505745E+03  0.39444148137E+03  0.17092771494E+03 0.  0.
         24    2    3    3    0    0  0.40840574275E+02 -0.14165419643E+03 -0.10242810875E+03  0.19679645423E+03  0.80644051634E+02 0.  0.
         -6    2    1    2    0  502 -0.42899301182E+02  0.19878950103E+03 -0.34628070054E+03  0.43698764370E+03  0.17230862257E+03 0.  0.
        -24    2    5    5    0    0 -0.42632520125E+02  0.31898107326E+02 -0.16174818498E+03  0.18813598554E+03  0.79985327963E+02 0.  0.
          5    1    3    3  501    0  0.20587269067E+01 -0.57135304606E+02 -0.18913694869E+03  0.19764502713E+03  0.47000000000E+01 0. -1.
        -13    1    4    4    0    0 -0.15515316380E+01 -0.95245580237E+02 -0.93197903382E+02  0.13326656370E+03  0.00000000000E+00 0.  1.
         14    1    4    4    0    0  0.42392105913E+02 -0.46408616190E+02 -0.92302053726E+01  0.63529890537E+02  0.00000000000E+00 0. -1.
         -5    1    5    5    0  502 -0.26678105622E+00  0.16689139371E+03 -0.18453251557E+03  0.24885165816E+03  0.47000000000E+01 0.  1.
         11    1    6    6    0    0 -0.56262139389E+02  0.41759616830E+02 -0.15483002848E+03  0.16994596684E+03  0.00000000000E+00 0. -1.
        -12    1    6    6    0    0  0.13629619263E+02 -0.98615095041E+01 -0.69181564934E+01  0.18190018698E+02  0.00000000000E+00 0.  1.
</event>
