<event>
12    1  0.8691829E-002  0.1750903E+03  0.7818608E-02  0.1173140E+00
         21   -1    0    0  503  502  0.00000000000E+00  0.00000000000E+00  0.38907352661E+02  0.38907352661E+02  0.00000000000E+00 0.  1.
         21   -1    0    0  501  503 -0.00000000000E+00 -0.00000000000E+00 -0.14250570084E+04  0.14250570084E+04  0.00000000000E+00 0.  1.
          6    2    1    2  501    0 -0.30560016335E+01 -0.28954841417E+02 -0.11837494240E+04  0.11963405908E+04  0.17064697016E+03 0.  0.
         24    2    3    3    0    0 -0.41579213147E+02 -0.49891952872E+02 -0.10579718240E+04  0.10630570767E+04  0.81042767177E+02 0.  0.
         -6    2    1    2    0  502  0.30560016335E+01  0.28954841417E+02 -0.20240023175E+03  0.26762377025E+03  0.17265256038E+03 0.  0.
        -24    2    5    5    0    0 -0.16185879912E+02  0.65916355184E+02 -0.74847548462E+02  0.13335471009E+03  0.87030883035E+02 0.  0.
          5    1    3    3  501    0  0.38523211514E+02  0.20937111455E+02 -0.12577760001E+03  0.13328351408E+03  0.47000000000E+01 0. -1.
        -13    1    4    4    0    0 -0.46642619253E+02 -0.32385075848E+02 -0.10121868606E+04  0.10137783623E+04  0.00000000000E+00 0.  1.
         14    1    4    4    0    0  0.50634061054E+01 -0.17506877024E+02 -0.45784963308E+02  0.49278714367E+02  0.00000000000E+00 0. -1.
         -5    1    5    5    0  502  0.19241881545E+02 -0.36961513767E+02 -0.12755268329E+03  0.13426906017E+03  0.47000000000E+01 0.  1.
         11    1    6    6    0    0  0.35747084650E+02  0.26583999046E+02 -0.37710882871E+02  0.58366717855E+02  0.00000000000E+00 0. -1.
        -12    1    6    6    0    0 -0.51932964562E+02  0.39332356138E+02 -0.37136665591E+02  0.74987992230E+02  0.00000000000E+00 0.  1.
</event>
<event>
12    1  0.8691829E-002  0.1879932E+03  0.7818608E-02  0.1160434E+00
         21   -1    0    0  503  502  0.00000000000E+00  0.00000000000E+00  0.23189127088E+02  0.23189127088E+02  0.00000000000E+00 0.  1.
         21   -1    0    0  501  503 -0.00000000000E+00 -0.00000000000E+00 -0.15219433791E+04  0.15219433791E+04  0.00000000000E+00 0.  1.
          6    2    1    2  501    0 -0.40130660781E+02  0.62689413469E+02 -0.78601659380E+03  0.80818531977E+03  0.17262964074E+03 0.  0.
         24    2    3    3    0    0 -0.39128058023E+02  0.53530485156E+02 -0.79076688087E+03  0.79680347425E+03  0.72020822873E+02 0.  0.
         -6    2    1    2    0  502  0.40130660781E+02 -0.62689413469E+02 -0.71273765820E+03  0.73694718641E+03  0.17191786889E+03 0.  0.
        -24    2    5    5    0    0  0.80235992110E+02 -0.61635638924E+02 -0.64049807785E+03  0.65418128153E+03  0.86478869998E+02 0.  0.
          5    1    3    3  501    0 -0.10026027582E+01  0.91589283130E+01  0.47502870709E+01  0.11381845518E+02  0.47000000000E+01 0. -1.
        -11    1    4    4    0    0 -0.51183408366E+02  0.50980360156E+02 -0.44569437547E+03  0.45151103501E+03  0.00000000000E+00 0.  1.
         12    1    4    4    0    0  0.12055350343E+02  0.25501250004E+01 -0.34507250540E+03  0.34529243923E+03  0.00000000000E+00 0. -1.
         -5    1    5    5    0  502 -0.40105331329E+02 -0.10537745451E+01 -0.72239580349E+02  0.82765904881E+02  0.47000000000E+01 0.  1.
         11    1    6    6    0    0  0.18560505756E+02 -0.28855564778E+01 -0.37248178138E+03  0.37295508613E+03  0.00000000000E+00 0. -1.
        -12    1    6    6    0    0  0.61675486354E+02 -0.58750082446E+02 -0.26801629647E+03  0.28122619540E+03  0.00000000000E+00 0.  1.
</event>
<event>
12    1  0.8691829E-002  0.1947230E+03  0.7818608E-02  0.1154320E+00
         21   -1    0    0  503  502  0.00000000000E+00  0.00000000000E+00  0.25182782140E+02  0.25182782140E+02  0.00000000000E+00 0.  1.
         21   -1    0    0  501  503 -0.00000000000E+00 -0.00000000000E+00 -0.17405259386E+04  0.17405259386E+04  0.00000000000E+00 0. -1.
          6    2    1    2  501    0  0.21574207587E+02 -0.88713282141E+02 -0.11836400309E+04  0.11995502285E+04  0.17199283449E+03 0.  0.
         24    2    3    3    0    0 -0.53161772684E+02 -0.48872408504E+02 -0.75316601479E+03  0.76079889745E+03  0.79631841284E+02 0.  0.
         -6    2    1    2    0  502 -0.21574207587E+02  0.88713282141E+02 -0.53170312565E+03  0.56615849232E+03  0.17173156883E+03 0.  0.
        -24    2    5    5    0    0  0.73511777510E+01  0.13567241781E+02 -0.10431651154E+03  0.13122744811E+03  0.78106329399E+02 0.  0.
          5    1    3    3  501    0  0.74735980271E+02 -0.39840873637E+02 -0.43047401607E+03  0.43875133102E+03  0.47000000000E+01 0. -1.
        -13    1    4    4    0    0  0.10347562560E+02 -0.16321811007E+02 -0.44074127047E+02  0.48124860939E+02  0.00000000000E+00 0.  1.
         14    1    4    4    0    0 -0.63509335244E+02 -0.32550597497E+02 -0.70909188774E+03  0.71267403651E+03  0.00000000000E+00 0. -1.
         -5    1    5    5    0  502 -0.28925385338E+02  0.75146040360E+02 -0.42738661411E+03  0.43493104421E+03  0.47000000000E+01 0.  1.
         11    1    6    6    0    0  0.50731912305E+01 -0.56426002643E+01 -0.11062150272E+03  0.11088143700E+03  0.00000000000E+00 0. -1.
        -12    1    6    6    0    0  0.22779865205E+01  0.19209842046E+02  0.63049911814E+01  0.20346011103E+02  0.00000000000E+00 0.  1.
</event>
<event>
12    1  0.8691829E-002  0.1936576E+03  0.7818608E-02  0.1156117E+00
         21   -1    0    0  503  502  0.00000000000E+00  0.00000000000E+00  0.72556704823E+02  0.72556704823E+02  0.00000000000E+00 0. -1.
         21   -1    0    0  501  503 -0.00000000000E+00 -0.00000000000E+00 -0.56436794389E+03  0.56436794389E+03  0.00000000000E+00 0. -1.
          6    2    1    2  501    0  0.76320360523E+02  0.24878773615E+02 -0.35069133776E+03  0.40060912580E+03  0.17623707467E+03 0.  0.
         24    2    3    3    0    0  0.76349309643E+02 -0.37357228674E+02 -0.29399803853E+03  0.31629103168E+03  0.79877346241E+02 0.  0.
         -6    2    1    2    0  502 -0.76320360523E+02 -0.24878773615E+02 -0.14111990131E+03  0.23631552292E+03  0.17171618741E+03 0.  0.
        -24    2    5    5    0    0 -0.10024694156E+03  0.20159125672E+01 -0.50042784925E+02  0.13826993885E+03  0.80998657220E+02 0.  0.
          5    1    3    3  501    0 -0.28949119718E-01  0.62236002289E+02 -0.56693299229E+02  0.84318094122E+02  0.47000000000E+01 0. -1.
        -13    1    4    4    0    0 -0.14450191585E+02  0.64379228622E+01 -0.41467134935E+02  0.44382182994E+02  0.00000000000E+00 0.  1.
         14    1    4    4    0    0  0.90799501228E+02 -0.43795151536E+02 -0.25253090360E+03  0.27190884868E+03  0.00000000000E+00 0. -1.
         -5    1    5    5    0  502  0.23926581041E+02 -0.26894686182E+02 -0.91077116384E+02  0.98045584061E+02  0.47000000000E+01 0.  1.
         13    1    6    6    0    0 -0.90773323513E+02 -0.28376971211E+02 -0.26664042825E+02  0.98772566720E+02  0.00000000000E+00 0. -1.
        -14    1    6    6    0    0 -0.94736180508E+01  0.30392883778E+02 -0.23378742100E+02  0.39497372134E+02  0.00000000000E+00 0.  1.
</event>
<event>
12    1  0.8691829E-002  0.2073127E+03  0.7818608E-02  0.1143766E+00
         21   -1    0    0  501  502  0.00000000000E+00  0.00000000000E+00  0.15574315737E+03  0.15574315737E+03  0.00000000000E+00 0. -1.
         21   -1    0    0  502  503 -0.00000000000E+00 -0.00000000000E+00 -0.32955486777E+03  0.32955486777E+03  0.00000000000E+00 0. -1.
         -6    2    1    2    0  503  0.10185416531E+03  0.56190645129E+02 -0.18504004651E+03  0.27768145945E+03  0.17127613529E+03 0.  0.
        -24    2    3    3    0    0  0.94177374490E+01 -0.14233560689E+02 -0.11705845185E+03  0.14296824862E+03  0.80286679688E+02 0.  0.
          6    2    1    2  501    0 -0.10185416531E+03 -0.56190645129E+02  0.11228336114E+02  0.20761656569E+03  0.17160100007E+03 0.  0.
         24    2    5    5    0    0 -0.18504114970E+02 -0.79808217678E+02 -0.17019246495E+02  0.11637492745E+03  0.80880869852E+02 0.  0.
          5    1    5    5  501    0 -0.83350050339E+02  0.23617572550E+02  0.28247582608E+02  0.91241638235E+02  0.47000000000E+01 0. -1.
        -13    1    6    6    0    0  0.18943168286E+01 -0.22842222380E+02 -0.44394601665E+02  0.49962347988E+02  0.00000000000E+00 0.  1.
         14    1    6    6    0    0 -0.20398431798E+02 -0.56965995299E+02  0.27375355170E+02  0.66412579463E+02  0.00000000000E+00 0. -1.
         -5    1    3    3    0  503  0.92436427860E+02  0.70424205818E+02 -0.67981594660E+02  0.13471321083E+03  0.47000000000E+01 0.  1.
         11    1    4    4    0    0  0.33844455739E+02  0.16616538260E+02 -0.82055936632E+02  0.90303561749E+02  0.00000000000E+00 0. -1.
        -12    1    4    4    0    0 -0.24426718290E+02 -0.30850098949E+02 -0.35002515217E+02  0.52664686870E+02  0.00000000000E+00 0.  1.
</event>
<event>
12    1  0.8691829E-002  0.2422663E+03  0.7818608E-02  0.1118756E+00
         21   -1    0    0  503  502  0.00000000000E+00  0.00000000000E+00  0.60497655162E+02  0.60497655162E+02  0.00000000000E+00 0. -1.
         21   -1    0    0  501  503 -0.00000000000E+00 -0.00000000000E+00 -0.12294452944E+04  0.12294452944E+04  0.00000000000E+00 0.  1.
          6    2    1    2  501    0 -0.13569817718E+03 -0.10088302078E+03 -0.88962092152E+03  0.92201861500E+03  0.17349802080E+03 0.  0.
         24    2    3    3    0    0 -0.15006439214E+03 -0.26809980802E+02 -0.61756487299E+03  0.63965398030E+03  0.67325666048E+02 0.  0.
         -6    2    1    2    0  502  0.13569817718E+03  0.10088302078E+03 -0.27932671769E+03  0.36792433454E+03  0.16956863377E+03 0.  0.
        -24    2    5    5    0    0  0.66465039350E+02  0.90850468767E+02 -0.87160493563E+02  0.16336669677E+03  0.80126879662E+02 0.  0.
          5    1    3    3  501    0  0.14366214959E+02 -0.74073039973E+02 -0.27205604854E+03  0.28236463470E+03  0.47000000000E+01 0. -1.
        -11    1    4    4    0    0 -0.13487671173E+03 -0.14706272129E+02 -0.59308573886E+03  0.60840668590E+03  0.00000000000E+00 0.  1.
         12    1    4    4    0    0 -0.15187680410E+02 -0.12103708674E+02 -0.24479134128E+02  0.31247294404E+02  0.00000000000E+00 0. -1.
         -5    1    5    5    0  502  0.69233137833E+02  0.10032552008E+02 -0.19216622413E+03  0.20455763777E+03  0.47000000000E+01 0.  1.
         13    1    6    6    0    0  0.18107613895E+02  0.43259959201E+02  0.68874246064E+01  0.47399856211E+02  0.00000000000E+00 0. -1.
        -14    1    6    6    0    0  0.48357425456E+02  0.47590509565E+02 -0.94047918169E+02  0.11596684056E+03  0.00000000000E+00 0.  1.
</event>
<event>
12    1  0.8691829E-002  0.2981698E+03  0.7818608E-02  0.1086288E+00
         21   -1    0    0  503  502  0.00000000000E+00  0.00000000000E+00  0.69395788476E+02  0.69395788476E+02  0.00000000000E+00 0.  1.
         21   -1    0    0  501  503 -0.00000000000E+00 -0.00000000000E+00 -0.14701455213E+04  0.14701455213E+04  0.00000000000E+00 0. -1.
          6    2    1    2  501    0  0.65007767136E+02 -0.23356887360E+03 -0.98062796865E+03  0.10249567956E+04  0.17356494896E+03 0.  0.
         24    2    3    3    0    0 -0.24625466634E+02 -0.68786209892E+02 -0.40864519692E+03  0.42298185927E+03  0.81146780735E+02 0.  0.
         -6    2    1    2    0  502 -0.65007767136E+02  0.23356887360E+03 -0.42012176420E+03  0.51458451417E+03  0.17179783750E+03 0.  0.
        -24    2    5    5    0    0 -0.95697945392E+02  0.99298163111E+02 -0.21095895856E+03  0.26410162055E+03  0.78916169632E+02 0.  0.
          5    1    3    3  501    0  0.89633233770E+02 -0.16478266370E+03 -0.57198277173E+03  0.60197493636E+03  0.47000000000E+01 0. -1.
        -11    1    4    4    0    0 -0.37314376052E+02 -0.77355842108E+02 -0.26610092611E+03  0.27961758143E+03  0.00000000000E+00 0.  1.
         12    1    4    4    0    0  0.12688909417E+02  0.85696322152E+01 -0.14254427081E+03  0.14336427784E+03  0.00000000000E+00 0. -1.
         -5    1    5    5    0  502  0.30690178256E+02  0.13427071048E+03 -0.20916280564E+03  0.25048289362E+03  0.47000000000E+01 0.  1.
         11    1    6    6    0    0 -0.33037929003E+02  0.37245291191E+02 -0.14689155749E+03  0.15509947173E+03  0.00000000000E+00 0. -1.
        -12    1    6    6    0    0 -0.62660016389E+02  0.62052871920E+02 -0.64067401073E+02  0.10900214882E+03  0.00000000000E+00 0.  1.
</event>
<event>
12    1  0.8691829E-002  0.1915038E+03  0.7818608E-02  0.1157502E+00
         21   -1    0    0  501  502  0.00000000000E+00  0.00000000000E+00  0.94634542124E+03  0.94634542124E+03  0.00000000000E+00 0. -1.
         21   -1    0    0  502  503 -0.00000000000E+00 -0.00000000000E+00 -0.12000992184E+03  0.12000992184E+03  0.00000000000E+00 0. -1.
         -6    2    1    2    0  503  0.79501608661E+02 -0.20099815872E+02 -0.27106000575E+02  0.19169192367E+03  0.17113313517E+03 0.  0.
        -24    2    3    3    0    0  0.11531716988E+03 -0.24955946542E+00  0.11225067931E+02  0.13540562055E+03  0.70075444895E+02 0.  0.
          6    2    1    2  501    0 -0.79501608661E+02  0.20099815872E+02  0.85344149997E+03  0.87466341942E+03  0.17305835725E+03 0.  0.
         24    2    5    5    0    0 -0.56949274098E+02  0.70386787702E+02  0.40444247246E+03  0.42227022314E+03  0.80875880949E+02 0.  0.
          5    1    5    5  501    0 -0.22552334563E+02 -0.50286971831E+02  0.44899902751E+03  0.45239319628E+03  0.47000000000E+01 0. -1.
        -11    1    6    6    0    0 -0.54539079066E+02  0.39718967207E+01  0.16890892064E+03  0.17754016611E+03  0.00000000000E+00 0.  1.
         12    1    6    6    0    0 -0.24101950324E+01  0.66414890982E+02  0.23553355182E+03  0.24473005704E+03  0.00000000000E+00 0. -1.
         -5    1    3    3    0  503 -0.35815561224E+02 -0.19850256406E+02 -0.38331068506E+02  0.56286303112E+02  0.47000000000E+01 0.  1.
         11    1    4    4    0    0  0.17097123532E+01 -0.13649003333E+02 -0.12488085038E+02  0.18578769502E+02  0.00000000000E+00 0. -1.
        -12    1    4    4    0    0  0.11360745753E+03  0.13399443868E+02  0.23713152969E+02  0.11682685105E+03  0.00000000000E+00 0.  1.
</event>
<event>
12    1  0.8691829E-002  0.2081790E+03  0.7818608E-02  0.1143203E+00
         21   -1    0    0  503  502  0.00000000000E+00  0.00000000000E+00  0.14726832307E+03  0.14726832307E+03  0.00000000000E+00 0. -1.
         21   -1    0    0  501  503 -0.00000000000E+00 -0.00000000000E+00 -0.63993583360E+03  0.63993583360E+03  0.00000000000E+00 0.  1.
          6    2    1    2  501    0  0.77700027939E+02  0.85922683107E+02 -0.53590392310E+03  0.57458267277E+03  0.17184944351E+03 0.  0.
         24    2    3    3    0    0  0.87462954299E+02  0.20283667555E+02 -0.21333269823E+03  0.24522256558E+03  0.81006610781E+02 0.  0.
         -6    2    1    2    0  502 -0.77700027939E+02 -0.85922683107E+02  0.43236412570E+02  0.21262148390E+03  0.17296966852E+03 0.  0.
        -24    2    5    5    0    0 -0.56893961274E+02  0.76208153634E+01  0.58723632685E+02  0.11543494932E+03  0.81128064399E+02 0.  0.
          5    1    3    3  501    0 -0.97629263598E+01  0.65639015552E+02 -0.32257122486E+03  0.32936010718E+03  0.47000000000E+01 0. -1.
        -13    1    4    4    0    0  0.70979459374E+02 -0.85132743904E+01 -0.19415588328E+03  0.20689868657E+03  0.00000000000E+00 0.  1.
         14    1    4    4    0    0  0.16483494924E+02  0.28796941946E+02 -0.19176814954E+02  0.38323879007E+02  0.00000000000E+00 0. -1.
         -5    1    5    5    0  502 -0.20806066665E+02 -0.93543498471E+02 -0.15487220114E+02  0.97186534577E+02  0.47000000000E+01 0.  1.
         13    1    6    6    0    0 -0.48083657426E+01  0.36900462429E+02  0.10539616043E+02  0.38676194422E+02  0.00000000000E+00 0. -1.
        -14    1    6    6    0    0 -0.52085595532E+02 -0.29279647066E+02  0.48184016641E+02  0.76758754901E+02  0.00000000000E+00 0.  1.
</event>
<event>
12    1  0.8691829E-002  0.2534313E+03  0.7818608E-02  0.1111344E+00
         21   -1    0    0  503  502  0.00000000000E+00  0.00000000000E+00  0.14702656956E+03  0.14702656956E+03  0.00000000000E+00 0.  1.
         21   -1    0    0  501  503 -0.00000000000E+00 -0.00000000000E+00 -0.83049224256E+03  0.83049224256E+03  0.00000000000E+00 0. -1.
          6    2    1    2  501    0  0.81340348195E+02 -0.16720920989E+03 -0.67869270535E+03  0.72404260567E+03  0.17040755387E+03 0.  0.
         24    2    3    3    0    0  0.60212668996E+02 -0.21765512980E+02 -0.25963660948E+03  0.27993636919E+03  0.82788276633E+02 0.  0.
         -6    2    1    2    0  502 -0.81340348195E+02  0.16720920989E+03 -0.47729676418E+01  0.25347620645E+03  0.17219824012E+03 0.  0.
        -24    2    5    5    0    0 -0.81085020974E+02  0.17218927199E+03  0.38162254626E+02  0.20999759652E+03  0.80116832501E+02 0.  0.
          5    1    3    3  501    0  0.21127679199E+02 -0.14544369691E+03 -0.41905609587E+03  0.44410623648E+03  0.47000000000E+01 0. -1.
        -13    1    4    4    0    0  0.43487805968E+02 -0.53021156742E+02 -0.18525270139E+03  0.19753732737E+03  0.00000000000E+00 0.  1.
         14    1    4    4    0    0  0.16724863029E+02  0.31255643762E+02 -0.74383908091E+02  0.82399041822E+02  0.00000000000E+00 0. -1.
         -5    1    5    5    0  502 -0.25532722087E+00 -0.49800621025E+01 -0.42935222268E+02  0.43478609933E+02  0.47000000000E+01 0.  1.
         11    1    6    6    0    0 -0.21399232612E+02  0.28138916865E+02 -0.23361103918E+02  0.42372950983E+02  0.00000000000E+00 0. -1.
        -12    1    6    6    0    0 -0.59685788363E+02  0.14405035512E+03  0.61523358544E+02  0.16762464553E+03  0.00000000000E+00 0.  1.
</event>
<event>
12    1  0.8691829E-002  0.2078220E+03  0.7818608E-02  0.1144318E+00
         21   -1    0    0  501  502  0.00000000000E+00  0.00000000000E+00  0.10934637536E+03  0.10934637536E+03  0.00000000000E+00 0. -1.
         21   -1    0    0  502  503 -0.00000000000E+00 -0.00000000000E+00 -0.44651418966E+03  0.44651418966E+03  0.00000000000E+00 0. -1.
         -6    2    1    2    0  503 -0.53474292556E+02 -0.92467254915E+02 -0.26950404607E+03  0.33730076142E+03  0.17242296717E+03 0.  0.
        -24    2    3    3    0    0 -0.47036282718E+02 -0.10049677470E+03 -0.28550458482E+03  0.31770411888E+03  0.84326897146E+02 0.  0.
          6    2    1    2  501    0  0.53474292556E+02  0.92467254915E+02 -0.67663768232E+02  0.21855980360E+03  0.17827032569E+03 0.  0.
         24    2    5    5    0    0  0.80505233724E+02 -0.12274188322E+02 -0.45633009372E+02  0.10806597550E+03  0.54443871658E+02 0.  0.
          5    1    5    5  501    0 -0.27030941168E+02  0.10474144324E+03 -0.22030758860E+02  0.11049382810E+03  0.47000000000E+01 0. -1.
        -11    1    6    6    0    0 -0.62522329956E+01 -0.34550127476E+01  0.35191640991E+01  0.79631681179E+01  0.00000000000E+00 0.  1.
         12    1    6    6    0    0  0.86757466719E+02 -0.88191755743E+01 -0.49152173471E+02  0.10010280738E+03  0.00000000000E+00 0. -1.
         -5    1    3    3    0  503 -0.64380098380E+01  0.80295197863E+01  0.16000538747E+02  0.19596642541E+02  0.47000000000E+01 0.  1.
         13    1    4    4    0    0 -0.63705767892E+02 -0.10378133105E+03 -0.23989239921E+03  0.26903039371E+03  0.00000000000E+00 0. -1.
        -14    1    4    4    0    0  0.16669485174E+02  0.32845563496E+01 -0.45612185604E+02  0.48673725170E+02  0.00000000000E+00 0.  1.
</event>
<event>
12    1  0.8691829E-002  0.3215593E+03  0.7818608E-02  0.1075034E+00
         21   -1    0    0  501  502  0.00000000000E+00  0.00000000000E+00  0.15208829937E+04  0.15208829937E+04  0.00000000000E+00 0.  1.
         21   -1    0    0  502  503 -0.00000000000E+00 -0.00000000000E+00 -0.84898728187E+02  0.84898728187E+02  0.00000000000E+00 0. -1.
         -6    2    1    2    0  503 -0.16497511346E+03  0.21578384320E+03  0.35690726422E+03  0.47981211153E+03  0.17046234794E+03 0.  0.
        -24    2    3    3    0    0 -0.16845200731E+03  0.20037918069E+03  0.36895123262E+03  0.45940280990E+03  0.79987717028E+02 0.  0.
          6    2    1    2  501    0  0.16497511346E+03 -0.21578384320E+03  0.10790770013E+04  0.11259696104E+04  0.17210733191E+03 0.  0.
         24    2    5    5    0    0  0.82329015868E+02 -0.86937462222E+02  0.32318067129E+03  0.35471535977E+03  0.83910970523E+02 0.  0.
          5    1    5    5  501    0  0.82646097588E+02 -0.12884638098E+03  0.75589633000E+03  0.77125425058E+03  0.47000000000E+01 0. -1.
        -11    1    6    6    0    0  0.54895691300E+00  0.31465361795E+01  0.10384592272E+03  0.10389503217E+03  0.00000000000E+00 0.  1.
         12    1    6    6    0    0  0.81780058955E+02 -0.90083998401E+02  0.21933474856E+03  0.25082032760E+03  0.00000000000E+00 0. -1.
         -5    1    3    3    0  503  0.34768938505E+01  0.15404662511E+02 -0.12043968399E+02  0.20409301623E+02  0.47000000000E+01 0.  1.
         11    1    4    4    0    0 -0.11134775745E+03  0.12016560280E+03  0.16287481996E+03  0.23101147625E+03  0.00000000000E+00 0. -1.
        -12    1    4    4    0    0 -0.57104249860E+02  0.80213577887E+02  0.20607641267E+03  0.22839133365E+03  0.00000000000E+00 0.  1.
</event>
<event>
12    1  0.8691829E-002  0.2093041E+03  0.7818608E-02  0.1142598E+00
         21   -1    0    0  503  502  0.00000000000E+00  0.00000000000E+00  0.10907344518E+03  0.10907344518E+03  0.00000000000E+00 0.  1.
         21   -1    0    0  501  503 -0.00000000000E+00 -0.00000000000E+00 -0.39992764608E+03  0.39992764608E+03  0.00000000000E+00 0.  1.
          6    2    1    2  501    0 -0.34675489609E+02 -0.11102894102E+03 -0.16784218910E+03  0.26828941924E+03  0.17400688697E+03 0.  0.
         24    2    3    3    0    0 -0.33764410100E+01 -0.13691295489E+03 -0.16279639703E+03  0.22709278547E+03  0.79447522023E+02 0.  0.
         -6    2    1    2    0  502  0.34675489609E+02  0.11102894102E+03 -0.12301201180E+03  0.24071167202E+03  0.17111498671E+03 0.  0.
        -24    2    5    5    0    0  0.74720950424E+02  0.11064735503E+03 -0.12510713087E+03  0.20033514340E+03  0.81586260346E+02 0.  0.
          5    1    3    3  501    0 -0.31299048599E+02  0.25884013867E+02 -0.50457920669E+01  0.41196633778E+02  0.47000000000E+01 0. -1.
        -11    1    4    4    0    0 -0.20676199278E+02 -0.83620152092E+02 -0.46231806182E+02  0.97761009381E+02  0.00000000000E+00 0.  1.
         12    1    4    4    0    0  0.17299758268E+02 -0.53292802793E+02 -0.11656459085E+03  0.12933177608E+03  0.00000000000E+00 0. -1.
         -5    1    5    5    0  502 -0.40045460814E+02  0.38158598845E+00  0.20951190707E+01  0.40376528623E+02  0.47000000000E+01 0.  1.
         13    1    6    6    0    0  0.27860590547E+02 -0.54977019582E+01 -0.96446877804E+01  0.29990952549E+02  0.00000000000E+00 0. -1.
        -14    1    6    6    0    0  0.46860359877E+02  0.11614505699E+03 -0.11546244309E+03  0.17034419085E+03  0.00000000000E+00 0.  1.
</event>
<event>
12    1  0.8691829E-002  0.1975033E+03  0.7818608E-02  0.1152282E+00
         21   -1    0    0  503  502  0.00000000000E+00  0.00000000000E+00  0.36605127257E+03  0.36605127257E+03  0.00000000000E+00 0. -1.
         21   -1    0    0  501  503 -0.00000000000E+00 -0.00000000000E+00 -0.12462520086E+03  0.12462520086E+03  0.00000000000E+00 0. -1.
          6    2    1    2  501    0 -0.80907768374E+02  0.49998261062E+02  0.24141584042E+02  0.19704388233E+03  0.17087300077E+03 0.  0.
         24    2    3    3    0    0  0.15462884235E+02  0.47634521727E+02 -0.52007414360E+01  0.96167958480E+02  0.81933388052E+02 0.  0.
         -6    2    1    2    0  502  0.80907768374E+02 -0.49998261062E+02  0.21728448766E+03  0.29363259110E+03  0.17309435833E+03 0.  0.
        -24    2    5    5    0    0  0.50646206688E+02 -0.36487650899E+02  0.31292712031E+02  0.10465288504E+03  0.77952585589E+02 0.  0.
          5    1    3    3  501    0 -0.96370652609E+02  0.23637393352E+01  0.29342325478E+02  0.10087592385E+03  0.47000000000E+01 0. -1.
        -11    1    4    4    0    0  0.10734713853E+01 -0.19317034433E+02  0.15321159547E+02  0.24678697088E+02  0.00000000000E+00 0.  1.
         12    1    4    4    0    0  0.14389412849E+02  0.66951556160E+02 -0.20521900983E+02  0.71489261392E+02  0.00000000000E+00 0. -1.
         -5    1    5    5    0  502  0.30261561686E+02 -0.13510610164E+02  0.18599177563E+03  0.18897970607E+03  0.47000000000E+01 0.  1.
         13    1    6    6    0    0  0.77895096260E+01  0.15245070756E+02  0.33301357718E+02  0.37444212750E+02  0.00000000000E+00 0. -1.
        -14    1    6    6    0    0  0.42856697062E+02 -0.51732721655E+02 -0.20086456871E+01  0.67208672285E+02  0.00000000000E+00 0.  1.
</event>
<event>
12    1  0.8691829E-002  0.3711428E+03  0.7818608E-02  0.1054277E+00
         21   -1    0    0  501  502  0.00000000000E+00  0.00000000000E+00  0.14662571077E+03  0.14662571077E+03  0.00000000000E+00 0.  1.
         21   -1    0    0  502  503 -0.00000000000E+00 -0.00000000000E+00 -0.94720351030E+03  0.94720351030E+03  0.00000000000E+00 0.  1.
         -6    2    1    2    0  503  0.23608237571E+03  0.22814334314E+03 -0.45136448130E+03  0.58422454032E+03  0.17263877141E+03 0.  0.
        -24    2    3    3    0    0  0.39014346746E+02  0.82224864282E+02 -0.19108404473E+03  0.22659902925E+03  0.80938003101E+02 0.  0.
          6    2    1    2  501    0 -0.23608237571E+03 -0.22814334314E+03 -0.34921331823E+03  0.50960468074E+03  0.17309741729E+03 0.  0.
         24    2    5    5    0    0 -0.24372618571E+03 -0.16426292891E+03 -0.30750055664E+03  0.43278554489E+03  0.79761971645E+02 0.  0.
          5    1    5    5  501    0  0.76438100016E+01 -0.63880414234E+02 -0.41712761587E+02  0.76819135853E+02  0.47000000000E+01 0.  1.
        -13    1    6    6    0    0 -0.83778976407E+02 -0.13941590639E+02 -0.80530520885E+02  0.11704037607E+03  0.00000000000E+00 0.  1.
         14    1    6    6    0    0 -0.15994720930E+03 -0.15032133827E+03 -0.22697003575E+03  0.31574516882E+03  0.00000000000E+00 0. -1.
         -5    1    3    3    0  503  0.19706802896E+03  0.14591847886E+03 -0.26028043657E+03  0.35762551108E+03  0.47000000000E+01 0.  1.
         13    1    4    4    0    0 -0.40827307206E+01  0.27974690527E+02 -0.59027882397E+01  0.28880701329E+02  0.00000000000E+00 0. -1.
        -14    1    4    4    0    0  0.43097077467E+02  0.54250173755E+02 -0.18518125649E+03  0.19771832792E+03  0.00000000000E+00 0.  1.
</event>
<event>
12    1  0.8691829E-002  0.1879285E+03  0.7818608E-02  0.1160921E+00
         21   -1    0    0  501  502  0.00000000000E+00  0.00000000000E+00  0.85162552785E+03  0.85162552785E+03  0.00000000000E+00 0.  1.
         21   -1    0    0  502  503 -0.00000000000E+00 -0.00000000000E+00 -0.14502113155E+03  0.14502113155E+03  0.00000000000E+00 0.  1.
         -6    2    1    2    0  503  0.18103904820E+01 -0.74169769982E+02 -0.69571711532E+02  0.19804382660E+03  0.16993146241E+03 0.  0.
        -24    2    3    3    0    0  0.27886005528E+02 -0.78023116611E+02 -0.10352951275E+03  0.15480023467E+03  0.79871876229E+02 0.  0.
          6    2    1    2  501    0 -0.18103904820E+01  0.74169769982E+02  0.77617610784E+03  0.79860283280E+03  0.17266355111E+03 0.  0.
         24    2    5    5    0    0 -0.66865608441E+02  0.36328600679E+02  0.53549536820E+03  0.54638577567E+03  0.77403809099E+02 0.  0.
          5    1    5    5  501    0  0.65055217960E+02  0.37841169303E+02  0.24068073963E+03  0.25221705713E+03  0.47000000000E+01 0. -1.
        -13    1    6    6    0    0 -0.19735961653E+02  0.25722952561E+02  0.57949660953E+02  0.66402874000E+02  0.00000000000E+00 0.  1.
         14    1    6    6    0    0 -0.47129646788E+02  0.10605648117E+02  0.47754570725E+03  0.47998290167E+03  0.00000000000E+00 0. -1.
         -5    1    3    3    0  503 -0.26075615046E+02  0.38533466285E+01  0.33957801218E+02  0.43243591939E+02  0.47000000000E+01 0.  1.
         13    1    4    4    0    0  0.90398608426E+00 -0.24380049934E+02  0.10001876644E+02  0.26367433740E+02  0.00000000000E+00 0. -1.
        -14    1    4    4    0    0  0.26982019443E+02 -0.53643066677E+02 -0.11353138939E+03  0.12843280093E+03  0.00000000000E+00 0.  1.
</event>
<event>
12    1  0.8691829E-002  0.1853870E+03  0.7818608E-02  0.1165100E+00
         21   -1    0    0  501  502  0.00000000000E+00  0.00000000000E+00  0.61941969400E+03  0.61941969400E+03  0.00000000000E+00 0.  1.
         21   -1    0    0  502  503 -0.00000000000E+00 -0.00000000000E+00 -0.74547166164E+02  0.74547166164E+02  0.00000000000E+00 0.  1.
         -6    2    1    2    0  503  0.63599968625E+02  0.26283751615E+02  0.89211950349E+02  0.20573550318E+03  0.17214102815E+03 0.  0.
        -24    2    3    3    0    0  0.11733550345E+02 -0.50105720218E+02  0.40484160923E+02  0.10122730151E+03  0.77199351576E+02 0.  0.
          6    2    1    2  501    0 -0.63599968625E+02 -0.26283751615E+02  0.45566057748E+03  0.48823135698E+03  0.16126842364E+03 0.  0.
         24    2    5    5    0    0  0.14379875368E+02 -0.37701317488E+02  0.30680252542E+03  0.31973202006E+03  0.80452500844E+02 0.  0.
          5    1    5    5  501    0 -0.77979843993E+02  0.11417565873E+02  0.14885805207E+03  0.16849933693E+03  0.47000000000E+01 0. -1.
        -11    1    6    6    0    0 -0.19479967687E+02 -0.48927502668E+02  0.15172783834E+03  0.16060730552E+03  0.00000000000E+00 0.  1.
         12    1    6    6    0    0  0.33859843055E+02  0.11226185179E+02  0.15507468708E+03  0.15912471454E+03  0.00000000000E+00 0. -1.
         -5    1    3    3    0  503  0.51866418280E+02  0.76389471833E+02  0.48727789426E+02  0.10450820166E+03  0.47000000000E+01 0.  1.
         11    1    4    4    0    0  0.20711415426E+02 -0.41322627694E+02  0.61385863329E+02  0.76842348384E+02  0.00000000000E+00 0. -1.
        -12    1    4    4    0    0 -0.89778650811E+01 -0.87830925244E+01 -0.20901702406E+02  0.24384953130E+02  0.00000000000E+00 0.  1.
</event>
<event>
12    1  0.8691829E-002  0.1757959E+03  0.7818608E-02  0.1172434E+00
         21   -1    0    0  503  502  0.00000000000E+00  0.00000000000E+00  0.43437544820E+02  0.43437544820E+02  0.00000000000E+00 0. -1.
         21   -1    0    0  501  503 -0.00000000000E+00 -0.00000000000E+00 -0.85026823419E+03  0.85026823419E+03  0.00000000000E+00 0. -1.
          6    2    1    2  501    0 -0.33976664835E+01  0.18167232284E+02 -0.59100585997E+03  0.61659720220E+03  0.17482159698E+03 0.  0.
         24    2    3    3    0    0 -0.47579391591E+02  0.60038277582E+02 -0.44069450315E+03  0.45436032828E+03  0.79770104251E+02 0.  0.
         -6    2    1    2    0  502  0.33976664835E+01 -0.18167232284E+02 -0.21582482941E+03  0.27710857682E+03  0.17282133518E+03 0.  0.
        -24    2    5    5    0    0 -0.51347116308E+02 -0.32886717981E+02 -0.18774804343E+03  0.21367317335E+03  0.81785295910E+02 0.  0.
          5    1    3    3  501    0  0.44181725108E+02 -0.41871045298E+02 -0.15031135682E+03  0.16223687391E+03  0.47000000000E+01 0. -1.
        -11    1    4    4    0    0 -0.14601520749E+02  0.22075849619E+02 -0.34714081303E+03  0.34814837586E+03  0.00000000000E+00 0.  1.
         12    1    4    4    0    0 -0.32977870843E+02  0.37962427963E+02 -0.93553690125E+02  0.10621195243E+03  0.00000000000E+00 0. -1.
         -5    1    5    5    0  502  0.54744782791E+02  0.14719485697E+02 -0.28076785979E+02  0.63435403466E+02  0.47000000000E+01 0.  1.
         13    1    6    6    0    0 -0.51217042524E+02  0.15226859960E+02 -0.88539731556E+02  0.10341337811E+03  0.00000000000E+00 0. -1.
        -14    1    6    6    0    0 -0.13007378400E+00 -0.48113577941E+02 -0.99208311872E+02  0.11025979524E+03  0.00000000000E+00 0.  1.
</event>
<event>
12    1  0.8691829E-002  0.2056560E+03  0.7818608E-02  0.1145304E+00
         21   -1    0    0  501  502  0.00000000000E+00  0.00000000000E+00  0.69413637858E+02  0.69413637858E+02  0.00000000000E+00 0. -1.
         21   -1    0    0  502  503 -0.00000000000E+00 -0.00000000000E+00 -0.67855850259E+03  0.67855850259E+03  0.00000000000E+00 0. -1.
         -6    2    1    2    0  503  0.10408470316E+03 -0.31975231751E+02 -0.42633059061E+03  0.47280772678E+03  0.17301252304E+03 0.  0.
        -24    2    3    3    0    0  0.76049703287E+02 -0.87392818803E+02 -0.24240139413E+03  0.27861939166E+03  0.73819153262E+02 0.  0.
          6    2    1    2  501    0 -0.10408470316E+03  0.31975231751E+02 -0.18281427412E+03  0.27516441367E+03  0.17446591316E+03 0.  0.
         24    2    5    5    0    0 -0.94966956115E+02  0.80509281293E+02 -0.16630000770E+03  0.22288154581E+03  0.80746664177E+02 0.  0.
          5    1    5    5  501    0 -0.91177470457E+01 -0.48534049542E+02 -0.16514266418E+02  0.52282867858E+02  0.47000000000E+01 0. -1.
        -11    1    6    6    0    0 -0.60319136582E+02  0.66165230694E+02 -0.54165447099E+02  0.10464287673E+03  0.00000000000E+00 0.  1.
         12    1    6    6    0    0 -0.34647819533E+02  0.14344050599E+02 -0.11213456060E+03  0.11823866908E+03  0.00000000000E+00 0. -1.
         -5    1    3    3    0  503  0.28034999874E+02  0.55417587052E+02 -0.18392919649E+03  0.19418833511E+03  0.47000000000E+01 0.  1.
         11    1    4    4    0    0  0.71212592256E+01 -0.81698335378E+01  0.33732362516E+01  0.11350649136E+02  0.00000000000E+00 0. -1.
        -12    1    4    4    0    0  0.68928444061E+02 -0.79222985265E+02 -0.24577463038E+03  0.26726874253E+03  0.00000000000E+00 0.  1.
</event>
<event>
12    1  0.8691829E-002  0.1912545E+03  0.7818608E-02  0.1159914E+00
         21   -1    0    0  501  502  0.00000000000E+00  0.00000000000E+00  0.70578583816E+03  0.70578583816E+03  0.00000000000E+00 0.  1.
         21   -1    0    0  502  503 -0.00000000000E+00 -0.00000000000E+00 -0.73303376677E+02  0.73303376677E+02  0.00000000000E+00 0.  1.
         -6    2    1    2    0  503 -0.37597063925E+02 -0.39128375904E+02  0.84947208998E+02  0.19911236260E+03  0.17171236300E+03 0.  0.
        -24    2    3    3    0    0  0.13341473269E+02 -0.47305318709E+02  0.10694214533E+03  0.14283213349E+03  0.80923468926E+02 0.  0.
          6    2    1    2  501    0  0.37597063925E+02  0.39128375904E+02  0.54753525249E+03  0.57997685224E+03  0.18339500374E+03 0.  0.
         24    2    5    5    0    0  0.16017562561E+02 -0.23875519562E+02  0.47076705479E+03  0.47823889521E+03  0.79146814640E+02 0.  0.
          5    1    5    5  501    0  0.21579501363E+02  0.63003895466E+02  0.76768197697E+02  0.10173795703E+03  0.47000000000E+01 0. -1.
        -13    1    6    6    0    0  0.33102642181E+02 -0.41605326256E+02  0.22295821185E+03  0.22920984342E+03  0.00000000000E+00 0.  1.
         14    1    6    6    0    0 -0.17085079620E+02  0.17729806694E+02  0.24780884294E+03  0.24902905178E+03  0.00000000000E+00 0. -1.
         -5    1    3    3    0  503 -0.50938537193E+02  0.81769428055E+01 -0.21994936328E+02  0.56280229114E+02  0.47000000000E+01 0.  1.
         13    1    4    4    0    0 -0.32812026521E+02 -0.28575449632E+02  0.62001978462E+02  0.75745829848E+02  0.00000000000E+00 0. -1.
        -14    1    4    4    0    0  0.46153499790E+02 -0.18729869077E+02  0.44940166864E+02  0.67086303641E+02  0.00000000000E+00 0.  1.
</event>
<event>
12    1  0.8691829E-002  0.2092441E+03  0.7818608E-02  0.1142228E+00
         21   -1    0    0  501  502  0.00000000000E+00  0.00000000000E+00  0.30431552319E+03  0.30431552319E+03  0.00000000000E+00 0. -1.
         21   -1    0    0  502  503 -0.00000000000E+00 -0.00000000000E+00 -0.39194219192E+03  0.39194219192E+03  0.00000000000E+00 0.  1.
         -6    2    1    2    0  503 -0.62493774539E+02 -0.10296137807E+03 -0.32087877861E+03  0.38290546234E+03  0.17072458903E+03 0.  0.
        -24    2    3    3    0    0 -0.88826079528E+02 -0.12163872628E+03 -0.29709161181E+03  0.34253031000E+03  0.79859472370E+02 0.  0.
          6    2    1    2  501    0  0.62493774539E+02  0.10296137807E+03  0.23325210988E+03  0.31335225277E+03  0.17110397518E+03 0.  0.
         24    2    5    5    0    0  0.42299997648E+02  0.53935549233E+02  0.23877539500E+03  0.25983667376E+03  0.76177913495E+02 0.  0.
          5    1    5    5  501    0  0.20193776891E+02  0.49025828835E+02 -0.55232851147E+01  0.53515579007E+02  0.47000000000E+01 0. -1.
        -13    1    6    6    0    0  0.26417359173E+02  0.28325365440E+02  0.30250934248E+02  0.49145927765E+02  0.00000000000E+00 0.  1.
         14    1    6    6    0    0  0.15882638475E+02  0.25610183793E+02  0.20852446075E+03  0.21069074600E+03  0.00000000000E+00 0. -1.
         -5    1    3    3    0  503  0.26332304990E+02  0.18677348209E+02 -0.23787166804E+02  0.40375152344E+02  0.47000000000E+01 0.  1.
         13    1    4    4    0    0  0.59599073757E+01 -0.24856566777E+01 -0.62679782425E+02  0.63011539498E+02  0.00000000000E+00 0. -1.
        -14    1    4    4    0    0 -0.94785986904E+02 -0.11915306960E+03 -0.23441182938E+03  0.27951877050E+03  0.00000000000E+00 0.  1.
</event>
<event>
12    1  0.8691829E-002  0.2400511E+03  0.7818608E-02  0.1119900E+00
         21   -1    0    0  501  502  0.00000000000E+00  0.00000000000E+00  0.22415774975E+03  0.22415774975E+03  0.00000000000E+00 0. -1.
         21   -1    0    0  502  503 -0.00000000000E+00 -0.00000000000E+00 -0.76376686416E+03  0.76376686416E+03  0.00000000000E+00 0.  1.
         -6    2    1    2    0  503 -0.16602678198E+03 -0.25103857048E+02 -0.67265759547E+03  0.71420780434E+03  0.17155014156E+03 0.  0.
        -24    2    3    3    0    0 -0.51850706411E+02 -0.14822324868E+02 -0.48586325583E+03  0.49499078526E+03  0.77746878084E+02 0.  0.
          6    2    1    2  501    0  0.16602678198E+03  0.25103857048E+02  0.13304848105E+03  0.27371680957E+03  0.17036401486E+03 0.  0.
         24    2    5    5    0    0  0.17335429933E+02  0.14740532219E+02  0.83410045906E+02  0.11654626234E+03  0.78153663287E+02 0.  0.
          5    1    5    5  501    0  0.14869135205E+03  0.10363324828E+02  0.49638435147E+02  0.15717054724E+03  0.47000000000E+01 0. -1.
        -13    1    6    6    0    0  0.25163708760E+02  0.38786249246E+02  0.78020201485E+02  0.90690336910E+02  0.00000000000E+00 0.  1.
         14    1    6    6    0    0 -0.78282788262E+01 -0.24045717027E+02  0.53898444209E+01  0.25855925425E+02  0.00000000000E+00 0. -1.
         -5    1    3    3    0  503 -0.11417607557E+03 -0.10281532180E+02 -0.18679433964E+03  0.21921701908E+03  0.47000000000E+01 0.  1.
         13    1    4    4    0    0 -0.58078812574E+02 -0.38474794871E+02 -0.33621690477E+03  0.34335879974E+03  0.00000000000E+00 0. -1.
        -14    1    4    4    0    0  0.62281061630E+01  0.23652470003E+02 -0.14964635106E+03  0.15163198551E+03  0.00000000000E+00 0.  1.
</event>
<event>
12    1  0.8691829E-002  0.2900447E+03  0.7818608E-02  0.1090562E+00
         21   -1    0    0  501  502  0.00000000000E+00  0.00000000000E+00  0.10402512337E+04  0.10402512337E+04  0.00000000000E+00 0. -1.
         21   -1    0    0  502  503 -0.00000000000E+00 -0.00000000000E+00 -0.13238206906E+03  0.13238206906E+03  0.00000000000E+00 0.  1.
         -6    2    1    2    0  503  0.74625167357E+02  0.22142512308E+03  0.85558167989E+02  0.30066926784E+03  0.16877146613E+03 0.  0.
        -24    2    3    3    0    0  0.93424852625E+01  0.10943891238E+03  0.10212796843E+03  0.16990463863E+03  0.79832992649E+02 0.  0.
          6    2    1    2  501    0 -0.74625167357E+02 -0.22142512308E+03  0.82231099661E+03  0.87196403487E+03  0.17183684774E+03 0.  0.
         24    2    5    5    0    0 -0.10012476546E+02 -0.30616587616E+02  0.18949834868E+03  0.20784308625E+03  0.79066422887E+02 0.  0.
          5    1    5    5  501    0 -0.64612690810E+02 -0.19080853546E+03  0.63281264793E+03  0.66412094862E+03  0.47000000000E+01 0. -1.
        -11    1    6    6    0    0  0.22515477362E+02  0.14779268280E+02  0.87570268931E+02  0.91618368750E+02  0.00000000000E+00 0.  1.
         12    1    6    6    0    0 -0.32527953908E+02 -0.45395855896E+02  0.10192807975E+03  0.11622471750E+03  0.00000000000E+00 0. -1.
         -5    1    3    3    0  503  0.65282682094E+02  0.11198621070E+03 -0.16569800445E+02  0.13076462922E+03  0.47000000000E+01 0.  1.
         11    1    4    4    0    0 -0.15346285287E+02  0.23405887547E+01  0.41667153836E+02  0.44465025994E+02  0.00000000000E+00 0. -1.
        -12    1    4    4    0    0  0.24688770549E+02  0.10709832363E+03  0.60460814598E+02  0.12543961263E+03  0.00000000000E+00 0.  1.
</event>
<event>
12    1  0.8691829E-002  0.1999514E+03  0.7818608E-02  0.1151418E+00
         21   -1    0    0  501  502  0.00000000000E+00  0.00000000000E+00  0.39973735864E+02  0.39973735864E+02  0.00000000000E+00 0.  1.
         21   -1    0    0  502  503 -0.00000000000E+00 -0.00000000000E+00 -0.11713161181E+04  0.11713161181E+04  0.00000000000E+00 0. -1.
         -6    2    1    2    0  503 -0.85493076249E+02  0.54650720280E+02 -0.81234520483E+03  0.83480644342E+03  0.16340532076E+03 0.  0.
        -24    2    3    3    0    0 -0.11147655070E+03  0.65964652006E+02 -0.76109426435E+03  0.77605361459E+03  0.78844003087E+02 0.  0.
          6    2    1    2  501    0  0.85493076249E+02 -0.54650720280E+02 -0.31899717742E+03  0.37648341056E+03  0.17229275060E+03 0.  0.
         24    2    5    5    0    0  0.39881440568E+02 -0.29601326253E+02 -0.30927398244E+03  0.32333715978E+03  0.80185752247E+02 0.  0.
          5    1    5    5  501    0  0.45611635680E+02 -0.25049394027E+02 -0.97231949753E+01  0.53146250771E+02  0.47000000000E+01 0. -1.
        -11    1    6    6    0    0  0.22447334050E+02 -0.51620020800E+02 -0.12704457613E+03  0.13895622936E+03  0.00000000000E+00 0.  1.
         12    1    6    6    0    0  0.17434106518E+02  0.22018694547E+02 -0.18222940631E+03  0.18438093042E+03  0.00000000000E+00 0. -1.
         -5    1    3    3    0  503  0.25983474447E+02 -0.11313931727E+02 -0.51250940487E+02  0.58752828836E+02  0.47000000000E+01 0.  1.
         13    1    4    4    0    0 -0.10065031856E+03  0.66760292603E+02 -0.75270729654E+03  0.76233568562E+03  0.00000000000E+00 0. -1.
        -14    1    4    4    0    0 -0.10826232141E+02 -0.79564059634E+00 -0.83869678030E+01  0.13717928971E+02  0.00000000000E+00 0.  1.
</event>
<event>
12    1  0.8691829E-002  0.1755714E+03  0.7818608E-02  0.1172291E+00
         21   -1    0    0  503  502  0.00000000000E+00  0.00000000000E+00  0.71747131612E+03  0.71747131612E+03  0.00000000000E+00 0. -1.
         21   -1    0    0  501  503 -0.00000000000E+00 -0.00000000000E+00 -0.42837134340E+02  0.42837134340E+02  0.00000000000E+00 0. -1.
          6    2    1    2  501    0 -0.31496568814E+02  0.44272382113E+01  0.33451739057E+03  0.37754905764E+03  0.17213300685E+03 0.  0.
         24    2    3    3    0    0  0.36852055312E+02 -0.33758482552E+02  0.14425978762E+03  0.17175855939E+03  0.78691850118E+02 0.  0.
         -6    2    1    2    0  502  0.31496568814E+02 -0.44272382113E+01  0.34011679121E+03  0.38275939282E+03  0.17266640334E+03 0.  0.
        -24    2    5    5    0    0  0.36761581084E+02 -0.38961885652E+02  0.94611159931E+02  0.13473627450E+03  0.79581088876E+02 0.  0.
          5    1    3    3  501    0 -0.68348624126E+02  0.38185720764E+02  0.19025760295E+03  0.20579049825E+03  0.47000000000E+01 0. -1.
        -11    1    4    4    0    0 -0.13131207154E+02 -0.18130354946E+02  0.49449010408E+01  0.22925758834E+02  0.00000000000E+00 0.  1.
         12    1    4    4    0    0  0.49983262466E+02 -0.15628127606E+02  0.13931488658E+03  0.14883280056E+03  0.00000000000E+00 0. -1.
         -5    1    5    5    0  502 -0.52650122702E+01  0.34534647440E+02  0.24550563128E+03  0.24802311832E+03  0.47000000000E+01 0.  1.
         13    1    6    6    0    0  0.15207963845E+02 -0.56403978450E+02  0.32812700030E+02  0.67002718098E+02  0.00000000000E+00 0. -1.
        -14    1    6    6    0    0  0.21553617240E+02  0.17442092799E+02  0.61798459901E+02  0.67733556406E+02  0.00000000000E+00 0.  1.
</event>
<event>
12    1  0.8691829E-002  0.1878431E+03  0.7818608E-02  0.1160808E+00
         21   -1    0    0  501  502  0.00000000000E+00  0.00000000000E+00  0.32839119008E+03  0.32839119008E+03  0.00000000000E+00 0. -1.
         21   -1    0    0  502  503 -0.00000000000E+00 -0.00000000000E+00 -0.23104869473E+03  0.23104869473E+03  0.00000000000E+00 0. -1.
         -6    2    1    2    0  503  0.53156501675E+02 -0.47609667138E+02 -0.15681001048E+03  0.24340423597E+03  0.17194170123E+03 0.  0.
        -24    2    3    3    0    0 -0.11780591329E+02 -0.56384119465E+02 -0.14806147881E+03  0.17712872112E+03  0.78322608993E+02 0.  0.
          6    2    1    2  501    0 -0.53156501675E+02  0.47609667138E+02  0.25415250583E+03  0.31603564884E+03  0.17376058541E+03 0.  0.
         24    2    5    5    0    0 -0.96752551618E+01  0.79489329909E+02  0.10649299972E+03  0.15877042242E+03  0.86343059442E+02 0.  0.
          5    1    5    5  501    0 -0.43481246513E+02 -0.31879662771E+02  0.14765950611E+03  0.15726522642E+03  0.47000000000E+01 0. -1.
        -11    1    6    6    0    0  0.59347968424E+00 -0.12420753910E+02  0.47440192439E+02  0.49042830307E+02  0.00000000000E+00 0.  1.
         12    1    6    6    0    0 -0.10268734846E+02  0.91910083819E+02  0.59052807283E+02  0.10972759211E+03  0.00000000000E+00 0. -1.
         -5    1    3    3    0  503  0.64937093004E+02  0.87744523274E+01 -0.87485316782E+01  0.66275514846E+02  0.47000000000E+01 0.  1.
         13    1    4    4    0    0  0.14680837417E+02 -0.34854095391E+02 -0.16581159267E+02  0.41294912464E+02  0.00000000000E+00 0. -1.
        -14    1    4    4    0    0 -0.26461428746E+02 -0.21530024074E+02 -0.13148031954E+03  0.13583380866E+03  0.00000000000E+00 0.  1.
</event>
<event>
12    1  0.8691829E-002  0.2496380E+03  0.7818608E-02  0.1113644E+00
         21   -1    0    0  501  502  0.00000000000E+00  0.00000000000E+00  0.18102883844E+03  0.18102883844E+03  0.00000000000E+00 0.  1.
         21   -1    0    0  502  503 -0.00000000000E+00 -0.00000000000E+00 -0.38123406098E+03  0.38123406098E+03  0.00000000000E+00 0.  1.
         -6    2    1    2    0  503  0.14221344643E+03  0.11170768989E+03 -0.18866581912E+03  0.31235835041E+03  0.17108382578E+03 0.  0.
        -24    2    3    3    0    0  0.15891915984E+02  0.24182722747E+01 -0.56990934951E+02  0.99610445657E+02  0.80099145956E+02 0.  0.
          6    2    1    2  501    0 -0.14221344643E+03 -0.11170768989E+03 -0.11539403422E+02  0.24990454900E+03  0.17209257234E+03 0.  0.
         24    2    5    5    0    0 -0.73184734011E+02 -0.13563485950E+03 -0.21991494279E+02  0.17595315424E+03  0.81994306294E+02 0.  0.
          5    1    5    5  501    0 -0.69028712422E+02  0.23927169603E+02  0.10452090856E+02  0.73951394761E+02  0.47000000000E+01 0. -1.
        -11    1    6    6    0    0 -0.22027731346E+02 -0.17030879226E+01  0.16420435369E+02  0.27527298350E+02  0.00000000000E+00 0.  1.
         12    1    6    6    0    0 -0.51157002664E+02 -0.13393177157E+03 -0.38411929647E+02  0.14842585589E+03  0.00000000000E+00 0. -1.
         -5    1    3    3    0  503  0.12632153045E+03  0.10928941762E+03 -0.13167488417E+03  0.21274790476E+03  0.47000000000E+01 0.  1.
         13    1    4    4    0    0  0.36430891184E+02 -0.14373609287E+02 -0.27876107133E+01  0.39262975561E+02  0.00000000000E+00 0. -1.
        -14    1    4    4    0    0 -0.20538975199E+02  0.16791881562E+02 -0.54203324238E+02  0.60347470097E+02  0.00000000000E+00 0.  1.
</event>
<event>
12    1  0.8691829E-002  0.2173517E+03  0.7818608E-02  0.1136058E+00
         21   -1    0    0  501  502  0.00000000000E+00  0.00000000000E+00  0.17774245900E+03  0.17774245900E+03  0.00000000000E+00 0. -1.
         21   -1    0    0  502  503 -0.00000000000E+00 -0.00000000000E+00 -0.39644773389E+03  0.39644773389E+03  0.00000000000E+00 0. -1.
         -6    2    1    2    0  503  0.10996221157E+03  0.72722916100E+02 -0.27508375941E+03  0.35058928241E+03  0.17280468671E+03 0.  0.
        -24    2    3    3    0    0  0.11022983006E+03  0.91612584065E+02 -0.14470131470E+03  0.21876150436E+03  0.79841369738E+02 0.  0.
          6    2    1    2  501    0 -0.10996221157E+03 -0.72722916100E+02  0.56378484526E+02  0.22360091047E+03  0.17157658100E+03 0.  0.
         24    2    5    5    0    0 -0.13601805546E+03 -0.94845426964E+02  0.40393810502E+02  0.18557575707E+03  0.72870674893E+02 0.  0.
          5    1    5    5  501    0  0.26055843887E+02  0.22122510864E+02  0.15984674025E+02  0.38025153402E+02  0.47000000000E+01 0. -1.
        -13    1    6    6    0    0  0.66849424380E+00  0.69710096683E+01 -0.56813946711E+01  0.90177661180E+01  0.00000000000E+00 0.  1.
         14    1    6    6    0    0 -0.13668654970E+03 -0.10181643663E+03  0.46075205173E+02  0.17655799095E+03  0.00000000000E+00 0. -1.
         -5    1    3    3    0  503 -0.26761848988E+00 -0.18889667964E+02 -0.13038244472E+03  0.13182777805E+03  0.47000000000E+01 0.  1.
         11    1    4    4    0    0  0.43540295365E+02  0.22950779777E+02 -0.10339300018E+03  0.11451029692E+03  0.00000000000E+00 0. -1.
        -12    1    4    4    0    0  0.66689534696E+02  0.68661804288E+02 -0.41308314512E+02  0.10425120745E+03  0.00000000000E+00 0.  1.
</event>
<event>
12    1  0.8691829E-002  0.1742873E+03  0.7818608E-02  0.1173623E+00
         21   -1    0    0  501  502  0.00000000000E+00  0.00000000000E+00  0.10695106192E+04  0.10695106192E+04  0.00000000000E+00 0.  1.
         21   -1    0    0  502  503 -0.00000000000E+00 -0.00000000000E+00 -0.31076629682E+02  0.31076629682E+02  0.00000000000E+00 0.  1.
         -6    2    1    2    0  503  0.25799849694E+02 -0.14214549731E+02  0.35535898439E+03  0.39579800769E+03  0.17178000301E+03 0.  0.
        -24    2    3    3    0    0  0.64850020860E+02  0.13320432663E+02  0.13543190467E+03  0.17069114080E+03  0.80066882131E+02 0.  0.
          6    2    1    2  501    0 -0.25799849694E+02  0.14214549731E+02  0.68307500516E+03  0.70478924123E+03  0.17108105158E+03 0.  0.
         24    2    5    5    0    0 -0.65477159664E+02  0.27277440773E+02  0.28574844711E+03  0.30524523641E+03  0.80567748611E+02 0.  0.
          5    1    5    5  501    0  0.39677309970E+02 -0.13062891042E+02  0.39732655806E+03  0.39954400482E+03  0.47000000000E+01 0. -1.
        -13    1    6    6    0    0  0.87715096662E+01  0.24875010992E+02  0.35647686576E+02  0.44344820575E+02  0.00000000000E+00 0.  1.
         14    1    6    6    0    0 -0.74248669330E+02  0.24024297814E+01  0.25010076053E+03  0.26090041584E+03  0.00000000000E+00 0. -1.
         -5    1    3    3    0  503 -0.39050171166E+02 -0.27534982394E+02  0.21992707972E+03  0.22510686689E+03  0.47000000000E+01 0.  1.
         13    1    4    4    0    0  0.20026059278E+02  0.36467473381E+02  0.10203363755E+03  0.11018975840E+03  0.00000000000E+00 0. -1.
        -14    1    4    4    0    0  0.44823961582E+02 -0.23147040719E+02  0.33398267123E+02  0.60501382404E+02  0.00000000000E+00 0.  1.
</event>
<event>
12    1  0.8691829E-002  0.2495607E+03  0.7818608E-02  0.1113823E+00
         21   -1    0    0  501  502  0.00000000000E+00  0.00000000000E+00  0.33152406208E+03  0.33152406208E+03  0.00000000000E+00 0. -1.
         21   -1    0    0  502  503 -0.00000000000E+00 -0.00000000000E+00 -0.18925344666E+03  0.18925344666E+03  0.00000000000E+00 0. -1.
         -6    2    1    2    0  503  0.17503504582E+03  0.42584112930E+02  0.10143880509E+03  0.26938886115E+03  0.17271321140E+03 0.  0.
        -24    2    3    3    0    0  0.10453566581E+02  0.23025412378E+02  0.31510001967E+02  0.89439608351E+02  0.79794214380E+02 0.  0.
          6    2    1    2  501    0 -0.17503504582E+03 -0.42584112930E+02  0.40831810336E+02  0.25138864759E+03  0.17052372698E+03 0.  0.
         24    2    5    5    0    0 -0.17440880646E+02 -0.24681462103E+01  0.32772785478E+02  0.88501417999E+02  0.80300494746E+02 0.  0.
          5    1    5    5  501    0 -0.15759416518E+03 -0.40115966719E+02  0.80590248580E+01  0.16288722959E+03  0.47000000000E+01 0. -1.
        -11    1    6    6    0    0  0.14691325939E+02  0.44615750008E+01 -0.20676198303E+02  0.25753560639E+02  0.00000000000E+00 0.  1.
         12    1    6    6    0    0 -0.32132206585E+02 -0.69297212111E+01  0.53448983781E+02  0.62747857360E+02  0.00000000000E+00 0. -1.
         -5    1    3    3    0  503  0.16458147924E+03  0.19558700552E+02  0.69928803123E+02  0.17994925280E+03  0.47000000000E+01 0.  1.
         13    1    4    4    0    0  0.45263327748E+02  0.90487843793E+01  0.16088811806E+02  0.48882504057E+02  0.00000000000E+00 0. -1.
        -14    1    4    4    0    0 -0.34809761167E+02  0.13976627999E+02  0.15421190161E+02  0.40557104294E+02  0.00000000000E+00 0.  1.
</event>
<event>
12    1  0.8691829E-002  0.2154347E+03  0.7818608E-02  0.1137568E+00
         21   -1    0    0  503  502  0.00000000000E+00  0.00000000000E+00  0.33950186395E+02  0.33950186395E+02  0.00000000000E+00 0.  1.
         21   -1    0    0  501  503 -0.00000000000E+00 -0.00000000000E+00 -0.16292376048E+04  0.16292376048E+04  0.00000000000E+00 0.  1.
          6    2    1    2  501    0 -0.12955355571E+03 -0.10242214735E+02 -0.11342346955E+04  0.11542853302E+04  0.17028579575E+03 0.  0.
         24    2    3    3    0    0 -0.20246650847E+02 -0.11252063760E+02 -0.75891586422E+03  0.76334373050E+03  0.78764370908E+02 0.  0.
         -6    2    1    2    0  502  0.12955355571E+03  0.10242214735E+02 -0.46105272290E+03  0.50890246101E+03  0.17182280050E+03 0.  0.
        -24    2    5    5    0    0  0.53378581176E+00 -0.40588912819E+01 -0.12029363561E+03  0.14422525001E+03  0.79458193065E+02 0.  0.
          5    1    3    3  501    0 -0.10930690486E+03  0.10098490254E+01 -0.37531883133E+03  0.39094159972E+03  0.47000000000E+01 0. -1.
        -11    1    4    4    0    0 -0.48331945541E+02 -0.24709482610E+01 -0.34424734919E+03  0.34763244953E+03  0.00000000000E+00 0.  1.
         12    1    4    4    0    0  0.28085294694E+02 -0.87811154992E+01 -0.41466851503E+03  0.41571128097E+03  0.00000000000E+00 0. -1.
         -5    1    5    5    0  502  0.12901976989E+03  0.14301106017E+02 -0.34075908729E+03  0.36467721100E+03  0.47000000000E+01 0.  1.
         11    1    6    6    0    0 -0.17867339062E+02  0.33037212120E+02 -0.48465082271E+02  0.61315278596E+02  0.00000000000E+00 0. -1.
        -12    1    6    6    0    0  0.18401124874E+02 -0.37096103402E+02 -0.71828553339E+02  0.82909971409E+02  0.00000000000E+00 0.  1.
</event>
<event>
12    1  0.8691829E-002  0.2098569E+03  0.7818608E-02  0.1141922E+00
         21   -1    0    0  503  502  0.00000000000E+00  0.00000000000E+00  0.45991417325E+03  0.45991417325E+03  0.00000000000E+00 0.  1.
         21   -1    0    0  501  503 -0.00000000000E+00 -0.00000000000E+00 -0.72809860015E+03  0.72809860015E+03  0.00000000000E+00 0.  1.
          6    2    1    2  501    0 -0.11452147513E+03  0.34443657252E+02 -0.68785357840E+03  0.71879840692E+03  0.17095926613E+03 0.  0.
         24    2    3    3    0    0 -0.41470625676E+02  0.36656429307E+02 -0.58190081128E+03  0.58999855510E+03  0.80163796394E+02 0.  0.
         -6    2    1    2    0  502  0.11452147513E+03 -0.34443657252E+02  0.41966915150E+03  0.46921436649E+03  0.17244822762E+03 0.  0.
        -24    2    5    5    0    0  0.10384690460E+02 -0.50682292957E+02  0.27423397509E+03  0.28954343465E+03  0.77165995359E+02 0.  0.
          5    1    3    3  501    0 -0.73050849457E+02 -0.22127720546E+01 -0.10595276713E+03  0.12879985182E+03  0.47000000000E+01 0. -1.
        -13    1    4    4    0    0 -0.43314234906E+02  0.16267017460E+02 -0.13651714943E+03  0.14414461797E+03  0.00000000000E+00 0.  1.
         14    1    4    4    0    0  0.18436092293E+01  0.20389411847E+02 -0.44538366185E+03  0.44585393713E+03  0.00000000000E+00 0. -1.
         -5    1    5    5    0  502  0.10413678467E+03  0.16238635705E+02  0.14543517641E+03  0.17967093185E+03  0.47000000000E+01 0.  1.
         13    1    6    6    0    0  0.14643883279E+02 -0.36835189639E+02  0.45475089317E+02  0.60326265105E+02  0.00000000000E+00 0. -1.
        -14    1    6    6    0    0 -0.42591928186E+01 -0.13847103319E+02  0.22875888577E+03  0.22921716954E+03  0.00000000000E+00 0.  1.
</event>
<event>
12    1  0.8691829E-002  0.2171530E+03  0.7818608E-02  0.1136656E+00
         21   -1    0    0  503  502  0.00000000000E+00  0.00000000000E+00  0.36085204014E+03  0.36085204014E+03  0.00000000000E+00 0. -1.
         21   -1    0    0  501  503 -0.00000000000E+00 -0.00000000000E+00 -0.13538909063E+03  0.13538909063E+03  0.00000000000E+00 0.  1.
          6    2    1    2  501    0  0.11965179257E+03  0.51394384805E+02  0.16708641057E+03  0.27137837408E+03  0.16961845143E+03 0.  0.
         24    2    3    3    0    0  0.12269836609E+03 -0.14449210877E+02  0.12171432310E+03  0.19121992459E+03  0.80542003806E+02 0.  0.
         -6    2    1    2    0  502 -0.11965179257E+03 -0.51394384805E+02  0.58376538944E+02  0.22486275669E+03  0.17377429267E+03 0.  0.
        -24    2    5    5    0    0 -0.49336520689E+02 -0.61813501484E+02  0.93817454537E+02  0.14529552757E+03  0.77807932213E+02 0.  0.
          5    1    3    3  501    0 -0.30465735185E+01  0.65843595682E+02  0.45372087475E+02  0.80158449488E+02  0.47000000000E+01 0. -1.
        -11    1    4    4    0    0  0.86174156736E+02  0.20371308348E+02  0.44820806602E+02  0.99246562647E+02  0.00000000000E+00 0.  1.
         12    1    4    4    0    0  0.36524209355E+02 -0.34820519224E+02  0.76893516495E+02  0.91973361943E+02  0.00000000000E+00 0. -1.
         -5    1    5    5    0  502 -0.70315271883E+02  0.10419116679E+02 -0.35440915593E+02  0.79567229123E+02  0.47000000000E+01 0.  1.
         13    1    6    6    0    0 -0.42989388830E+02 -0.29044607602E+02  0.70858977942E+01  0.52363028276E+02  0.00000000000E+00 0. -1.
        -14    1    6    6    0    0 -0.63471318597E+01 -0.32768893882E+02  0.86731556743E+02  0.92932499289E+02  0.00000000000E+00 0.  1.
</event>
<event>
12    1  0.8691829E-002  0.1919238E+03  0.7818608E-02  0.1156944E+00
         21   -1    0    0  501  502  0.00000000000E+00  0.00000000000E+00  0.89756358448E+03  0.89756358448E+03  0.00000000000E+00 0.  1.
         21   -1    0    0  502  503 -0.00000000000E+00 -0.00000000000E+00 -0.75747816133E+02  0.75747816133E+02  0.00000000000E+00 0.  1.
         -6    2    1    2    0  503  0.55207873689E+02 -0.48168394016E+02  0.80008876781E+02  0.20707891690E+03  0.17638637691E+03 0.  0.
        -24    2    3    3    0    0  0.85019902071E+02 -0.66696963139E+02  0.98934366719E+02  0.16692509915E+03  0.79994444611E+02 0.  0.
          6    2    1    2  501    0 -0.55207873689E+02  0.48168394016E+02  0.74180689157E+03  0.76623248372E+03  0.17738841910E+03 0.  0.
         24    2    5    5    0    0 -0.55621045140E+02  0.17341799366E+02  0.72303274327E+03  0.72983182036E+03  0.80521422646E+02 0.  0.
          5    1    5    5  501    0  0.41317145147E+00  0.30826594650E+02  0.18774148293E+02  0.36400663353E+02  0.47000000000E+01 0. -1.
        -13    1    6    6    0    0 -0.20009544357E+02  0.18702620197E+02  0.61305273243E+02  0.67145412316E+02  0.00000000000E+00 0.  1.
         14    1    6    6    0    0 -0.35611500783E+02 -0.13608208316E+01  0.66172747003E+03  0.66268640805E+03  0.00000000000E+00 0. -1.
         -5    1    3    3    0  503 -0.29812028382E+02  0.18528569123E+02 -0.18925489938E+02  0.40153817744E+02  0.47000000000E+01 0.  1.
         13    1    4    4    0    0  0.39888616027E+02 -0.40206886667E+02  0.99614495167E+02  0.11458945445E+03  0.00000000000E+00 0. -1.
        -14    1    4    4    0    0  0.45131286044E+02 -0.26490076472E+02 -0.68012844853E+00  0.52335644701E+02  0.00000000000E+00 0.  1.
</event>
<event>
12    1  0.8691829E-002  0.3325046E+03  0.7818608E-02  0.1070259E+00
         21   -1    0    0  501  502  0.00000000000E+00  0.00000000000E+00  0.98467119209E+02  0.98467119209E+02  0.00000000000E+00 0.  1.
         21   -1    0    0  502  503 -0.00000000000E+00 -0.00000000000E+00 -0.11944973720E+04  0.11944973720E+04  0.00000000000E+00 0. -1.
         -6    2    1    2    0  503  0.96132095895E+02 -0.26716993719E+03 -0.71225627203E+03  0.78518328162E+03  0.16906399227E+03 0.  0.
        -24    2    3    3    0    0  0.62052803775E+02 -0.27022732597E+03 -0.67610225633E+03  0.73518379533E+03  0.80669658146E+02 0.  0.
          6    2    1    2  501    0 -0.96132095895E+02  0.26716993719E+03 -0.38377398080E+03  0.50778120963E+03  0.17302639485E+03 0.  0.
         24    2    5    5    0    0 -0.12011263024E+03  0.26139018530E+03 -0.31127681755E+03  0.43105833013E+03  0.78524861777E+02 0.  0.
          5    1    5    5  501    0  0.23980534348E+02  0.57797518949E+01 -0.72497163253E+02  0.76722879504E+02  0.47000000000E+01 0. -1.
        -13    1    6    6    0    0 -0.26921358525E+02  0.12334797617E+03 -0.94579808489E+02  0.15774924071E+03  0.00000000000E+00 0.  1.
         14    1    6    6    0    0 -0.93191271718E+02  0.13804220913E+03 -0.21669700906E+03  0.27330908942E+03  0.00000000000E+00 0. -1.
         -5    1    3    3    0  503  0.34079292121E+02  0.30573887794E+01 -0.36154015702E+02  0.49999486287E+02  0.47000000000E+01 0.  1.
         11    1    4    4    0    0  0.28983381396E+02 -0.56032994563E+02 -0.24059125307E+03  0.24872451413E+03  0.00000000000E+00 0. -1.
        -12    1    4    4    0    0  0.33069422379E+02 -0.21419433141E+03 -0.43551100326E+03  0.48645928120E+03  0.00000000000E+00 0.  1.
</event>
<event>
12    1  0.8691829E-002  0.2445740E+03  0.7818608E-02  0.1116877E+00
         21   -1    0    0  501  502  0.00000000000E+00  0.00000000000E+00  0.12911401393E+04  0.12911401393E+04  0.00000000000E+00 0.  1.
         21   -1    0    0  502  503 -0.00000000000E+00 -0.00000000000E+00 -0.46674330733E+02  0.46674330733E+02  0.00000000000E+00 0.  1.
         -6    2    1    2    0  503  0.16136109730E+03 -0.64412477952E+02  0.68907158034E+03  0.73118812032E+03  0.17213382418E+03 0.  0.
        -24    2    3    3    0    0  0.14362025902E+02 -0.49898618124E+02  0.22386924811E+03  0.24307473284E+03  0.79194353460E+02 0.  0.
          6    2    1    2  501    0 -0.16136109730E+03  0.64412477952E+02  0.55539422827E+03  0.60662634975E+03  0.17130793439E+03 0.  0.
         24    2    5    5    0    0 -0.14502806192E+03  0.27103900665E+01  0.30819197051E+03  0.35127372702E+03  0.85851357900E+02 0.  0.
          5    1    5    5  501    0 -0.16333035383E+02  0.61702087886E+02  0.24720225776E+03  0.25535262273E+03  0.47000000000E+01 0. -1.
        -11    1    6    6    0    0 -0.19673701586E+02 -0.10144335082E+02  0.13660271546E+03  0.13838447868E+03  0.00000000000E+00 0.  1.
         12    1    6    6    0    0 -0.12535436033E+03  0.12854725149E+02  0.17158925505E+03  0.21288924835E+03  0.00000000000E+00 0. -1.
         -5    1    3    3    0  503  0.14699907140E+03 -0.14513859829E+02  0.46520233223E+03  0.48811338748E+03  0.47000000000E+01 0.  1.
         13    1    4    4    0    0  0.35077775462E+02 -0.57502830715E+02  0.12736262489E+03  0.14407728513E+03  0.00000000000E+00 0. -1.
        -14    1    4    4    0    0 -0.20715749560E+02  0.76042125916E+01  0.96506623212E+02  0.98997447708E+02  0.00000000000E+00 0.  1.
</event>
<event>
12    1  0.8691829E-002  0.1965561E+03  0.7818608E-02  0.1152826E+00
         21   -1    0    0  503  502  0.00000000000E+00  0.00000000000E+00  0.46442538175E+03  0.46442538175E+03  0.00000000000E+00 0. -1.
         21   -1    0    0  501  503 -0.00000000000E+00 -0.00000000000E+00 -0.10900457969E+03  0.10900457969E+03  0.00000000000E+00 0. -1.
          6    2    1    2  501    0 -0.34410308101E+02 -0.88174966127E+02  0.37628443033E+02  0.20012544933E+03  0.17226549797E+03 0.  0.
         24    2    3    3    0    0  0.33852200524E+01 -0.61866222063E+02 -0.42665738537E+02  0.10744374911E+03  0.76713133361E+02 0.  0.
         -6    2    1    2    0  502  0.34410308101E+02  0.88174966127E+02  0.31779235903E+03  0.37330451211E+03  0.17147997360E+03 0.  0.
        -24    2    5    5    0    0 -0.80737044952E+01  0.11318070117E+03  0.27609513141E+03  0.30856714344E+03  0.78167158045E+02 0.  0.
          5    1    3    3  501    0 -0.37795528153E+02 -0.26308744064E+02  0.80294181570E+02  0.92681700225E+02  0.47000000000E+01 0. -1.
        -11    1    4    4    0    0 -0.66982459416E+01  0.11838142602E+02  0.94950344451E+01  0.16588061914E+02  0.00000000000E+00 0.  1.
         12    1    4    4    0    0  0.10083465994E+02 -0.73704364665E+02 -0.52160772982E+02  0.90855687192E+02  0.00000000000E+00 0. -1.
         -5    1    5    5    0  502  0.42484012596E+02 -0.25005735045E+02  0.41697227620E+02  0.64737368672E+02  0.47000000000E+01 0.  1.
         11    1    6    6    0    0  0.14662025065E+02  0.11024475930E+03  0.25123479232E+03  0.27475043731E+03  0.00000000000E+00 0. -1.
        -12    1    6    6    0    0 -0.22735729560E+02  0.29359418743E+01  0.24860339097E+02  0.33816706128E+02  0.00000000000E+00 0.  1.
</event>
<event>
12    1  0.8691829E-002  0.2253809E+03  0.7818608E-02  0.1130012E+00
         21   -1    0    0  501  502  0.00000000000E+00  0.00000000000E+00  0.21663297250E+03  0.21663297250E+03  0.00000000000E+00 0. -1.
         21   -1    0    0  502  503 -0.00000000000E+00 -0.00000000000E+00 -0.23430039514E+03  0.23430039514E+03  0.00000000000E+00 0. -1.
         -6    2    1    2    0  503  0.15724404310E+02  0.14442775978E+03 -0.16497212163E+02  0.22598384915E+03  0.17230759526E+03 0.  0.
        -24    2    3    3    0    0  0.61013971958E+02  0.52307554164E+02 -0.40007774220E+02  0.12056983800E+03  0.80484028477E+02 0.  0.
          6    2    1    2  501    0 -0.15724404310E+02 -0.14442775978E+03 -0.11702104796E+01  0.22494951849E+03  0.17173899322E+03 0.  0.
         24    2    5    5    0    0 -0.61315247367E+02 -0.44452243925E+02 -0.30579258310E+02  0.11110483994E+03  0.75323521353E+02 0.  0.
          5    1    5    5  501    0  0.45590843056E+02 -0.99975515852E+02  0.29409047830E+02  0.11384467855E+03  0.47000000000E+01 0. -1.
        -11    1    6    6    0    0 -0.38875702309E+02  0.56967747755E+01  0.12562373700E+02  0.41250293403E+02  0.00000000000E+00 0.  1.
         12    1    6    6    0    0 -0.22439545058E+02 -0.50149018700E+02 -0.43141632010E+02  0.69854546534E+02  0.00000000000E+00 0. -1.
         -5    1    3    3    0  503 -0.45289567647E+02  0.92120205612E+02  0.23510562058E+02  0.10541401116E+03  0.47000000000E+01 0.  1.
         13    1    4    4    0    0  0.29612412790E+02  0.66087094665E+02 -0.45951332706E+02  0.85766683800E+02  0.00000000000E+00 0. -1.
        -14    1    4    4    0    0  0.31401559168E+02 -0.13779540501E+02  0.59435584860E+01  0.34803154197E+02  0.00000000000E+00 0.  1.
</event>
<event>
12    1  0.8691829E-002  0.2163045E+03  0.7818608E-02  0.1139391E+00
         21   -1    0    0  503  502  0.00000000000E+00  0.00000000000E+00  0.29395426258E+03  0.29395426258E+03  0.00000000000E+00 0. -1.
         21   -1    0    0  501  503 -0.00000000000E+00 -0.00000000000E+00 -0.19882809166E+03  0.19882809166E+03  0.00000000000E+00 0.  1.
          6    2    1    2  501    0  0.10989030341E+03 -0.71066495579E+02  0.16946460795E+03  0.26406019566E+03  0.15454192961E+03 0.  0.
         24    2    3    3    0    0  0.14668158276E+01 -0.42222662912E+02  0.75584122291E+02  0.11769334514E+03  0.79711097947E+02 0.  0.
         -6    2    1    2    0  502 -0.10989030341E+03  0.71066495579E+02 -0.74338437031E+02  0.22872215859E+03  0.17222455408E+03 0.  0.
        -24    2    5    5    0    0 -0.41862629211E+02  0.64559232315E+02  0.19861776573E+02  0.11224950439E+03  0.79278539751E+02 0.  0.
          5    1    3    3  501    0  0.10842348759E+03 -0.28843832667E+02  0.93880485655E+02  0.14636685052E+03  0.47000000000E+01 0. -1.
        -13    1    4    4    0    0 -0.25428204709E+02 -0.54417155737E+02  0.44017332396E+02  0.74467079871E+02  0.00000000000E+00 0.  1.
         14    1    4    4    0    0  0.26895020537E+02  0.12194492825E+02  0.31566789894E+02  0.43226265270E+02  0.00000000000E+00 0. -1.
         -5    1    5    5    0  502 -0.68027674204E+02  0.65072632643E+01 -0.94200213604E+02  0.11647265420E+03  0.47000000000E+01 0.  1.
         11    1    6    6    0    0 -0.49364575751E+02  0.23036566923E+02 -0.16104689799E+02  0.56805860509E+02  0.00000000000E+00 0. -1.
        -12    1    6    6    0    0  0.75019465406E+01  0.41522665393E+02  0.35966466373E+02  0.55443643878E+02  0.00000000000E+00 0.  1.
</event>
<event>
12    1  0.8691829E-002  0.2172745E+03  0.7818608E-02  0.1136593E+00
         21   -1    0    0  503  502  0.00000000000E+00  0.00000000000E+00  0.12548776665E+03  0.12548776665E+03  0.00000000000E+00 0. -1.
         21   -1    0    0  501  503 -0.00000000000E+00 -0.00000000000E+00 -0.57403813521E+03  0.57403813521E+03  0.00000000000E+00 0.  1.
          6    2    1    2  501    0 -0.11159290405E+03  0.72600010741E+02 -0.43151811649E+03  0.48158482281E+03  0.16730905210E+03 0.  0.
         24    2    3    3    0    0 -0.11050876200E+03  0.23710946376E+02 -0.40003684181E+03  0.42323692967E+03  0.79533819084E+02 0.  0.
         -6    2    1    2    0  502  0.11159290405E+03 -0.72600010741E+02 -0.17032252076E+02  0.21794107904E+03  0.17171044968E+03 0.  0.
        -24    2    5    5    0    0  0.32740648902E+02 -0.49364094159E+02 -0.68751872965E+02  0.12070633656E+03  0.79589168646E+02 0.  0.
          5    1    3    3  501    0 -0.10841420474E+01  0.48889064365E+02 -0.31481274680E+02  0.58347893140E+02  0.47000000000E+01 0. -1.
        -11    1    4    4    0    0 -0.11914467281E+03  0.13056197158E+02 -0.38327585085E+03  0.40157974948E+03  0.00000000000E+00 0.  1.
         12    1    4    4    0    0  0.86359108030E+01  0.10654749218E+02 -0.16760990955E+02  0.21657180197E+02  0.00000000000E+00 0. -1.
         -5    1    5    5    0  502  0.78852255150E+02 -0.23235916582E+02  0.51719620889E+02  0.97234742487E+02  0.47000000000E+01 0.  1.
         13    1    6    6    0    0 -0.94120746652E+01  0.11467207989E+02  0.55455291325E+01  0.15837831352E+02  0.00000000000E+00 0. -1.
        -14    1    6    6    0    0  0.42152723567E+02 -0.60831302148E+02 -0.74297402098E+02  0.10486850520E+03  0.00000000000E+00 0.  1.
</event>
<event>
12    1  0.8691829E-002  0.1810660E+03  0.7818608E-02  0.1167016E+00
         21   -1    0    0  503  502  0.00000000000E+00  0.00000000000E+00  0.44747368498E+03  0.44747368498E+03  0.00000000000E+00 0. -1.
         21   -1    0    0  501  503 -0.00000000000E+00 -0.00000000000E+00 -0.36943557875E+03  0.36943557875E+03  0.00000000000E+00 0. -1.
          6    2    1    2  501    0  0.52602515588E+02 -0.17095431742E+02 -0.32696703135E+03  0.37327197687E+03  0.17136292100E+03 0.  0.
         24    2    3    3    0    0  0.60791628619E+01  0.37031395697E+02 -0.89771117823E+02  0.12552588267E+03  0.79307081252E+02 0.  0.
         -6    2    1    2    0  502 -0.52602515588E+02  0.17095431742E+02  0.40500513758E+03  0.44363728686E+03  0.17241114347E+03 0.  0.
        -24    2    5    5    0    0 -0.72092417522E+02 -0.14457075890E+02  0.14555824039E+03  0.18151098242E+03  0.79703900073E+02 0.  0.
          5    1    3    3  501    0  0.46523352726E+02 -0.54126827439E+02 -0.23719591353E+03  0.24774609420E+03  0.47000000000E+01 0. -1.
        -11    1    4    4    0    0  0.17765305626E+02 -0.21315428813E+02 -0.34865293396E+02  0.44559424066E+02  0.00000000000E+00 0.  1.
         12    1    4    4    0    0 -0.11686142764E+02  0.58346824510E+02 -0.54905824427E+02  0.80966458605E+02  0.00000000000E+00 0. -1.
         -5    1    5    5    0  502  0.19489901935E+02  0.31552507631E+02  0.25944689719E+03  0.26212630443E+03  0.47000000000E+01 0.  1.
         13    1    6    6    0    0  0.10229886564E+01 -0.49960597333E+01  0.87556605948E+02  0.87704996230E+02  0.00000000000E+00 0. -1.
        -14    1    6    6    0    0 -0.73115406179E+02 -0.94610161564E+01  0.58001634441E+02  0.93805986191E+02  0.00000000000E+00 0.  1.
</event>
<event>
12    1  0.8691829E-002  0.2195332E+03  0.7818608E-02  0.1136922E+00
         21   -1    0    0  503  502  0.00000000000E+00  0.00000000000E+00  0.30721135724E+04  0.30721135724E+04  0.00000000000E+00 0. -1.
         21   -1    0    0  501  503 -0.00000000000E+00 -0.00000000000E+00 -0.36210343682E+02  0.36210343682E+02  0.00000000000E+00 0. -1.
          6    2    1    2  501    0  0.10664657084E+03 -0.35171860671E+02  0.30047463048E+03  0.36410008205E+03  0.17225944193E+03 0.  0.
         24    2    3    3    0    0 -0.78815314338E+01 -0.35520501217E+02  0.10655285252E+03  0.13883456376E+03  0.81226234503E+02 0.  0.
         -6    2    1    2    0  502 -0.10664657084E+03  0.35171860671E+02  0.27354285983E+04  0.27442238341E+04  0.18863797164E+03 0.  0.
        -24    2    5    5    0    0  0.22258694177E+02  0.26924310889E+02  0.13318693068E+04  0.13347255673E+04  0.79975755920E+02 0.  0.
          5    1    3    3  501    0  0.11452810228E+03  0.34864054573E+00  0.19392177796E+03  0.22526551829E+03  0.47000000000E+01 0. -1.
        -13    1    4    4    0    0 -0.17724374673E+02 -0.25133538711E+01  0.10261717559E+03  0.10416695797E+03  0.00000000000E+00 0.  1.
         14    1    4    4    0    0  0.98428432391E+01 -0.33007147346E+02  0.39356769247E+01  0.34667605798E+02  0.00000000000E+00 0. -1.
         -5    1    5    5    0  502 -0.12890526502E+03  0.82475497819E+01  0.14035592914E+04  0.14094982668E+04  0.47000000000E+01 0.  1.
         11    1    6    6    0    0  0.17174111641E+01  0.52285086389E+02  0.66306766164E+03  0.66512811072E+03  0.00000000000E+00 0. -1.
        -12    1    6    6    0    0  0.20541283013E+02 -0.25360775500E+02  0.66880164521E+03  0.66959745659E+03  0.00000000000E+00 0.  1.
</event>
<event>
12    1  0.8691829E-002  0.3446488E+03  0.7818608E-02  0.1064959E+00
         21   -1    0    0  501  502  0.00000000000E+00  0.00000000000E+00  0.30051452300E+03  0.30051452300E+03  0.00000000000E+00 0.  1.
         21   -1    0    0  502  503 -0.00000000000E+00 -0.00000000000E+00 -0.13597470017E+04  0.13597470017E+04  0.00000000000E+00 0.  1.
         -6    2    1    2    0  503 -0.29717527682E+03  0.12642246103E+02 -0.12289866862E+04  0.12760750375E+04  0.17171562246E+03 0.  0.
        -24    2    3    3    0    0 -0.21053266179E+03 -0.53558971390E+02 -0.76222869832E+03  0.79672688306E+03  0.81170022519E+02 0.  0.
          6    2    1    2  501    0  0.29717527682E+03 -0.12642246103E+02  0.16975420752E+03  0.38418648716E+03  0.17409708327E+03 0.  0.
         24    2    5    5    0    0  0.14431947530E+03  0.59035216029E+02  0.94924570597E+02  0.19945933918E+03  0.80374661445E+02 0.  0.
          5    1    5    5  501    0  0.15285580152E+03 -0.71677462133E+02  0.74829636923E+02  0.18472714798E+03  0.47000000000E+01 0. -1.
        -13    1    6    6    0    0  0.82582446995E+02  0.48082067612E+02  0.97743260031E+02  0.13669488161E+03  0.00000000000E+00 0.  1.
         14    1    6    6    0    0  0.61737028305E+02  0.10953148417E+02 -0.28186894339E+01  0.62764457572E+02  0.00000000000E+00 0. -1.
         -5    1    3    3    0  503 -0.86642615033E+02  0.66201217493E+02 -0.46675798785E+03  0.47934815443E+03  0.47000000000E+01 0.  1.
         11    1    4    4    0    0 -0.52262953588E+00 -0.19074601869E+02 -0.61538997140E+02  0.64429509909E+02  0.00000000000E+00 0. -1.
        -12    1    4    4    0    0 -0.21001003226E+03 -0.34484369521E+02 -0.70068970118E+03  0.73229737316E+03  0.00000000000E+00 0.  1.
</event>
<event>
12    1  0.8691829E-002  0.1830571E+03  0.7818608E-02  0.1165545E+00
         21   -1    0    0  501  502  0.00000000000E+00  0.00000000000E+00  0.10292786569E+03  0.10292786569E+03  0.00000000000E+00 0.  1.
         21   -1    0    0  502  503 -0.00000000000E+00 -0.00000000000E+00 -0.54055896776E+03  0.54055896776E+03  0.00000000000E+00 0.  1.
         -6    2    1    2    0  503 -0.24227091957E+02  0.58912349725E+02 -0.42504859623E+03  0.46279175341E+03  0.17161666858E+03 0.  0.
        -24    2    3    3    0    0  0.42118597684E+01  0.26366673337E+02 -0.40764976703E+03  0.41596436523E+03  0.78326747368E+02 0.  0.
          6    2    1    2  501    0  0.24227091957E+02 -0.58912349725E+02 -0.12582505847E+02  0.18069508003E+03  0.16862614139E+03 0.  0.
         24    2    5    5    0    0 -0.42226517468E+02  0.11861820748E+01 -0.22698069218E+02  0.90404823901E+02  0.76637745485E+02 0.  0.
          5    1    5    5  501    0  0.66453609425E+02 -0.60098531800E+02  0.10115563371E+02  0.90290256132E+02  0.47000000000E+01 0. -1.
        -13    1    6    6    0    0 -0.24673013955E+02  0.38484297510E+02 -0.67727359317E+01  0.46213295971E+02  0.00000000000E+00 0.  1.
         14    1    6    6    0    0 -0.17553503512E+02 -0.37298115435E+02 -0.15925333286E+02  0.44191527931E+02  0.00000000000E+00 0. -1.
         -5    1    3    3    0  503 -0.28438951725E+02  0.32545676388E+02 -0.17398829197E+02  0.46827388185E+02  0.47000000000E+01 0.  1.
         11    1    4    4    0    0  0.41227606182E+02  0.16703548127E+02 -0.21539120469E+03  0.21993657061E+03  0.00000000000E+00 0. -1.
        -12    1    4    4    0    0 -0.37015746413E+02  0.96631252103E+01 -0.19225856234E+03  0.19602779462E+03  0.00000000000E+00 0.  1.
</event>
<event>
12    1  0.8691829E-002  0.1892247E+03  0.7818608E-02  0.1160332E+00
         21   -1    0    0  503  502  0.00000000000E+00  0.00000000000E+00  0.30017654042E+03  0.30017654042E+03  0.00000000000E+00 0.  1.
         21   -1    0    0  501  503 -0.00000000000E+00 -0.00000000000E+00 -0.12522611293E+03  0.12522611293E+03  0.00000000000E+00 0.  1.
          6    2    1    2  501    0  0.68668917173E+02 -0.24224879659E+02  0.28958722766E+02  0.18640567364E+03  0.16913368251E+03 0.  0.
         24    2    3    3    0    0 -0.28672224079E+02 -0.74907522445E+01 -0.22797621151E+01  0.82707738567E+02  0.77182672283E+02 0.  0.
         -6    2    1    2    0  502 -0.68668917173E+02  0.24224879659E+02  0.14599170473E+03  0.23899697971E+03  0.17465312331E+03 0.  0.
        -24    2    5    5    0    0  0.22727797338E+02  0.34260446132E+02  0.10567614438E+03  0.13849072904E+03  0.79510399306E+02 0.  0.
          5    1    3    3  501    0  0.97341141252E+02 -0.16734127415E+02  0.31238484882E+02  0.10369793507E+03  0.47000000000E+01 0. -1.
        -13    1    4    4    0    0  0.51665774355E+01  0.28540572051E+02  0.11798038561E+02  0.31312162003E+02  0.00000000000E+00 0.  1.
         14    1    4    4    0    0 -0.33838801514E+02 -0.36031324296E+02 -0.14077800676E+02  0.51395576564E+02  0.00000000000E+00 0. -1.
         -5    1    5    5    0  502 -0.91396714511E+02 -0.10035566473E+02  0.40315560353E+02  0.10050625067E+03  0.47000000000E+01 0.  1.
         13    1    6    6    0    0  0.21924152685E+01  0.42380694188E+02  0.14759565382E+02  0.44930776700E+02  0.00000000000E+00 0. -1.
        -14    1    6    6    0    0  0.20535382070E+02 -0.81202480562E+01  0.90916578993E+02  0.93559952336E+02  0.00000000000E+00 0.  1.
</event>
<event>
12    1  0.8691829E-002  0.2120636E+03  0.7818608E-02  0.1140600E+00
         21   -1    0    0  501  502  0.00000000000E+00  0.00000000000E+00  0.24228260896E+03  0.24228260896E+03  0.00000000000E+00 0.  1.
         21   -1    0    0  502  503 -0.00000000000E+00 -0.00000000000E+00 -0.25997796538E+03  0.25997796538E+03  0.00000000000E+00 0.  1.
         -6    2    1    2    0  503  0.77718420151E+02 -0.89612052035E+02 -0.14580774269E+03  0.25735355640E+03  0.17578533061E+03 0.  0.
        -24    2    3    3    0    0  0.85866977604E+02 -0.88602028087E+02 -0.41868430164E+02  0.15298454842E+03  0.80173869723E+02 0.  0.
          6    2    1    2  501    0 -0.77718420151E+02  0.89612052035E+02  0.12811238627E+03  0.24490701794E+03  0.17174455222E+03 0.  0.
         24    2    5    5    0    0 -0.58235041233E+02  0.64555936129E+02  0.61644606613E+01  0.11880865332E+03  0.80738507611E+02 0.  0.
          5    1    5    5  501    0 -0.19483378918E+02  0.25056115905E+02  0.12194792561E+03  0.12609836462E+03  0.47000000000E+01 0. -1.
        -13    1    6    6    0    0 -0.53748131896E+02  0.73391158652E+02  0.27709231904E+02  0.95094297323E+02  0.00000000000E+00 0.  1.
         14    1    6    6    0    0 -0.44869093364E+01 -0.88352225227E+01 -0.21544771242E+02  0.23714355996E+02  0.00000000000E+00 0. -1.
         -5    1    3    3    0  503 -0.81485574528E+01 -0.10100239478E+01 -0.10393931253E+03  0.10436900798E+03  0.47000000000E+01 0.  1.
         11    1    4    4    0    0  0.14315012803E+02 -0.49176541031E+01  0.21236911159E+02  0.26078905441E+02  0.00000000000E+00 0. -1.
        -12    1    4    4    0    0  0.71551964801E+02 -0.83684373984E+02 -0.63105341323E+02  0.12690564298E+03  0.00000000000E+00 0.  1.
</event>
<event>
12    1  0.8691829E-002  0.2148809E+03  0.7818608E-02  0.1137806E+00
         21   -1    0    0  503  502  0.00000000000E+00  0.00000000000E+00  0.29526478723E+03  0.29526478723E+03  0.00000000000E+00 0. -1.
         21   -1    0    0  501  503 -0.00000000000E+00 -0.00000000000E+00 -0.22524101977E+03  0.22524101977E+03  0.00000000000E+00 0. -1.
          6    2    1    2  501    0  0.12349474356E+03 -0.27559114367E+02 -0.10906059665E+03  0.24097305645E+03  0.17367597336E+03 0.  0.
         24    2    3    3    0    0  0.14503969493E+03 -0.58482673849E+02 -0.79321234700E+02  0.19273436752E+03  0.79987135848E+02 0.  0.
         -6    2    1    2    0  502 -0.12349474356E+03  0.27559114367E+02  0.17908436412E+03  0.27953275055E+03  0.17336923800E+03 0.  0.
        -24    2    5    5    0    0 -0.59783182423E+02  0.27800623290E+02  0.18935064101E+03  0.21482797646E+03  0.77139423545E+02 0.  0.
          5    1    3    3  501    0 -0.21544951375E+02  0.30923559483E+02 -0.29739361953E+02  0.48238688935E+02  0.47000000000E+01 0. -1.
        -13    1    4    4    0    0  0.91105313370E+02 -0.76234883946E+02 -0.50925958864E+02  0.12924932859E+03  0.00000000000E+00 0.  1.
         14    1    4    4    0    0  0.53934381562E+02  0.17752210097E+02 -0.28395275836E+02  0.63485038927E+02  0.00000000000E+00 0. -1.
         -5    1    5    5    0  502 -0.63711561134E+02 -0.24150892356E+00 -0.10266276884E+02  0.64704774088E+02  0.47000000000E+01 0.  1.
         11    1    6    6    0    0 -0.21853008141E+02  0.51597478779E+02  0.92912000072E+02  0.10850112229E+03  0.00000000000E+00 0. -1.
        -12    1    6    6    0    0 -0.37930174282E+02 -0.23796855489E+02  0.96438640934E+02  0.10632685417E+03  0.00000000000E+00 0.  1.
</event>
<event>
12    1  0.8691829E-002  0.2037983E+03  0.7818608E-02  0.1146952E+00
         21   -1    0    0  503  502  0.00000000000E+00  0.00000000000E+00  0.10205100384E+04  0.10205100384E+04  0.00000000000E+00 0.  1.
         21   -1    0    0  501  503 -0.00000000000E+00 -0.00000000000E+00 -0.20881941664E+03  0.20881941664E+03  0.00000000000E+00 0.  1.
          6    2    1    2  501    0 -0.11116191279E+03 -0.12655443380E+02 -0.14592004599E+03  0.25065194641E+03  0.17034261744E+03 0.  0.
         24    2    3    3    0    0 -0.12829117921E+03 -0.32873329537E+01 -0.16304233558E+03  0.22426187134E+03  0.85094950036E+02 0.  0.
         -6    2    1    2    0  502  0.11116191279E+03  0.12655443380E+02  0.95761066774E+03  0.97867750863E+03  0.16814976602E+03 0.  0.
        -24    2    5    5    0    0  0.13740910445E+03  0.39942296305E+02  0.73772629848E+03  0.75550781252E+03  0.77944302494E+02 0.  0.
          5    1    3    3  501    0  0.17129266428E+02 -0.93681104267E+01  0.17122289596E+02  0.26390075072E+02  0.47000000000E+01 0. -1.
        -11    1    4    4    0    0 -0.55023042875E+02  0.40550334481E+02 -0.78868857625E+02  0.10436551910E+03  0.00000000000E+00 0.  1.
         12    1    4    4    0    0 -0.73268136338E+02 -0.43837667435E+02 -0.84173477958E+02  0.11989635224E+03  0.00000000000E+00 0. -1.
         -5    1    5    5    0  502 -0.26247191669E+02 -0.27286852925E+02  0.21988436927E+03  0.22316969611E+03  0.47000000000E+01 0.  1.
         13    1    6    6    0    0 -0.40266032665E+01 -0.71899006793E+01  0.11562435374E+02  0.14198525185E+02  0.00000000000E+00 0. -1.
        -14    1    6    6    0    0  0.14143570772E+03  0.47132196984E+02  0.72616386310E+03  0.74130928733E+03  0.00000000000E+00 0.  1.
</event>
<event>
12    1  0.8691829E-002  0.2041326E+03  0.7818608E-02  0.1146416E+00
         21   -1    0    0  503  502  0.00000000000E+00  0.00000000000E+00  0.35373114169E+03  0.35373114169E+03  0.00000000000E+00 0. -1.
         21   -1    0    0  501  503 -0.00000000000E+00 -0.00000000000E+00 -0.13165055382E+03  0.13165055382E+03  0.00000000000E+00 0. -1.
          6    2    1    2  501    0  0.11108833037E+03  0.18582438673E+02  0.19082794553E+03  0.27943767150E+03  0.17024741786E+03 0.  0.
         24    2    3    3    0    0  0.97753394469E+02  0.47291317020E+02  0.71362533481E+02  0.15576028922E+03  0.85886330217E+02 0.  0.
         -6    2    1    2    0  502 -0.11108833037E+03 -0.18582438673E+02  0.31252642339E+02  0.20594402401E+03  0.16955910239E+03 0.  0.
        -24    2    5    5    0    0 -0.35388686824E+02 -0.52923853420E+02 -0.27333915010E+02  0.10413909534E+03  0.77746478077E+02 0.  0.
          5    1    3    3  501    0  0.13334935898E+02 -0.28708878348E+02  0.11946541205E+03  0.12367738228E+03  0.47000000000E+01 0. -1.
        -13    1    4    4    0    0  0.77466767327E+02  0.25088883930E+02  0.34670137643E+01  0.81501977408E+02  0.00000000000E+00 0.  1.
         14    1    4    4    0    0  0.20286627142E+02  0.22202433091E+02  0.67895519717E+02  0.74258311815E+02  0.00000000000E+00 0. -1.
         -5    1    5    5    0  502 -0.75699643544E+02  0.34341414747E+02  0.58586557349E+02  0.10180492867E+03  0.47000000000E+01 0.  1.
         11    1    6    6    0    0  0.47114386174E+01 -0.29750776490E+02 -0.45351789996E+02  0.54443468033E+02  0.00000000000E+00 0. -1.
        -12    1    6    6    0    0 -0.40100125441E+02 -0.23173076930E+02  0.18017874986E+02  0.49695627311E+02  0.00000000000E+00 0.  1.
</event>
<event>
12    1  0.8691829E-002  0.2005492E+03  0.7818608E-02  0.1149745E+00
         21   -1    0    0  501  502  0.00000000000E+00  0.00000000000E+00  0.16373629570E+03  0.16373629570E+03  0.00000000000E+00 0.  1.
         21   -1    0    0  502  503 -0.00000000000E+00 -0.00000000000E+00 -0.26578867006E+03  0.26578867006E+03  0.00000000000E+00 0.  1.
         -6    2    1    2    0  503 -0.10497314227E+03 -0.59678148036E+01 -0.11374307995E+03  0.22863533686E+03  0.16817150060E+03 0.  0.
        -24    2    3    3    0    0  0.37367069711E+01 -0.42457642111E+01 -0.16789069463E+02  0.82885664718E+02  0.80970186301E+02 0.  0.
          6    2    1    2  501    0  0.10497314227E+03  0.59678148036E+01  0.11690705594E+02  0.20088962890E+03  0.17077761853E+03 0.  0.
         24    2    5    5    0    0  0.85770670404E+02  0.62619322594E+02 -0.18054985228E+02  0.13391930425E+03  0.79565131156E+02 0.  0.
          5    1    5    5  501    0  0.19202471864E+02 -0.56651507791E+02  0.29745690822E+02  0.66970324645E+02  0.47000000000E+01 0. -1.
        -13    1    6    6    0    0  0.36184615722E+02 -0.13146956214E+01  0.23296158177E+02  0.43055380910E+02  0.00000000000E+00 0.  1.
         14    1    6    6    0    0  0.49586054682E+02  0.63934018216E+02 -0.41351143405E+02  0.90863923341E+02  0.00000000000E+00 0. -1.
         -5    1    3    3    0  503 -0.10870984924E+03 -0.17220505925E+01 -0.96954010489E+02  0.14574967214E+03  0.47000000000E+01 0.  1.
         13    1    4    4    0    0  0.59212429428E+01 -0.11538777825E+01 -0.49545390001E+02  0.49911303552E+02  0.00000000000E+00 0. -1.
        -14    1    4    4    0    0 -0.21845359717E+01 -0.30918864286E+01  0.32756320539E+02  0.32974361166E+02  0.00000000000E+00 0.  1.
</event>
<event>
12    1  0.8691829E-002  0.1781839E+03  0.7818608E-02  0.1169953E+00
         21   -1    0    0  503  502  0.00000000000E+00  0.00000000000E+00  0.60390491723E+02  0.60390491723E+02  0.00000000000E+00 0.  1.
         21   -1    0    0  501  503 -0.00000000000E+00 -0.00000000000E+00 -0.52239808474E+03  0.52239808474E+03  0.00000000000E+00 0. -1.
          6    2    1    2  501    0 -0.40787443400E+02 -0.11367926338E+02 -0.21799858630E+03  0.28155438690E+03  0.17307987713E+03 0.  0.
         24    2    3    3    0    0 -0.10949455020E+01 -0.45304539977E+02 -0.55603568884E+02  0.11090439476E+03  0.84583258728E+02 0.  0.
         -6    2    1    2    0  502  0.40787443400E+02  0.11367926338E+02 -0.24400900671E+03  0.30123418956E+03  0.17148993065E+03 0.  0.
        -24    2    5    5    0    0  0.29024728724E+02  0.63281926086E+02 -0.11942835128E+03  0.16567662048E+03  0.91315795119E+02 0.  0.
          5    1    3    3  501    0 -0.39692497898E+02  0.33936613639E+02 -0.16239501742E+03  0.17064999214E+03  0.47000000000E+01 0. -1.
        -11    1    4    4    0    0 -0.32747963346E+02 -0.53085776175E+02 -0.28791926179E+02  0.68698644444E+02  0.00000000000E+00 0.  1.
         12    1    4    4    0    0  0.31653017844E+02  0.77812361984E+01 -0.26811642706E+02  0.42205750319E+02  0.00000000000E+00 0. -1.
         -5    1    5    5    0  502  0.11762714676E+02 -0.51913999748E+02 -0.12458065543E+03  0.13555756908E+03  0.47000000000E+01 0.  1.
         13    1    6    6    0    0  0.44717820106E+00 -0.97078247483E+01 -0.74898348140E+02  0.75526183432E+02  0.00000000000E+00 0. -1.
        -14    1    6    6    0    0  0.28577550523E+02  0.72989750834E+02 -0.44530003142E+02  0.90150437051E+02  0.00000000000E+00 0.  1.
</event>
<event>
12    1  0.8691829E-002  0.2860880E+03  0.7818608E-02  0.1092573E+00
         21   -1    0    0  501  502  0.00000000000E+00  0.00000000000E+00  0.11418700148E+03  0.11418700148E+03  0.00000000000E+00 0.  1.
         21   -1    0    0  502  503 -0.00000000000E+00 -0.00000000000E+00 -0.94836914326E+03  0.94836914326E+03  0.00000000000E+00 0. -1.
         -6    2    1    2    0  503  0.15521650077E+03  0.16810391583E+03 -0.68204046078E+03  0.73961173100E+03  0.17174176505E+03 0.  0.
        -24    2    3    3    0    0  0.17323635285E+02  0.26627546769E+02 -0.20192760941E+03  0.22041962262E+03  0.82467666434E+02 0.  0.
          6    2    1    2  501    0 -0.15521650077E+03 -0.16810391583E+03 -0.15214168099E+03  0.32294441374E+03  0.16969064395E+03 0.  0.
         24    2    5    5    0    0 -0.84497196366E+02 -0.19774723320E+02 -0.42504267792E+02  0.12534577574E+03  0.79838179088E+02 0.  0.
          5    1    5    5  501    0 -0.70719304406E+02 -0.14832919251E+03 -0.10963741320E+03  0.19759863800E+03  0.47000000000E+01 0. -1.
        -11    1    6    6    0    0 -0.14727173776E+00 -0.16295733879E+02  0.15838919387E+02  0.22725404264E+02  0.00000000000E+00 0.  1.
         12    1    6    6    0    0 -0.84349924628E+02 -0.34789894412E+01 -0.58343187179E+02  0.10262037148E+03  0.00000000000E+00 0. -1.
         -5    1    3    3    0  503  0.13789286549E+03  0.14147636906E+03 -0.48011285138E+03  0.51919210839E+03  0.47000000000E+01 0.  1.
         13    1    4    4    0    0  0.25489865281E+02 -0.12608033552E+01 -0.11857843500E+02  0.28141274129E+02  0.00000000000E+00 0. -1.
        -14    1    4    4    0    0 -0.81662299960E+01  0.27888350125E+02 -0.19006976591E+03  0.19227834849E+03  0.00000000000E+00 0.  1.
</event>
<event>
12    1  0.8691829E-002  0.1990398E+03  0.7818608E-02  0.1151978E+00
         21   -1    0    0  501  502  0.00000000000E+00  0.00000000000E+00  0.22943153415E+03  0.22943153415E+03  0.00000000000E+00 0. -1.
         21   -1    0    0  502  503 -0.00000000000E+00 -0.00000000000E+00 -0.21360555330E+03  0.21360555330E+03  0.00000000000E+00 0. -1.
         -6    2    1    2    0  503  0.15653257836E+02 -0.86888814530E+02 -0.95655151049E+02  0.21490363547E+03  0.17099407605E+03 0.  0.
        -24    2    3    3    0    0  0.67046021963E+02 -0.40093646553E+02 -0.89909364414E+02  0.14500293437E+03  0.82701194733E+02 0.  0.
          6    2    1    2  501    0 -0.15653257836E+02  0.86888814530E+02  0.11148113190E+03  0.22813345198E+03  0.17838760768E+03 0.  0.
         24    2    5    5    0    0 -0.42434278836E+02  0.92481613981E+02  0.16809853237E+02  0.12947625004E+03  0.78281614792E+02 0.  0.
          5    1    5    5  501    0  0.26781021000E+02 -0.55927994511E+01  0.94671278659E+02  0.98657201939E+02  0.47000000000E+01 0. -1.
        -11    1    6    6    0    0  0.75527645179E+01  0.67069007777E+02 -0.83635287808E+01  0.68009151368E+02  0.00000000000E+00 0.  1.
         12    1    6    6    0    0 -0.49987043354E+02  0.25412606203E+02  0.25173382018E+02  0.61467098675E+02  0.00000000000E+00 0. -1.
         -5    1    3    3    0  503 -0.51392764126E+02 -0.46795167977E+02 -0.57457866350E+01  0.69900701102E+02  0.47000000000E+01 0.  1.
         13    1    4    4    0    0  0.38000879467E+02 -0.22068381853E+02 -0.10010954054E+03  0.10932977831E+03  0.00000000000E+00 0. -1.
        -14    1    4    4    0    0  0.29045142495E+02 -0.18025264699E+02  0.10200176126E+02  0.35673156057E+02  0.00000000000E+00 0.  1.
</event>
<event>
12    1  0.8691829E-002  0.1877078E+03  0.7818608E-02  0.1161244E+00
         21   -1    0    0  501  502  0.00000000000E+00  0.00000000000E+00  0.40255228296E+02  0.40255228296E+02  0.00000000000E+00 0.  1.
         21   -1    0    0  502  503 -0.00000000000E+00 -0.00000000000E+00 -0.13388081616E+04  0.13388081616E+04  0.00000000000E+00 0.  1.
         -6    2    1    2    0  503  0.62734618562E+02 -0.27936637443E+02 -0.10644868234E+04  0.10809099871E+04  0.17469434738E+03 0.  0.
        -24    2    3    3    0    0 -0.15166308830E+02  0.23731636018E+02 -0.67861318777E+03  0.68384737538E+03  0.79612604116E+02 0.  0.
          6    2    1    2  501    0 -0.62734618562E+02  0.27936637443E+02 -0.23406610989E+03  0.29815340275E+03  0.17144217596E+03 0.  0.
         24    2    5    5    0    0 -0.87066656506E+02 -0.21575975776E+02 -0.11046727921E+03  0.16271962601E+03  0.78921046028E+02 0.  0.
          5    1    5    5  501    0  0.24332037945E+02  0.49512613219E+02 -0.12359883068E+03  0.13543377674E+03  0.47000000000E+01 0. -1.
        -11    1    6    6    0    0 -0.31602838944E+02 -0.36175958258E+02 -0.13223713681E+02  0.49822745696E+02  0.00000000000E+00 0.  1.
         12    1    6    6    0    0 -0.55463817562E+02  0.14599982482E+02 -0.97243565534E+02  0.11289688031E+03  0.00000000000E+00 0. -1.
         -5    1    3    3    0  503  0.77900927392E+02 -0.51668273461E+02 -0.38587363565E+03  0.39706261176E+03  0.47000000000E+01 0.  1.
         13    1    4    4    0    0 -0.43555394777E+02  0.23514932055E+02 -0.28959483580E+03  0.29379447471E+03  0.00000000000E+00 0. -1.
        -14    1    4    4    0    0  0.28389085947E+02  0.21670396360E+00 -0.38901835196E+03  0.39005290068E+03  0.00000000000E+00 0.  1.
</event>
<event>
12    1  0.8691829E-002  0.2097986E+03  0.7818608E-02  0.1144193E+00
         21   -1    0    0  501  502  0.00000000000E+00  0.00000000000E+00  0.20030628016E+03  0.20030628016E+03  0.00000000000E+00 0. -1.
         21   -1    0    0  502  503 -0.00000000000E+00 -0.00000000000E+00 -0.25429015164E+03  0.25429015164E+03  0.00000000000E+00 0. -1.
         -6    2    1    2    0  503 -0.92418568303E+02 -0.75130450417E+02 -0.12532884425E+03  0.24438241125E+03  0.17271267291E+03 0.  0.
        -24    2    3    3    0    0  0.10408052254E+02 -0.31626358606E+01 -0.75637859934E+02  0.10931219193E+03  0.78164823488E+02 0.  0.
          6    2    1    2  501    0  0.92418568303E+02  0.75130450417E+02  0.71344972764E+02  0.21021402055E+03  0.15784186057E+03 0.  0.
         24    2    5    5    0    0  0.87771115276E+02  0.85358800357E+02  0.66494415991E+01  0.14438226746E+03  0.76237330802E+02 0.  0.
          5    1    5    5  501    0  0.46474530266E+01 -0.10228349940E+02  0.64695531165E+02  0.65831753090E+02  0.47000000000E+01 0. -1.
        -13    1    6    6    0    0  0.46195933416E+02  0.21444770882E+02 -0.30712119937E+02  0.59474168959E+02  0.00000000000E+00 0.  1.
         14    1    6    6    0    0  0.41575181860E+02  0.63914029475E+02  0.37361561536E+02  0.84908098500E+02  0.00000000000E+00 0. -1.
         -5    1    3    3    0  503 -0.10282662056E+03 -0.71967814557E+02 -0.49690984312E+02  0.13507021933E+03  0.47000000000E+01 0.  1.
         13    1    4    4    0    0 -0.55928474258E+01 -0.33116771480E+02 -0.65930426585E+02  0.73992037715E+02  0.00000000000E+00 0. -1.
        -14    1    4    4    0    0  0.16000899680E+02  0.29954135619E+02 -0.97074333492E+01  0.35320154211E+02  0.00000000000E+00 0.  1.
</event>
<event>
12    1  0.8691829E-002  0.4150621E+03  0.7818608E-02  0.1038695E+00
         21   -1    0    0  501  502  0.00000000000E+00  0.00000000000E+00  0.13856560111E+04  0.13856560111E+04  0.00000000000E+00 0.  1.
         21   -1    0    0  502  503 -0.00000000000E+00 -0.00000000000E+00 -0.18026697542E+03  0.18026697542E+03  0.00000000000E+00 0. -1.
         -6    2    1    2    0  503 -0.82524914394E+00  0.37762461109E+03  0.10389226673E+04  0.11187232764E+04  0.17198962928E+03 0.  0.
        -24    2    3    3    0    0 -0.11824367936E+02  0.88408147474E+02  0.39679027791E+03  0.41436311359E+03  0.79362768621E+02 0.  0.
          6    2    1    2  501    0  0.82524914394E+00 -0.37762461109E+03  0.16646636839E+03  0.44719971013E+03  0.17226578591E+03 0.  0.
         24    2    5    5    0    0  0.52665388874E+01 -0.20222113912E+03  0.15886828109E+03  0.27151270445E+03  0.86941890954E+02 0.  0.
          5    1    5    5  501    0 -0.44412897434E+01 -0.17540347197E+03  0.75980873025E+01  0.17568700568E+03  0.47000000000E+01 0. -1.
        -11    1    6    6    0    0  0.11514486865E+02 -0.12106179966E+02  0.49168290520E+02  0.51929411644E+02  0.00000000000E+00 0.  1.
         12    1    6    6    0    0 -0.62479479772E+01 -0.19011495916E+03  0.10969999057E+03  0.21958329281E+03  0.00000000000E+00 0. -1.
         -5    1    3    3    0  503  0.10999118792E+02  0.28921646362E+03  0.64213238938E+03  0.70436016279E+03  0.47000000000E+01 0.  1.
         11    1    4    4    0    0  0.12616568288E+02  0.68600473705E+02  0.35642754968E+03  0.36318838219E+03  0.00000000000E+00 0. -1.
        -12    1    4    4    0    0 -0.24440936223E+02  0.19807673768E+02  0.40362728233E+02  0.51174731401E+02  0.00000000000E+00 0.  1.
</event>
<event>
12    1  0.8691829E-002  0.2525204E+03  0.7818608E-02  0.1111743E+00
         21   -1    0    0  501  502  0.00000000000E+00  0.00000000000E+00  0.10286012401E+04  0.10286012401E+04  0.00000000000E+00 0. -1.
         21   -1    0    0  502  503 -0.00000000000E+00 -0.00000000000E+00 -0.92533986785E+02  0.92533986785E+02  0.00000000000E+00 0.  1.
         -6    2    1    2    0  503 -0.94981629132E+02 -0.15819228366E+03  0.14573963533E+03  0.29144595356E+03  0.17220451231E+03 0.  0.
        -24    2    3    3    0    0 -0.10954075256E+01 -0.27765757923E+02  0.84792396426E+02  0.11950888033E+03  0.79501476431E+02 0.  0.
          6    2    1    2  501    0  0.94981629132E+02  0.15819228366E+03  0.79032761798E+03  0.82968927331E+03  0.17239558589E+03 0.  0.
         24    2    5    5    0    0 -0.19770888022E+02  0.82109109561E+02  0.27989296739E+03  0.30099048186E+03  0.71570965376E+02 0.  0.
          5    1    5    5  501    0  0.11475251715E+03  0.76083174096E+02  0.51043465058E+03  0.52869879146E+03  0.47000000000E+01 0. -1.
        -13    1    6    6    0    0 -0.86262217432E+01  0.92879258280E+02  0.21667489739E+03  0.23590035921E+03  0.00000000000E+00 0.  1.
         14    1    6    6    0    0 -0.11144666278E+02 -0.10770148719E+02  0.63218070008E+02  0.65090122641E+02  0.00000000000E+00 0. -1.
         -5    1    3    3    0  503 -0.93886221607E+02 -0.13042652573E+03  0.60947238901E+02  0.17193707323E+03  0.47000000000E+01 0.  1.
         13    1    4    4    0    0 -0.22815926409E+02 -0.23630548766E+02  0.90831390774E+02  0.96588357905E+02  0.00000000000E+00 0. -1.
        -14    1    4    4    0    0  0.21720518884E+02 -0.41352091568E+01 -0.60389943482E+01  0.22920522422E+02  0.00000000000E+00 0.  1.
</event>
<event>
12    1  0.8691829E-002  0.2276779E+03  0.7818608E-02  0.1128606E+00
         21   -1    0    0  501  502  0.00000000000E+00  0.00000000000E+00  0.77474380734E+03  0.77474380734E+03  0.00000000000E+00 0.  1.
         21   -1    0    0  502  503 -0.00000000000E+00 -0.00000000000E+00 -0.79132113475E+02  0.79132113475E+02  0.00000000000E+00 0.  1.
         -6    2    1    2    0  503 -0.13853211886E+03  0.53172706008E+02  0.17759431500E+03  0.28875072924E+03  0.17268108842E+03 0.  0.
        -24    2    3    3    0    0 -0.10447394668E+02  0.38419291788E+01  0.31137159425E+02  0.87974708429E+02  0.81523727533E+02 0.  0.
          6    2    1    2  501    0  0.13853211886E+03 -0.53172706008E+02  0.51801737887E+03  0.56512519158E+03  0.17031145801E+03 0.  0.
         24    2    5    5    0    0  0.11976541883E+03  0.46949357949E+00  0.46708713884E+03  0.48866831513E+03  0.79261282941E+02 0.  0.
          5    1    5    5  501    0  0.18766700025E+02 -0.53642199588E+02  0.50930240029E+02  0.76456876446E+02  0.47000000000E+01 0. -1.
        -11    1    6    6    0    0  0.64859154198E+02 -0.25711129679E+02  0.34822395884E+03  0.35514461503E+03  0.00000000000E+00 0.  1.
         12    1    6    6    0    0  0.54906264636E+02  0.26180623259E+02  0.11886318000E+03  0.13352370011E+03  0.00000000000E+00 0. -1.
         -5    1    3    3    0  503 -0.12808472419E+03  0.49330776829E+02  0.14645715558E+03  0.20077602081E+03  0.47000000000E+01 0.  1.
         13    1    4    4    0    0 -0.18148431077E+02 -0.34963611452E+02  0.31601622701E+01  0.39519695114E+02  0.00000000000E+00 0. -1.
        -14    1    4    4    0    0  0.77010364091E+01  0.38805540631E+02  0.27976997155E+02  0.48455013314E+02  0.00000000000E+00 0.  1.
</event>
<event>
12    1  0.8691829E-002  0.2478733E+03  0.7818608E-02  0.1114772E+00
         21   -1    0    0  501  502  0.00000000000E+00  0.00000000000E+00  0.11768921487E+04  0.11768921487E+04  0.00000000000E+00 0.  1.
         21   -1    0    0  502  503 -0.00000000000E+00 -0.00000000000E+00 -0.53179080536E+02  0.53179080536E+02  0.00000000000E+00 0.  1.
         -6    2    1    2    0  503 -0.17714136732E+03  0.23789426299E+02  0.65052124734E+03  0.69588805373E+03  0.17069648288E+03 0.  0.
        -24    2    3    3    0    0 -0.10600543942E+03  0.15434022140E+02  0.21034730512E+03  0.24990002427E+03  0.82028477569E+02 0.  0.
          6    2    1    2  501    0  0.17714136732E+03 -0.23789426299E+02  0.47319182082E+03  0.53418317549E+03  0.17174447553E+03 0.  0.
         24    2    5    5    0    0  0.19400494103E+03 -0.37299125642E+02  0.36686818020E+03  0.42558437878E+03  0.86606350223E+02 0.  0.
          5    1    5    5  501    0 -0.16863573708E+02  0.13509699343E+02  0.10632364061E+03  0.10859879672E+03  0.47000000000E+01 0. -1.
        -13    1    6    6    0    0  0.68769457271E+02 -0.56478906254E+02  0.15440963991E+03  0.17821740095E+03  0.00000000000E+00 0.  1.
         14    1    6    6    0    0  0.12523548376E+03  0.19179780612E+02  0.21245854029E+03  0.24736697783E+03  0.00000000000E+00 0. -1.
         -5    1    3    3    0  503 -0.71135927902E+02  0.83554041595E+01  0.44017394222E+03  0.44598802947E+03  0.47000000000E+01 0.  1.
         13    1    4    4    0    0 -0.22050333313E+01 -0.10398775949E+01 -0.75750772768E+01  0.79577203491E+01  0.00000000000E+00 0. -1.
        -14    1    4    4    0    0 -0.10380040609E+03  0.16473899735E+02  0.21792238239E+03  0.24194230392E+03  0.00000000000E+00 0.  1.
</event>
<event>
12    1  0.8691829E-002  0.2283201E+03  0.7818608E-02  0.1127882E+00
         21   -1    0    0  501  502  0.00000000000E+00  0.00000000000E+00  0.16548035244E+04  0.16548035244E+04  0.00000000000E+00 0.  1.
         21   -1    0    0  502  503 -0.00000000000E+00 -0.00000000000E+00 -0.78030097880E+02  0.78030097880E+02  0.00000000000E+00 0. -1.
         -6    2    1    2    0  503 -0.61373484632E+02  0.13652409129E+03  0.11925693230E+03  0.25758934376E+03  0.17240801025E+03 0.  0.
        -24    2    3    3    0    0  0.17573438558E+02  0.47554095847E+02  0.89061151632E+01  0.95269691179E+02  0.80167184031E+02 0.  0.
          6    2    1    2  501    0  0.61373484632E+02 -0.13652409129E+03  0.14575164942E+04  0.14752442785E+04  0.17200528560E+03 0.  0.
         24    2    5    5    0    0  0.57030238931E+02 -0.15719868537E+02  0.85407876845E+03  0.85979996512E+03  0.79409538994E+02 0.  0.
          5    1    5    5  501    0  0.43432457016E+01 -0.12080422275E+03  0.60343772575E+03  0.61544431339E+03  0.47000000000E+01 0. -1.
        -11    1    6    6    0    0 -0.60272542617E+01  0.12073566884E+02  0.30605772108E+02  0.33448648666E+02  0.00000000000E+00 0.  1.
         12    1    6    6    0    0  0.63057493192E+02 -0.27793435422E+02  0.82347299634E+03  0.82635131646E+03  0.00000000000E+00 0. -1.
         -5    1    3    3    0  503 -0.78946923190E+02  0.88969995445E+02  0.11035081714E+03  0.16231965258E+03  0.47000000000E+01 0.  1.
         11    1    4    4    0    0 -0.28079102998E+02  0.42879741927E+01 -0.91322404378E+01  0.29836564200E+02  0.00000000000E+00 0. -1.
        -12    1    4    4    0    0  0.45652541556E+02  0.43266121654E+02  0.18038355601E+02  0.65433126979E+02  0.00000000000E+00 0.  1.
</event>
<event>
12    1  0.8691829E-002  0.1722432E+03  0.7818608E-02  0.1176985E+00
         21   -1    0    0  501  502  0.00000000000E+00  0.00000000000E+00  0.68522059425E+02  0.68522059425E+02  0.00000000000E+00 0. -1.
         21   -1    0    0  502  503 -0.00000000000E+00 -0.00000000000E+00 -0.50339267821E+03  0.50339267821E+03  0.00000000000E+00 0. -1.
         -6    2    1    2    0  503 -0.23973826760E+01  0.10810674732E+02 -0.33149471703E+03  0.37103097702E+03  0.16629077053E+03 0.  0.
        -24    2    3    3    0    0  0.42074579731E+02  0.51510751727E+02 -0.17677633284E+03  0.20491619708E+03  0.79480489261E+02 0.  0.
          6    2    1    2  501    0  0.23973826760E+01 -0.10810674732E+02 -0.10337590176E+03  0.20088376061E+03  0.17188685256E+03 0.  0.
         24    2    5    5    0    0 -0.11653469466E+02  0.36976437303E+02 -0.11932406977E+03  0.14837215632E+03  0.79202290858E+02 0.  0.
          5    1    5    5  501    0  0.14050852142E+02 -0.47787112034E+02  0.15948168015E+02  0.52511604294E+02  0.47000000000E+01 0. -1.
        -11    1    6    6    0    0 -0.61774486257E+01 -0.24937812751E+02 -0.40962391283E+02  0.48352589134E+02  0.00000000000E+00 0.  1.
         12    1    6    6    0    0 -0.54760208402E+01  0.61914250054E+02 -0.78361678488E+02  0.10001956718E+03  0.00000000000E+00 0. -1.
         -5    1    3    3    0  503 -0.44471962407E+02 -0.40700076995E+02 -0.15471838419E+03  0.16611477994E+03  0.47000000000E+01 0.  1.
         13    1    4    4    0    0  0.43615104149E+01  0.60720888320E+02 -0.79146008820E+02  0.99850587197E+02  0.00000000000E+00 0. -1.
        -14    1    4    4    0    0  0.37713069316E+02 -0.92101365931E+01 -0.97630324015E+02  0.10506560989E+03  0.00000000000E+00 0.  1.
</event>
<event>
12    1  0.8691829E-002  0.2565385E+03  0.7818608E-02  0.1109750E+00
         21   -1    0    0  503  502  0.00000000000E+00  0.00000000000E+00  0.77899585702E+02  0.77899585702E+02  0.00000000000E+00 0.  1.
         21   -1    0    0  501  503 -0.00000000000E+00 -0.00000000000E+00 -0.11093064808E+04  0.11093064808E+04  0.00000000000E+00 0.  1.
          6    2    1    2  501    0  0.18972482695E+03 -0.11795114682E+02 -0.81394854028E+03  0.85341914873E+03  0.17227124689E+03 0.  0.
         24    2    3    3    0    0  0.82036698286E+02  0.47205913581E+02 -0.53095000385E+03  0.54489343503E+03  0.77733717341E+02 0.  0.
         -6    2    1    2    0  502 -0.18972482695E+03  0.11795114682E+02 -0.21745835483E+03  0.33378691778E+03  0.16730491835E+03 0.  0.
        -24    2    5    5    0    0 -0.40906864489E+02 -0.20671014848E+02 -0.46002771511E+02  0.10439654621E+03  0.81741797488E+02 0.  0.
          5    1    3    3  501    0  0.10768812867E+03 -0.59001028263E+02 -0.28299853643E+03  0.30852571370E+03  0.47000000000E+01 0. -1.
        -11    1    4    4    0    0  0.82524543371E+02  0.28077061830E+02 -0.50598410509E+03  0.51343795756E+03  0.00000000000E+00 0.  1.
         12    1    4    4    0    0 -0.48784508502E+00  0.19128851751E+02 -0.24965898756E+02  0.31455477470E+02  0.00000000000E+00 0. -1.
         -5    1    5    5    0  502 -0.14881796246E+03  0.32466129530E+02 -0.17145558332E+03  0.22939037157E+03  0.47000000000E+01 0.  1.
         13    1    6    6    0    0  0.95136323071E+01 -0.37193777764E+02 -0.30753119282E+02  0.49189842952E+02  0.00000000000E+00 0. -1.
        -14    1    6    6    0    0 -0.50420496796E+02  0.16522762916E+02 -0.15249652229E+02  0.55206703258E+02  0.00000000000E+00 0.  1.
</event>
<event>
12    1  0.8691829E-002  0.1889927E+03  0.7818608E-02  0.1159663E+00
         21   -1    0    0  501  502  0.00000000000E+00  0.00000000000E+00  0.65405013606E+02  0.65405013606E+02  0.00000000000E+00 0. -1.
         21   -1    0    0  502  503 -0.00000000000E+00 -0.00000000000E+00 -0.66172345711E+03  0.66172345711E+03  0.00000000000E+00 0. -1.
         -6    2    1    2    0  503  0.69607619380E+02  0.28173950565E+02 -0.14462221525E+03  0.23797859386E+03  0.17343365828E+03 0.  0.
        -24    2    3    3    0    0  0.99576022021E+02  0.28400562118E+02 -0.53483848464E+02  0.14192419047E+03  0.80993689287E+02 0.  0.
          6    2    1    2  501    0 -0.69607619380E+02 -0.28173950565E+02 -0.45169622825E+03  0.48914987686E+03  0.17204396893E+03 0.  0.
         24    2    5    5    0    0 -0.37095488641E+02 -0.23082225376E+02 -0.99091441542E+02  0.13498156952E+03  0.80573233255E+02 0.  0.
          5    1    5    5  501    0 -0.32512130739E+02 -0.50917251888E+01 -0.35260478671E+03  0.35416830734E+03  0.47000000000E+01 0. -1.
        -11    1    6    6    0    0 -0.12114043224E+02 -0.48433753478E+02 -0.32789360998E+02  0.59730400249E+02  0.00000000000E+00 0.  1.
         12    1    6    6    0    0 -0.24981445417E+02  0.25351528102E+02 -0.66302080543E+02  0.75251169271E+02  0.00000000000E+00 0. -1.
         -5    1    3    3    0  503 -0.29968402641E+02 -0.22661155261E+00 -0.91138366783E+02  0.96054403384E+02  0.47000000000E+01 0.  1.
         13    1    4    4    0    0 -0.24227625894E+01  0.92387785565E+01  0.14855932670E+02  0.17661357345E+02  0.00000000000E+00 0. -1.
        -14    1    4    4    0    0  0.10199878461E+03  0.19161783561E+02 -0.68339781134E+02  0.12426283313E+03  0.00000000000E+00 0.  1.
</event>
<event>
12    1  0.8691829E-002  0.1770411E+03  0.7818608E-02  0.1171017E+00
         21   -1    0    0  501  502  0.00000000000E+00  0.00000000000E+00  0.11382670380E+03  0.11382670380E+03  0.00000000000E+00 0. -1.
         21   -1    0    0  502  503 -0.00000000000E+00 -0.00000000000E+00 -0.35065940388E+03  0.35065940388E+03  0.00000000000E+00 0. -1.
         -6    2    1    2    0  503  0.34722649771E+02  0.24338332631E+02 -0.22711536254E+03  0.28717857031E+03  0.17056414189E+03 0.  0.
        -24    2    3    3    0    0  0.87851982662E+02  0.31919641986E+01 -0.15510317871E+03  0.19510392922E+03  0.79248896883E+02 0.  0.
          6    2    1    2  501    0 -0.34722649771E+02 -0.24338332631E+02 -0.97173375388E+01  0.17730753737E+03  0.17188810115E+03 0.  0.
         24    2    5    5    0    0  0.13649012478E+02  0.13522538120E+02 -0.56141758678E+02  0.10016753400E+03  0.80699957997E+02 0.  0.
          5    1    5    5  501    0 -0.48371662248E+02 -0.37860870751E+02  0.46424421140E+02  0.77140003376E+02  0.47000000000E+01 0. -1.
        -11    1    6    6    0    0  0.29471451419E+02  0.29520621967E+02 -0.22583335211E+01  0.41774796713E+02  0.00000000000E+00 0.  1.
         12    1    6    6    0    0 -0.15822438942E+02 -0.15998083847E+02 -0.53883425157E+02  0.58392737284E+02  0.00000000000E+00 0. -1.
         -5    1    3    3    0  503 -0.53129332891E+02  0.21146368432E+02 -0.72012183829E+02  0.92074641086E+02  0.47000000000E+01 0.  1.
         13    1    4    4    0    0  0.91918054116E+01  0.26909529466E+02 -0.75623478540E+02  0.80793084910E+02  0.00000000000E+00 0. -1.
        -14    1    4    4    0    0  0.78660177250E+02 -0.23717565268E+02 -0.79479700174E+02  0.11431084431E+03  0.00000000000E+00 0.  1.
</event>
<event>
12    1  0.8691829E-002  0.2092846E+03  0.7818608E-02  0.1142143E+00
         21   -1    0    0  501  502  0.00000000000E+00  0.00000000000E+00  0.56866021618E+03  0.56866021618E+03  0.00000000000E+00 0. -1.
         21   -1    0    0  502  503 -0.00000000000E+00 -0.00000000000E+00 -0.78987221967E+02  0.78987221967E+02  0.00000000000E+00 0. -1.
         -6    2    1    2    0  503 -0.12048119774E+02  0.11832699950E+03  0.19351552519E+03  0.28500532824E+03  0.17214337813E+03 0.  0.
        -24    2    3    3    0    0 -0.38617250282E+02  0.10696993739E+03  0.61013662940E+02  0.14930810993E+03  0.75075862315E+02 0.  0.
          6    2    1    2  501    0  0.12048119774E+02 -0.11832699950E+03  0.29615746902E+03  0.36264210990E+03  0.17220225730E+03 0.  0.
         24    2    5    5    0    0 -0.67779289949E+01 -0.10034305032E+03  0.30830783486E+03  0.33352915865E+03  0.77931447854E+02 0.  0.
          5    1    5    5  501    0  0.18826048769E+02 -0.17983949185E+02 -0.12150365844E+02  0.29112951253E+02  0.47000000000E+01 0. -1.
        -11    1    6    6    0    0  0.11535416370E+02  0.98069991435E+01  0.28686842298E+02  0.32437293106E+02  0.00000000000E+00 0.  1.
         12    1    6    6    0    0 -0.18313345365E+02 -0.11015004946E+03  0.27962099256E+03  0.30109186554E+03  0.00000000000E+00 0. -1.
         -5    1    3    3    0  503  0.26569130507E+02  0.11357062112E+02  0.13250186225E+03  0.13569721830E+03  0.47000000000E+01 0.  1.
         13    1    4    4    0    0  0.17153389232E+02  0.15642273658E+02  0.29924938000E+02  0.37873756107E+02  0.00000000000E+00 0. -1.
        -14    1    4    4    0    0 -0.55770639514E+02  0.91327663732E+02  0.31088724940E+02  0.11143435383E+03  0.00000000000E+00 0.  1.
</event>
<event>
12    1  0.8691829E-002  0.2267565E+03  0.7818608E-02  0.1130080E+00
         21   -1    0    0  503  502  0.00000000000E+00  0.00000000000E+00  0.30428995821E+03  0.30428995821E+03  0.00000000000E+00 0. -1.
         21   -1    0    0  501  503 -0.00000000000E+00 -0.00000000000E+00 -0.27021596182E+03  0.27021596182E+03  0.00000000000E+00 0.  1.
          6    2    1    2  501    0 -0.14021440687E+03 -0.34455538591E+02 -0.16289047447E+03  0.27415025093E+03  0.16666670147E+03 0.  0.
         24    2    3    3    0    0 -0.70169861946E+02  0.22032058926E+02 -0.14548620786E+03  0.18237833016E+03  0.81770394926E+02 0.  0.
         -6    2    1    2    0  502  0.14021440687E+03  0.34455538591E+02  0.19696447086E+03  0.30035566909E+03  0.17484639299E+03 0.  0.
        -24    2    5    5    0    0  0.17325976123E+02 -0.84242443287E+01  0.13422996317E+03  0.15579443415E+03  0.76701143125E+02 0.  0.
          5    1    3    3  501    0 -0.70044544922E+02 -0.56487597518E+02 -0.17404266609E+02  0.91771920776E+02  0.47000000000E+01 0. -1.
        -11    1    4    4    0    0 -0.47040240878E+02 -0.20332410842E+02 -0.11333705771E+03  0.12438440353E+03  0.00000000000E+00 0.  1.
         12    1    4    4    0    0 -0.23129621068E+02  0.42364469768E+02 -0.32149150155E+02  0.57993926623E+02  0.00000000000E+00 0. -1.
         -5    1    5    5    0  502  0.12288843075E+03  0.42879782920E+02  0.62734507687E+02  0.14456123495E+03  0.47000000000E+01 0.  1.
         13    1    6    6    0    0  0.45299936156E+02 -0.18185037445E+02  0.92874342099E+02  0.10492103327E+03  0.00000000000E+00 0. -1.
        -14    1    6    6    0    0 -0.27973960033E+02  0.97607931165E+01  0.41355621074E+02  0.50873400875E+02  0.00000000000E+00 0.  1.
</event>
<event>
12    1  0.8691829E-002  0.2272689E+03  0.7818608E-02  0.1128634E+00
         21   -1    0    0  503  502  0.00000000000E+00  0.00000000000E+00  0.11602917722E+03  0.11602917722E+03  0.00000000000E+00 0. -1.
         21   -1    0    0  501  503 -0.00000000000E+00 -0.00000000000E+00 -0.59443824917E+03  0.59443824917E+03  0.00000000000E+00 0.  1.
          6    2    1    2  501    0  0.13457011000E+03 -0.59124354796E+02 -0.60691817680E+02  0.23492684937E+03  0.17292288451E+03 0.  0.
         24    2    3    3    0    0  0.39733279254E+02 -0.86507318405E+02 -0.16473639388E+02  0.12666241175E+03  0.81912979053E+02 0.  0.
         -6    2    1    2    0  502 -0.13457011000E+03  0.59124354796E+02 -0.41771725427E+03  0.47554057702E+03  0.17333877822E+03 0.  0.
        -24    2    5    5    0    0 -0.16871990345E+02 -0.59085994067E+01 -0.97785578319E+02  0.12846637777E+03  0.81375765959E+02 0.  0.
          5    1    3    3  501    0  0.94836830746E+02  0.27382963609E+02 -0.44218178292E+02  0.10826443762E+03  0.47000000000E+01 0. -1.
        -11    1    4    4    0    0 -0.15542040184E+02 -0.35625083187E+02 -0.31519337430E+02  0.50041684596E+02  0.00000000000E+00 0.  1.
         12    1    4    4    0    0  0.55275319439E+02 -0.50882235218E+02  0.15045698041E+02  0.76620727152E+02  0.00000000000E+00 0. -1.
         -5    1    5    5    0  502 -0.11769811965E+03  0.65032954202E+02 -0.31993167596E+03  0.34707419925E+03  0.47000000000E+01 0.  1.
         13    1    6    6    0    0 -0.33296530314E+01 -0.18647569710E+02  0.83596562813E+01  0.20705127349E+02  0.00000000000E+00 0. -1.
        -14    1    6    6    0    0 -0.13542337314E+02  0.12738970303E+02 -0.10614523460E+03  0.10776125042E+03  0.00000000000E+00 0.  1.
</event>
<event>
12    1  0.8691829E-002  0.2591513E+03  0.7818608E-02  0.1110122E+00
         21   -1    0    0  503  502  0.00000000000E+00  0.00000000000E+00  0.92751975435E+02  0.92751975435E+02  0.00000000000E+00 0. -1.
         21   -1    0    0  501  503 -0.00000000000E+00 -0.00000000000E+00 -0.70730128853E+03  0.70730128853E+03  0.00000000000E+00 0.  1.
          6    2    1    2  501    0 -0.13073410505E+03  0.11220198200E+03 -0.37573638741E+03  0.44764582908E+03  0.17183790175E+03 0.  0.
         24    2    3    3    0    0 -0.92442154818E+01  0.70404292285E+02 -0.22877263413E+03  0.25238376181E+03  0.79488522498E+02 0.  0.
         -6    2    1    2    0  502  0.13073410505E+03 -0.11220198200E+03 -0.23881292568E+03  0.35240743489E+03  0.19359415203E+03 0.  0.
        -24    2    5    5    0    0  0.14141721534E+02 -0.78871418028E+02 -0.37766212654E+02  0.11757434265E+03  0.77309445489E+02 0.  0.
          5    1    3    3  501    0 -0.12148988957E+03  0.41797689714E+02 -0.14696375329E+03  0.19526206727E+03  0.47000000000E+01 0. -1.
        -11    1    4    4    0    0  0.11409532885E+02 -0.20637090798E+01 -0.11705811494E+03  0.11763094239E+03  0.00000000000E+00 0.  1.
         12    1    4    4    0    0 -0.20653748367E+02  0.72468001365E+02 -0.11171451919E+03  0.13475281942E+03  0.00000000000E+00 0. -1.
         -5    1    5    5    0  502  0.11659238352E+03 -0.33330563971E+02 -0.20104671303E+03  0.23483309224E+03  0.47000000000E+01 0.  1.
         11    1    6    6    0    0  0.14389729444E+02 -0.84625611791E+02 -0.53276358888E+02  0.10102934673E+03  0.00000000000E+00 0. -1.
        -12    1    6    6    0    0 -0.24800791034E+00  0.57541937630E+01  0.15510146234E+02  0.16544995920E+02  0.00000000000E+00 0.  1.
</event>
<event>
12    1  0.8691829E-002  0.1852462E+03  0.7818608E-02  0.1163273E+00
         21   -1    0    0  503  502  0.00000000000E+00  0.00000000000E+00  0.47778412415E+02  0.47778412415E+02  0.00000000000E+00 0. -1.
         21   -1    0    0  501  503 -0.00000000000E+00 -0.00000000000E+00 -0.85707791847E+03  0.85707791847E+03  0.00000000000E+00 0. -1.
          6    2    1    2  501    0 -0.53227737350E+02 -0.40737933424E+02 -0.58981839554E+03  0.61764889142E+03  0.17062134128E+03 0.  0.
         24    2    3    3    0    0 -0.22153936136E+02 -0.89216631493E+02 -0.31048374408E+03  0.33240215121E+03  0.75104131516E+02 0.  0.
         -6    2    1    2    0  502  0.53227737350E+02  0.40737933424E+02 -0.21948111051E+03  0.28720743947E+03  0.17269448217E+03 0.  0.
        -24    2    5    5    0    0  0.64235911418E+02 -0.27327605855E+02 -0.93344621106E+02  0.14337906434E+03  0.83494235989E+02 0.  0.
          5    1    3    3  501    0 -0.31073801214E+02  0.48478698069E+02 -0.27933465146E+03  0.28524674020E+03  0.47000000000E+01 0. -1.
        -11    1    4    4    0    0 -0.24336453845E+02 -0.52486556100E+02 -0.78485670681E+02  0.97504369436E+02  0.00000000000E+00 0.  1.
         12    1    4    4    0    0  0.21825177084E+01 -0.36730075393E+02 -0.23199807340E+03  0.23489778178E+03  0.00000000000E+00 0. -1.
         -5    1    5    5    0  502 -0.11008174068E+02  0.68065539279E+02 -0.12613648940E+03  0.14382837513E+03  0.47000000000E+01 0.  1.
         13    1    6    6    0    0  0.38670204765E+02  0.49102436710E+01 -0.94493883987E+02  0.10221834151E+03  0.00000000000E+00 0. -1.
        -14    1    6    6    0    0  0.25565706653E+02 -0.32237849526E+02  0.11492628813E+01  0.41160722830E+02  0.00000000000E+00 0.  1.
</event>
<event>
12    1  0.8691829E-002  0.2314842E+03  0.7818608E-02  0.1125915E+00
         21   -1    0    0  503  502  0.00000000000E+00  0.00000000000E+00  0.55352261758E+02  0.55352261758E+02  0.00000000000E+00 0.  1.
         21   -1    0    0  501  503 -0.00000000000E+00 -0.00000000000E+00 -0.96255083495E+03  0.96255083495E+03  0.00000000000E+00 0.  1.
          6    2    1    2  501    0 -0.18404695333E+02  0.15505652934E+03 -0.43222485628E+03  0.49030934962E+03  0.17089081847E+03 0.  0.
         24    2    3    3    0    0 -0.67968162201E+02  0.94531064759E+02 -0.34632178058E+03  0.37402823539E+03  0.80015947731E+02 0.  0.
         -6    2    1    2    0  502  0.18404695333E+02 -0.15505652934E+03 -0.47497371691E+03  0.52759374708E+03  0.16844545142E+03 0.  0.
        -24    2    5    5    0    0  0.44160003426E+02 -0.48409878138E+02 -0.32801611434E+03  0.34413947196E+03  0.80893650490E+02 0.  0.
          5    1    3    3  501    0  0.49563466867E+02  0.60525464586E+02 -0.85903075702E+02  0.11628111423E+03  0.47000000000E+01 0. -1.
        -13    1    4    4    0    0  0.13678822491E+02  0.41412679307E+02 -0.11774022322E+03  0.12555827474E+03  0.00000000000E+00 0.  1.
         14    1    4    4    0    0 -0.81646984691E+02  0.53118385452E+02 -0.22858155735E+03  0.24846996065E+03  0.00000000000E+00 0. -1.
         -5    1    5    5    0  502 -0.25755308092E+02 -0.10664665121E+03 -0.14695760257E+03  0.18345427513E+03  0.47000000000E+01 0.  1.
         11    1    6    6    0    0  0.99833354097E+01 -0.48628489941E+02 -0.28453928819E+03  0.28883733059E+03  0.00000000000E+00 0. -1.
        -12    1    6    6    0    0  0.34176668016E+02  0.21861180300E+00 -0.43476826155E+02  0.55302141372E+02  0.00000000000E+00 0.  1.
</event>
<event>
12    1  0.8691829E-002  0.2102754E+03  0.7818608E-02  0.1141508E+00
         21   -1    0    0  503  502  0.00000000000E+00  0.00000000000E+00  0.16664738590E+03  0.16664738590E+03  0.00000000000E+00 0.  1.
         21   -1    0    0  501  503 -0.00000000000E+00 -0.00000000000E+00 -0.38729210883E+03  0.38729210883E+03  0.00000000000E+00 0.  1.
          6    2    1    2  501    0 -0.99378326333E+02  0.66597701232E+02 -0.26625402351E+03  0.33877459057E+03  0.17194683081E+03 0.  0.
         24    2    3    3    0    0 -0.10862622253E+03  0.18886850012E+02 -0.11328628878E+03  0.17820352600E+03  0.82257790695E+02 0.  0.
         -6    2    1    2    0  502  0.99378326333E+02 -0.66597701232E+02  0.45609300587E+02  0.21516490415E+03  0.17292895109E+03 0.  0.
        -24    2    5    5    0    0  0.91965313695E+02  0.17293314316E+02  0.22317320658E+02  0.12765912391E+03  0.83917289479E+02 0.  0.
          5    1    3    3  501    0  0.92478961927E+01  0.47710851220E+02 -0.15296773474E+03  0.16057106458E+03  0.47000000000E+01 0. -1.
        -13    1    4    4    0    0 -0.11383542657E+03  0.36190025725E+02 -0.99826387400E+02  0.15567122382E+03  0.00000000000E+00 0.  1.
         14    1    4    4    0    0  0.52092040415E+01 -0.17303175713E+02 -0.13459901376E+02  0.22532302181E+02  0.00000000000E+00 0. -1.
         -5    1    5    5    0  502  0.74130126382E+01 -0.83891015549E+02  0.23291979930E+02  0.87505780239E+02  0.47000000000E+01 0.  1.
         13    1    6    6    0    0  0.71488212326E+02  0.38525054953E+02  0.42752851759E+02  0.91774455565E+02  0.00000000000E+00 0. -1.
        -14    1    6    6    0    0  0.20477101368E+02 -0.21231740636E+02 -0.20435531102E+02  0.35884668346E+02  0.00000000000E+00 0.  1.
</event>
<event>
12    1  0.8691829E-002  0.1832122E+03  0.7818608E-02  0.1165160E+00
         21   -1    0    0  503  502  0.00000000000E+00  0.00000000000E+00  0.52918076533E+02  0.52918076533E+02  0.00000000000E+00 0.  1.
         21   -1    0    0  501  503 -0.00000000000E+00 -0.00000000000E+00 -0.67800920167E+03  0.67800920167E+03  0.00000000000E+00 0.  1.
          6    2    1    2  501    0 -0.54201652314E+02 -0.33793754428E+02 -0.41029602114E+03  0.44860895211E+03  0.16978613017E+03 0.  0.
         24    2    3    3    0    0 -0.94506468349E+02 -0.41896583423E+02 -0.36343718250E+03  0.38609515530E+03  0.79347886275E+02 0.  0.
         -6    2    1    2    0  502  0.54201652314E+02  0.33793754428E+02 -0.21479510400E+03  0.28231832610E+03  0.17171739456E+03 0.  0.
        -24    2    5    5    0    0  0.80783986084E+02 -0.87793795442E+01 -0.19918663111E+03  0.22954705900E+03  0.80083758476E+02 0.  0.
          5    1    3    3  501    0  0.40304816035E+02  0.81028289950E+01 -0.46858838635E+02  0.62513796810E+02  0.47000000000E+01 0. -1.
        -11    1    4    4    0    0 -0.35509679400E+02  0.17508116277E+02 -0.18223511826E+03  0.18648621878E+03  0.00000000000E+00 0.  1.
         12    1    4    4    0    0 -0.58996788949E+02 -0.59404699700E+02 -0.18120206424E+03  0.19960893652E+03  0.00000000000E+00 0. -1.
         -5    1    5    5    0  502 -0.26582333769E+02  0.42573133972E+02 -0.15608472893E+02  0.52771267096E+02  0.47000000000E+01 0.  1.
         13    1    6    6    0    0  0.17350327119E+02  0.24518457206E+02 -0.11570006804E+03  0.11953532674E+03  0.00000000000E+00 0. -1.
        -14    1    6    6    0    0  0.63433658965E+02 -0.33297836750E+02 -0.83486563068E+02  0.11001173226E+03  0.00000000000E+00 0.  1.
</event>
<event>
12    1  0.8691829E-002  0.1750676E+03  0.7818608E-02  0.1174199E+00
         21   -1    0    0  501  502  0.00000000000E+00  0.00000000000E+00  0.37001301658E+02  0.37001301658E+02  0.00000000000E+00 0. -1.
         21   -1    0    0  502  503 -0.00000000000E+00 -0.00000000000E+00 -0.10653235287E+04  0.10653235287E+04  0.00000000000E+00 0. -1.
         -6    2    1    2    0  503 -0.19393033292E+02  0.28238729139E+02 -0.79585818335E+03  0.81488582537E+03  0.17168326887E+03 0.  0.
        -24    2    3    3    0    0  0.34032937837E+02 -0.22452124145E+02 -0.28725727454E+03  0.30095891282E+03  0.79982414888E+02 0.  0.
          6    2    1    2  501    0  0.19393033292E+02 -0.28238729139E+02 -0.23246404373E+03  0.28743900504E+03  0.16555402267E+03 0.  0.
         24    2    5    5    0    0  0.17991870146E+02  0.20814835145E+02 -0.22082991057E+03  0.23678667556E+03  0.80901888527E+02 0.  0.
          5    1    5    5  501    0  0.14011631460E+01 -0.49053564284E+02 -0.11634133167E+02  0.50652329479E+02  0.47000000000E+01 0. -1.
        -13    1    6    6    0    0 -0.21473160860E+02  0.32903125275E+01 -0.16389850624E+03  0.16533191809E+03  0.00000000000E+00 0.  1.
         14    1    6    6    0    0  0.39465031006E+02  0.17524522617E+02 -0.56931404329E+02  0.71454757463E+02  0.00000000000E+00 0. -1.
         -5    1    3    3    0  503 -0.53425971129E+02  0.50690853284E+02 -0.50860090881E+03  0.51392691255E+03  0.47000000000E+01 0.  1.
         11    1    4    4    0    0 -0.84649620281E+01 -0.35844921164E+02 -0.19568856694E+03  0.19912440631E+03  0.00000000000E+00 0. -1.
        -12    1    4    4    0    0  0.42497899865E+02  0.13392797019E+02 -0.91568707600E+02  0.10183450651E+03  0.00000000000E+00 0.  1.
</event>
<event>
12    1  0.8691829E-002  0.3896948E+03  0.7818608E-02  0.1047455E+00
         21   -1    0    0  503  502  0.00000000000E+00  0.00000000000E+00  0.91204627643E+03  0.91204627643E+03  0.00000000000E+00 0. -1.
         21   -1    0    0  501  503 -0.00000000000E+00 -0.00000000000E+00 -0.16628261383E+03  0.16628261383E+03  0.00000000000E+00 0. -1.
          6    2    1    2  501    0  0.32221024387E+03  0.13566976837E+03  0.37101359898E+03  0.53768145980E+03  0.17095184783E+03 0.  0.
         24    2    3    3    0    0  0.80005583685E+02  0.13770854403E+02  0.74381285868E+02  0.13576696413E+03  0.79432757797E+02 0.  0.
         -6    2    1    2    0  502 -0.32221024387E+03 -0.13566976837E+03  0.37475006362E+03  0.54064743045E+03  0.17215198681E+03 0.  0.
        -24    2    5    5    0    0 -0.51691792398E+02 -0.38597921407E+02  0.71324448263E+02  0.12268526695E+03  0.76175172261E+02 0.  0.
          5    1    3    3  501    0  0.24220466019E+03  0.12189891397E+03  0.29663231311E+03  0.40191449567E+03  0.47000000000E+01 0. -1.
        -11    1    4    4    0    0  0.11920116882E+02  0.38765066810E+02  0.20698562701E+02  0.45532956077E+02  0.00000000000E+00 0.  1.
         12    1    4    4    0    0  0.68085466803E+02 -0.24994212406E+02  0.53682723167E+02  0.90234008058E+02  0.00000000000E+00 0. -1.
         -5    1    5    5    0  502 -0.27051845148E+03 -0.97071846967E+02  0.30342561536E+03  0.41796216350E+03  0.47000000000E+01 0.  1.
         13    1    6    6    0    0 -0.35061460467E+02 -0.28621285197E+02 -0.34934293008E+01  0.45394801736E+02  0.00000000000E+00 0. -1.
        -14    1    6    6    0    0 -0.16630331931E+02 -0.99766362093E+01  0.74817877564E+02  0.77290465216E+02  0.00000000000E+00 0.  1.
</event>
<event>
12    1  0.8691829E-002  0.1904343E+03  0.7818608E-02  0.1158864E+00
         21   -1    0    0  501  502  0.00000000000E+00  0.00000000000E+00  0.45198991370E+03  0.45198991370E+03  0.00000000000E+00 0. -1.
         21   -1    0    0  502  503 -0.00000000000E+00 -0.00000000000E+00 -0.14291649925E+03  0.14291649925E+03  0.00000000000E+00 0.  1.
         -6    2    1    2    0  503  0.80467781456E+02 -0.25177642163E+02 -0.43951519403E+02  0.19544038109E+03  0.17075195163E+03 0.  0.
        -24    2    3    3    0    0  0.74567471685E+02  0.43756940660E+02 -0.11271928259E+02  0.11877985643E+03  0.80663623999E+02 0.  0.
          6    2    1    2  501    0 -0.80467781456E+02  0.25177642163E+02  0.35302493385E+03  0.39946603185E+03  0.16684582454E+03 0.  0.
         24    2    5    5    0    0 -0.82353770384E+02  0.51191909103E+02  0.35110361270E+03  0.37289385630E+03  0.79833114441E+02 0.  0.
          5    1    5    5  501    0  0.18859889278E+01 -0.26014266940E+02  0.19213211517E+01  0.26572175553E+02  0.47000000000E+01 0. -1.
        -11    1    6    6    0    0 -0.95858609432E+02  0.39333550738E+02  0.25721306187E+03  0.27729868448E+03  0.00000000000E+00 0.  1.
         12    1    6    6    0    0  0.13504839048E+02  0.11858358365E+02  0.93890550831E+02  0.95595171824E+02  0.00000000000E+00 0. -1.
         -5    1    3    3    0  503  0.59003097711E+01 -0.68934582823E+02 -0.32679591143E+02  0.76660524664E+02  0.47000000000E+01 0.  1.
         11    1    4    4    0    0  0.78602941633E+02  0.10687650570E+02 -0.24366488591E+02  0.82984179663E+02  0.00000000000E+00 0. -1.
        -12    1    4    4    0    0 -0.40354699477E+01  0.33069290090E+02  0.13094560331E+02  0.35795676765E+02  0.00000000000E+00 0.  1.
</event>
<event>
12    1  0.8691829E-002  0.1940194E+03  0.7818608E-02  0.1156357E+00
         21   -1    0    0  503  502  0.00000000000E+00  0.00000000000E+00  0.12896428720E+03  0.12896428720E+03  0.00000000000E+00 0.  1.
         21   -1    0    0  501  503 -0.00000000000E+00 -0.00000000000E+00 -0.34703184551E+03  0.34703184551E+03  0.00000000000E+00 0.  1.
          6    2    1    2  501    0 -0.68308080120E+02  0.31527808157E+02 -0.21352372329E+03  0.28850635431E+03  0.17883942400E+03 0.  0.
         24    2    3    3    0    0 -0.63698706950E+02  0.40827246588E+02 -0.23744273002E+03  0.26201230292E+03  0.80913580513E+02 0.  0.
         -6    2    1    2    0  502  0.68308080120E+02 -0.31527808157E+02 -0.45438350193E+01  0.18748977839E+03  0.17167345185E+03 0.  0.
        -24    2    5    5    0    0 -0.81242138056E+01  0.13940678690E+02  0.35495200700E+02  0.89845048725E+02  0.80943672609E+02 0.  0.
          5    1    3    3  501    0 -0.46093731700E+01 -0.92994384314E+01  0.23919006734E+02  0.26494051395E+02  0.47000000000E+01 0. -1.
        -13    1    4    4    0    0 -0.56711101182E+02 -0.24220888135E+00 -0.19272577084E+03  0.20089656644E+03  0.00000000000E+00 0.  1.
         14    1    4    4    0    0 -0.69876057685E+01  0.41069455470E+02 -0.44716959177E+02  0.61115736476E+02  0.00000000000E+00 0. -1.
         -5    1    5    5    0  502  0.76432293926E+02 -0.45468486846E+02 -0.40039035719E+02  0.97644729669E+02  0.47000000000E+01 0.  1.
         11    1    6    6    0    0  0.24187471270E+02  0.20583818984E+02  0.45396430641E+02  0.55403639640E+02  0.00000000000E+00 0. -1.
        -12    1    6    6    0    0 -0.32311685076E+02 -0.66431402944E+01 -0.99012299415E+01  0.34441409085E+02  0.00000000000E+00 0.  1.
</event>
<event>
12    1  0.8691829E-002  0.1921804E+03  0.7818608E-02  0.1157625E+00
         21   -1    0    0  503  502  0.00000000000E+00  0.00000000000E+00  0.55761942392E+02  0.55761942392E+02  0.00000000000E+00 0. -1.
         21   -1    0    0  501  503 -0.00000000000E+00 -0.00000000000E+00 -0.74856871785E+03  0.74856871785E+03  0.00000000000E+00 0. -1.
          6    2    1    2  501    0  0.71393044605E+02  0.15538707673E+02 -0.49960554139E+03  0.53529338117E+03  0.17774951106E+03 0.  0.
         24    2    3    3    0    0  0.80463151940E+02 -0.32829161382E+02 -0.20218985735E+03  0.23379728382E+03  0.78919952165E+02 0.  0.
         -6    2    1    2    0  502 -0.71393044605E+02 -0.15538707673E+02 -0.19320123407E+03  0.26903727907E+03  0.17238306886E+03 0.  0.
        -24    2    5    5    0    0  0.30479268145E+02 -0.54399312368E+00 -0.72473465629E+02  0.11029190546E+03  0.77347394755E+02 0.  0.
          5    1    3    3  501    0 -0.90701073347E+01  0.48367869055E+02 -0.29741568405E+03  0.30149609736E+03  0.47000000000E+01 0. -1.
        -13    1    4    4    0    0  0.20528521348E+02  0.22533108191E+02 -0.27761458885E+02  0.41229355475E+02  0.00000000000E+00 0.  1.
         14    1    4    4    0    0  0.59934630592E+02 -0.55362269572E+02 -0.17442839846E+03  0.19256792834E+03  0.00000000000E+00 0. -1.
         -5    1    5    5    0  502 -0.10187231275E+03 -0.14994714550E+02 -0.12072776844E+03  0.15874537361E+03  0.47000000000E+01 0.  1.
         13    1    6    6    0    0  0.17372976783E+02 -0.35248651470E+02 -0.15369651946E+02  0.42196136715E+02  0.00000000000E+00 0. -1.
        -14    1    6    6    0    0  0.13106291362E+02  0.34704658347E+02 -0.57103813684E+02  0.68095768748E+02  0.00000000000E+00 0.  1.
</event>
<event>
12    1  0.8691829E-002  0.1745853E+03  0.7818608E-02  0.1173221E+00
         21   -1    0    0  503  502  0.00000000000E+00  0.00000000000E+00  0.77848621981E+02  0.77848621981E+02  0.00000000000E+00 0. -1.
         21   -1    0    0  501  503 -0.00000000000E+00 -0.00000000000E+00 -0.97053648193E+03  0.97053648193E+03  0.00000000000E+00 0. -1.
          6    2    1    2  501    0  0.26591176674E+02 -0.64327119224E+01 -0.85159767911E+03  0.86930928367E+03  0.17242840010E+03 0.  0.
         24    2    3    3    0    0  0.37476434678E+02 -0.12758225585E+01 -0.85199251168E+03  0.85637374184E+03  0.77965600632E+02 0.  0.
         -6    2    1    2    0  502 -0.26591176674E+02  0.64327119224E+01 -0.41090180843E+02  0.17907582024E+03  0.17213737529E+03 0.  0.
        -24    2    5    5    0    0  0.34262639710E+02  0.14457267114E+02  0.20694348270E+02  0.91857711499E+02  0.81404189444E+02 0.  0.
          5    1    3    3  501    0 -0.10885258004E+02 -0.51568893639E+01  0.39483256975E+00  0.12935541832E+02  0.47000000000E+01 0. -1.
        -13    1    4    4    0    0 -0.15761320850E+02  0.23089383358E+02 -0.28145134936E+03  0.28283635006E+03  0.00000000000E+00 0.  1.
         14    1    4    4    0    0  0.53237755527E+02 -0.24365205917E+02 -0.57054116232E+03  0.57353739178E+03  0.00000000000E+00 0. -1.
         -5    1    5    5    0  502 -0.60853816384E+02 -0.80245551913E+01 -0.61784529113E+02  0.87218108740E+02  0.47000000000E+01 0.  1.
         11    1    6    6    0    0  0.13973710135E+02 -0.32743620451E+02  0.19225076190E+02  0.40460014949E+02  0.00000000000E+00 0. -1.
        -12    1    6    6    0    0  0.20288929576E+02  0.47200887564E+02  0.14692720806E+01  0.51397696550E+02  0.00000000000E+00 0.  1.
</event>
<event>
12    1  0.8691829E-002  0.2095929E+03  0.7818608E-02  0.1141953E+00
         21   -1    0    0  501  502  0.00000000000E+00  0.00000000000E+00  0.45739047347E+03  0.45739047347E+03  0.00000000000E+00 0.  1.
         21   -1    0    0  502  503 -0.00000000000E+00 -0.00000000000E+00 -0.47212260922E+03  0.47212260922E+03  0.00000000000E+00 0.  1.
         -6    2    1    2    0  503  0.10403771108E+03 -0.55256395223E+02 -0.42224633798E+03  0.47125877448E+03  0.17296169532E+03 0.  0.
        -24    2    3    3    0    0  0.41440400991E+02 -0.21684260603E+02 -0.82220925198E+02  0.12386147629E+03  0.79961683173E+02 0.  0.
          6    2    1    2  501    0 -0.10403771108E+03  0.55256395223E+02  0.40751420223E+03  0.45825430821E+03  0.17335533288E+03 0.  0.
         24    2    5    5    0    0 -0.66879481671E+02  0.61131060758E+02  0.40246789869E+03  0.42000772813E+03  0.78842948713E+02 0.  0.
          5    1    5    5  501    0 -0.37158229414E+02 -0.58746655347E+01  0.50463035416E+01  0.38246580079E+02  0.47000000000E+01 0. -1.
        -13    1    6    6    0    0 -0.75279977210E+02  0.32132256861E+02  0.21366593347E+03  0.22880709785E+03  0.00000000000E+00 0.  1.
         14    1    6    6    0    0  0.84004955389E+01  0.28998803897E+02  0.18880196521E+03  0.19120063028E+03  0.00000000000E+00 0. -1.
         -5    1    3    3    0  503  0.62597310094E+02 -0.33572134620E+02 -0.34002541278E+03  0.34739729819E+03  0.47000000000E+01 0.  1.
         13    1    4    4    0    0 -0.74405393373E+01  0.19409774905E+02 -0.13692792194E+01  0.20832088544E+02  0.00000000000E+00 0. -1.
        -14    1    4    4    0    0  0.48880940328E+02 -0.41094035508E+02 -0.80851645979E+02  0.10302938775E+03  0.00000000000E+00 0.  1.
</event>
<event>
12    1  0.8691829E-002  0.1780064E+03  0.7818608E-02  0.1169886E+00
         21   -1    0    0  503  502  0.00000000000E+00  0.00000000000E+00  0.25099837735E+03  0.25099837735E+03  0.00000000000E+00 0.  1.
         21   -1    0    0  501  503 -0.00000000000E+00 -0.00000000000E+00 -0.13234627601E+03  0.13234627601E+03  0.00000000000E+00 0. -1.
          6    2    1    2  501    0 -0.20640957472E+01  0.45492926743E+02  0.10191902023E+03  0.20511893159E+03  0.17208260382E+03 0.  0.
         24    2    3    3    0    0 -0.58570078196E+02  0.52344158262E+02  0.34491698167E+02  0.11675378469E+03  0.79192196795E+02 0.  0.
         -6    2    1    2    0  502  0.20640957472E+01 -0.45492926743E+02  0.16733081108E+02  0.17822572177E+03  0.17149502915E+03 0.  0.
        -24    2    5    5    0    0  0.11806772671E+02 -0.64965003074E+02 -0.45063435302E+02  0.11253720717E+03  0.79208953352E+02 0.  0.
          5    1    3    3  501    0  0.56505982449E+02 -0.68512315186E+01  0.67427322060E+02  0.88365146896E+02  0.47000000000E+01 0. -1.
        -13    1    4    4    0    0  0.16727265904E+02  0.44695910447E+01  0.19836816130E+02  0.26330171722E+02  0.00000000000E+00 0.  1.
         14    1    4    4    0    0 -0.75297344101E+02  0.47874567217E+02  0.14654882037E+02  0.90423612969E+02  0.00000000000E+00 0. -1.
         -5    1    5    5    0  502 -0.97426769233E+01  0.19472076331E+02  0.61796516410E+02  0.65688514603E+02  0.47000000000E+01 0.  1.
         13    1    6    6    0    0  0.17818405847E+02  0.11416182961E+02 -0.26112626622E+02  0.33610922174E+02  0.00000000000E+00 0. -1.
        -14    1    6    6    0    0 -0.60116331765E+01 -0.76381186035E+02 -0.18950808680E+02  0.78926284996E+02  0.00000000000E+00 0.  1.
</event>
<event>
12    1  0.8691829E-002  0.1844781E+03  0.7818608E-02  0.1164255E+00
         21   -1    0    0  501  502  0.00000000000E+00  0.00000000000E+00  0.19862519870E+03  0.19862519870E+03  0.00000000000E+00 0.  1.
         21   -1    0    0  502  503 -0.00000000000E+00 -0.00000000000E+00 -0.49811681339E+03  0.49811681339E+03  0.00000000000E+00 0.  1.
         -6    2    1    2    0  503 -0.51911770003E+02  0.39993513907E+02 -0.43353656274E+03  0.47115402137E+03  0.17244665147E+03 0.  0.
        -24    2    3    3    0    0  0.14371079074E+02  0.22394454645E+02 -0.36405657833E+03  0.37341610037E+03  0.78704207486E+02 0.  0.
          6    2    1    2  501    0  0.51911770003E+02 -0.39993513907E+02  0.13404494805E+03  0.22558799071E+03  0.16919686887E+03 0.  0.
         24    2    5    5    0    0 -0.12152328943E+02  0.28490760090E+02  0.83013762501E+02  0.11872089354E+03  0.79018752775E+02 0.  0.
          5    1    5    5  501    0  0.64064098946E+02 -0.68484273996E+02  0.51031185554E+02  0.10686709717E+03  0.47000000000E+01 0. -1.
        -13    1    6    6    0    0 -0.35156097673E+02  0.21826439430E+01  0.75010652385E+02  0.82869253100E+02  0.00000000000E+00 0.  1.
         14    1    6    6    0    0  0.23003768730E+02  0.26308116147E+02  0.80031101158E+01  0.35851640444E+02  0.00000000000E+00 0. -1.
         -5    1    3    3    0  503 -0.66282849078E+02  0.17599059262E+02 -0.69479984409E+02  0.97737921004E+02  0.47000000000E+01 0.  1.
         11    1    4    4    0    0  0.19920774921E+02 -0.24842193399E+02 -0.20304566612E+03  0.20552740542E+03  0.00000000000E+00 0. -1.
        -12    1    4    4    0    0 -0.55496958466E+01  0.47236648044E+02 -0.16101091221E+03  0.16788869495E+03  0.00000000000E+00 0.  1.
</event>
<event>
12    1  0.8691829E-002  0.2336597E+03  0.7818608E-02  0.1124191E+00
         21   -1    0    0  501  502  0.00000000000E+00  0.00000000000E+00  0.43166896779E+02  0.43166896779E+02  0.00000000000E+00 0. -1.
         21   -1    0    0  502  503 -0.00000000000E+00 -0.00000000000E+00 -0.12803239576E+04  0.12803239576E+04  0.00000000000E+00 0.  1.
         -6    2    1    2    0  503 -0.15252293725E+03  0.31920128250E+02 -0.69777609248E+03  0.73567397781E+03  0.17332797070E+03 0.  0.
        -24    2    3    3    0    0 -0.29465837591E+02  0.47090132748E+02 -0.42796443532E+03  0.43869990630E+03  0.78856411927E+02 0.  0.
          6    2    1    2  501    0  0.15252293725E+03 -0.31920128250E+02 -0.53938096838E+03  0.58781687660E+03  0.17411120122E+03 0.  0.
         24    2    5    5    0    0  0.63713459790E+02  0.39162270203E+02 -0.25954921988E+03  0.28571138489E+03  0.93124161985E+02 0.  0.
          5    1    5    5  501    0  0.88809477464E+02 -0.71082398453E+02 -0.27983174850E+03  0.30210549171E+03  0.47000000000E+01 0. -1.
        -13    1    6    6    0    0  0.71183343004E+02  0.31865866199E+02 -0.26330648323E+03  0.27461392146E+03  0.00000000000E+00 0.  1.
         14    1    6    6    0    0 -0.74698832140E+01  0.72964040048E+01  0.37572633451E+01  0.11097463425E+02  0.00000000000E+00 0. -1.
         -5    1    3    3    0  503 -0.12305709966E+03 -0.15170004498E+02 -0.26981165715E+03  0.29697407151E+03  0.47000000000E+01 0.  1.
         11    1    4    4    0    0 -0.32393624191E+02  0.43127118203E+02 -0.13066914613E+03  0.14136378943E+03  0.00000000000E+00 0. -1.
        -12    1    4    4    0    0  0.29277865999E+01  0.39630145446E+01 -0.29729528919E+03  0.29733611687E+03  0.00000000000E+00 0.  1.
</event>
<event>
12    1  0.8691829E-002  0.1771147E+03  0.7818608E-02  0.1171105E+00
         21   -1    0    0  501  502  0.00000000000E+00  0.00000000000E+00  0.74747002450E+02  0.74747002450E+02  0.00000000000E+00 0.  1.
         21   -1    0    0  502  503 -0.00000000000E+00 -0.00000000000E+00 -0.56453279989E+03  0.56453279989E+03  0.00000000000E+00 0.  1.
         -6    2    1    2    0  503  0.53545344505E+01 -0.34510851196E+02 -0.40834744636E+03  0.44433920667E+03  0.17166835395E+03 0.  0.
        -24    2    3    3    0    0 -0.59138176265E+02 -0.37886667242E+02 -0.29748610467E+03  0.31595294202E+03  0.79972218013E+02 0.  0.
          6    2    1    2  501    0 -0.53545344505E+01  0.34510851196E+02 -0.81438351084E+02  0.19494059567E+03  0.17363744102E+03 0.  0.
         24    2    5    5    0    0 -0.10603419025E+02 -0.27250498407E+02  0.92690832796E+01  0.84977221121E+02  0.79247650099E+02 0.  0.
          5    1    5    5  501    0  0.52488845743E+01  0.61761349603E+02 -0.90707434364E+02  0.10996337455E+03  0.47000000000E+01 0. -1.
        -11    1    6    6    0    0  0.11171420519E+01 -0.17422102048E+02  0.43832072706E+02  0.47180803764E+02  0.00000000000E+00 0.  1.
         12    1    6    6    0    0 -0.11720561077E+02 -0.98283963585E+01 -0.34562989426E+02  0.37796417357E+02  0.00000000000E+00 0. -1.
         -5    1    3    3    0  503  0.64492710715E+02  0.33758160453E+01 -0.11086134169E+03  0.12838626465E+03  0.47000000000E+01 0.  1.
         13    1    4    4    0    0 -0.59618637533E+02 -0.59762050043E+02 -0.22949554622E+03  0.24452830164E+03  0.00000000000E+00 0. -1.
        -14    1    4    4    0    0  0.48046126886E+00  0.21875382802E+02 -0.67990558445E+02  0.71424640380E+02  0.00000000000E+00 0.  1.
</event>
<event>
12    1  0.8691829E-002  0.2301401E+03  0.7818608E-02  0.1126764E+00
         21   -1    0    0  501  502  0.00000000000E+00  0.00000000000E+00  0.56580774737E+03  0.56580774737E+03  0.00000000000E+00 0.  1.
         21   -1    0    0  502  503 -0.00000000000E+00 -0.00000000000E+00 -0.96437040611E+02  0.96437040611E+02  0.00000000000E+00 0. -1.
         -6    2    1    2    0  503  0.84942091473E+01 -0.15123006025E+03  0.29693625343E+03  0.37568016626E+03  0.17326790243E+03 0.  0.
        -24    2    3    3    0    0  0.22316981890E+01 -0.87103240188E+00  0.11639493763E+03  0.14059653644E+03  0.78828074822E+02 0.  0.
          6    2    1    2  501    0 -0.84942091473E+01  0.15123006025E+03  0.17243445334E+03  0.28656462172E+03  0.17158950729E+03 0.  0.
         24    2    5    5    0    0 -0.28693200133E+02  0.71351213945E+01  0.51732989475E+02  0.97455436276E+02  0.77117119815E+02 0.  0.
          5    1    5    5  501    0  0.20198990986E+02  0.14409493886E+03  0.12070146386E+03  0.18910918544E+03  0.47000000000E+01 0. -1.
        -13    1    6    6    0    0  0.11163814755E+02 -0.19051033578E+02  0.43881415786E+02  0.49123836288E+02  0.00000000000E+00 0.  1.
         14    1    6    6    0    0 -0.39857014888E+02  0.26186154973E+02  0.78515736890E+01  0.48331599988E+02  0.00000000000E+00 0. -1.
         -5    1    3    3    0  503  0.62625109582E+01 -0.15035902785E+03  0.18054131580E+03  0.23508362982E+03  0.47000000000E+01 0.  1.
         11    1    4    4    0    0  0.35180698062E+02 -0.12517153819E+02  0.31725700556E+02  0.48998782960E+02  0.00000000000E+00 0. -1.
        -12    1    4    4    0    0 -0.32948999873E+02  0.11646121417E+02  0.84669237069E+02  0.91597753480E+02  0.00000000000E+00 0.  1.
</event>
<event>
12    1  0.8691829E-002  0.2072394E+03  0.7818608E-02  0.1144201E+00
         21   -1    0    0  501  502  0.00000000000E+00  0.00000000000E+00  0.60888739895E+02  0.60888739895E+02  0.00000000000E+00 0.  1.
         21   -1    0    0  502  503 -0.00000000000E+00 -0.00000000000E+00 -0.87121052233E+03  0.87121052233E+03  0.00000000000E+00 0.  1.
         -6    2    1    2    0  503 -0.10864946279E+03  0.31708988716E+02 -0.61120271758E+03  0.64470308730E+03  0.17106473356E+03 0.  0.
        -24    2    3    3    0    0 -0.11544049230E+03 -0.16610651678E+02 -0.33290883105E+03  0.36212480963E+03  0.81875924106E+02 0.  0.
          6    2    1    2  501    0  0.10864946279E+03 -0.31708988716E+02 -0.19911906485E+03  0.28739617492E+03  0.17360297705E+03 0.  0.
         24    2    5    5    0    0  0.65585925931E+02  0.47607498229E+02 -0.13281707348E+03  0.17530863160E+03  0.80775947765E+02 0.  0.
          5    1    5    5  501    0  0.43063536861E+02 -0.79316486945E+02 -0.66301991371E+02  0.11208754332E+03  0.47000000000E+01 0. -1.
        -13    1    6    6    0    0  0.74649424500E+02  0.30370196724E+02 -0.61488538737E+02  0.10136925482E+03  0.00000000000E+00 0.  1.
         14    1    6    6    0    0 -0.90634985686E+01  0.17237301505E+02 -0.71328534745E+02  0.73939376778E+02  0.00000000000E+00 0. -1.
         -5    1    3    3    0  503  0.67910295114E+01  0.48319640394E+02 -0.27829388653E+03  0.28257827767E+03  0.47000000000E+01 0.  1.
         11    1    4    4    0    0  0.58847150998E+01  0.63930190984E+01 -0.19868702460E+01  0.89133730076E+01  0.00000000000E+00 0. -1.
        -12    1    4    4    0    0 -0.12132520740E+03 -0.23003670776E+02 -0.33092196080E+03  0.35321143662E+03  0.00000000000E+00 0.  1.
</event>
<event>
12    1  0.8691829E-002  0.1944055E+03  0.7818608E-02  0.1154722E+00
         21   -1    0    0  503  502  0.00000000000E+00  0.00000000000E+00  0.89061627258E+02  0.89061627258E+02  0.00000000000E+00 0. -1.
         21   -1    0    0  501  503 -0.00000000000E+00 -0.00000000000E+00 -0.60036676099E+03  0.60036676099E+03  0.00000000000E+00 0. -1.
          6    2    1    2  501    0  0.59446449858E+02  0.71019897260E+02 -0.44285117954E+03  0.48332298778E+03  0.17001834340E+03 0.  0.
         24    2    3    3    0    0  0.91489828402E+02  0.10940793088E+02 -0.24035471818E+03  0.26963353150E+03  0.80260582481E+02 0.  0.
         -6    2    1    2    0  502 -0.59446449858E+02 -0.71019897260E+02 -0.68453954189E+02  0.20610540046E+03  0.17092625909E+03 0.  0.
        -24    2    5    5    0    0 -0.24108867218E+02 -0.10486626228E+03 -0.79391815240E+02  0.15574621087E+03  0.79847676427E+02 0.  0.
          5    1    3    3  501    0 -0.32043378544E+02  0.60079104172E+02 -0.20249646136E+03  0.21368945629E+03  0.47000000000E+01 0. -1.
        -11    1    4    4    0    0 -0.75950010159E+00 -0.19916724800E+02 -0.17693247245E+02  0.26651524632E+02  0.00000000000E+00 0.  1.
         12    1    4    4    0    0  0.92249328504E+02  0.30857517888E+02 -0.22266147094E+03  0.24298200686E+03  0.00000000000E+00 0. -1.
         -5    1    5    5    0  502 -0.35337582640E+02  0.33846365017E+02  0.10937861051E+02  0.50359189589E+02  0.47000000000E+01 0.  1.
         13    1    6    6    0    0 -0.14616901459E+02 -0.69681182188E+02 -0.31792065613E+01  0.71268705009E+02  0.00000000000E+00 0. -1.
        -14    1    6    6    0    0 -0.94919657585E+01 -0.35185080090E+02 -0.76212608679E+02  0.84477505861E+02  0.00000000000E+00 0.  1.
</event>
<event>
12    1  0.8691829E-002  0.2175607E+03  0.7818608E-02  0.1135839E+00
         21   -1    0    0  503  502  0.00000000000E+00  0.00000000000E+00  0.11686115986E+03  0.11686115986E+03  0.00000000000E+00 0.  1.
         21   -1    0    0  501  503 -0.00000000000E+00 -0.00000000000E+00 -0.65009550885E+03  0.65009550885E+03  0.00000000000E+00 0. -1.
          6    2    1    2  501    0  0.50705397054E+02  0.12226514003E+03 -0.50239776848E+03  0.54722151802E+03  0.17183733661E+03 0.  0.
         24    2    3    3    0    0  0.89794782928E+02  0.41011742281E+02 -0.31323138249E+03  0.33761210429E+03  0.78249395801E+02 0.  0.
         -6    2    1    2    0  502 -0.50705397054E+02 -0.12226514003E+03 -0.30836580502E+02  0.21973515069E+03  0.17266395106E+03 0.  0.
        -24    2    5    5    0    0  0.30486014884E+02 -0.22919924840E+02 -0.17370037055E+02  0.90642335455E+02  0.80371604011E+02 0.  0.
          5    1    3    3  501    0 -0.39089385873E+02  0.81253397749E+02 -0.18916638599E+03  0.20960941373E+03  0.47000000000E+01 0. -1.
        -13    1    4    4    0    0  0.30176811544E+02  0.27828303838E+01 -0.20872315851E+02  0.36797250833E+02  0.00000000000E+00 0.  1.
         14    1    4    4    0    0  0.59617971384E+02  0.38228911897E+02 -0.29235906663E+03  0.30081485346E+03  0.00000000000E+00 0. -1.
         -5    1    5    5    0  502 -0.81191411938E+02 -0.99345215190E+02 -0.13466543447E+02  0.12909281524E+03  0.47000000000E+01 0.  1.
         11    1    6    6    0    0  0.74605178144E+01 -0.30215662077E+02 -0.44509293031E+02  0.54311349891E+02  0.00000000000E+00 0. -1.
        -12    1    6    6    0    0  0.23025497069E+02  0.72957372365E+01  0.27139255977E+02  0.36330985564E+02  0.00000000000E+00 0.  1.
</event>
<event>
12    1  0.8691829E-002  0.2355115E+03  0.7818608E-02  0.1122871E+00
         21   -1    0    0  501  502  0.00000000000E+00  0.00000000000E+00  0.33606632036E+02  0.33606632036E+02  0.00000000000E+00 0.  1.
         21   -1    0    0  502  503 -0.00000000000E+00 -0.00000000000E+00 -0.16553628326E+04  0.16553628326E+04  0.00000000000E+00 0.  1.
         -6    2    1    2    0  503 -0.25386354620E+02 -0.15837525964E+03 -0.75525960651E+03  0.79103739031E+03  0.17203455984E+03 0.  0.
        -24    2    3    3    0    0 -0.44127231453E+02 -0.13052228178E+03 -0.36039574961E+03  0.39472114749E+03  0.83285108765E+02 0.  0.
          6    2    1    2  501    0  0.25386354620E+02  0.15837525964E+03 -0.86649659403E+03  0.89793207430E+03  0.17244846396E+03 0.  0.
         24    2    5    5    0    0  0.83396426478E+02  0.10953777513E+03 -0.61316621651E+03  0.63345402511E+03  0.79609702448E+02 0.  0.
          5    1    5    5  501    0 -0.58010071858E+02  0.48837484509E+02 -0.25333037752E+03  0.26447804919E+03  0.47000000000E+01 0. -1.
        -13    1    6    6    0    0  0.17227103130E+02  0.58572677914E+02 -0.39782995067E+03  0.40248751699E+03  0.00000000000E+00 0.  1.
         14    1    6    6    0    0  0.66169323348E+02  0.50965097220E+02 -0.21533626584E+03  0.23096650812E+03  0.00000000000E+00 0. -1.
         -5    1    3    3    0  503  0.18740876834E+02 -0.27852977864E+02 -0.39486385690E+03  0.39631624282E+03  0.47000000000E+01 0.  1.
         11    1    4    4    0    0  0.42554115957E+01  0.10406660948E+02 -0.16878583997E+02  0.20280377651E+02  0.00000000000E+00 0. -1.
        -12    1    4    4    0    0 -0.48382643049E+02 -0.14092894273E+03 -0.34351716562E+03  0.37444076984E+03  0.00000000000E+00 0.  1.
</event>
<event>
12    1  0.8691829E-002  0.3036123E+03  0.7818608E-02  0.1083902E+00
         21   -1    0    0  503  502  0.00000000000E+00  0.00000000000E+00  0.59061966370E+03  0.59061966370E+03  0.00000000000E+00 0. -1.
         21   -1    0    0  501  503 -0.00000000000E+00 -0.00000000000E+00 -0.54754892466E+03  0.54754892466E+03  0.00000000000E+00 0.  1.
          6    2    1    2  501    0  0.24952645465E+03 -0.13096737451E+01 -0.46076686027E+03  0.55180296854E+03  0.17296025484E+03 0.  0.
         24    2    3    3    0    0  0.18265340579E+03  0.64131644294E+02 -0.33865757659E+03  0.39789605534E+03  0.78467714556E+02 0.  0.
         -6    2    1    2    0  502 -0.24952645465E+03  0.13096737451E+01  0.50383759930E+03  0.58636561982E+03  0.16645463892E+03 0.  0.
        -24    2    5    5    0    0 -0.61882297977E+02  0.25329655131E+02  0.12623525216E+03  0.16399976939E+03  0.80557899923E+02 0.  0.
          5    1    3    3  501    0  0.66873048856E+02 -0.65441318039E+02 -0.12210928367E+03  0.15390691320E+03  0.47000000000E+01 0. -1.
        -11    1    4    4    0    0  0.39086205907E+02  0.51456971116E+02 -0.11164034887E+03  0.12899270857E+03  0.00000000000E+00 0.  1.
         12    1    4    4    0    0  0.14356719988E+03  0.12674673178E+02 -0.22701722773E+03  0.26890334678E+03  0.00000000000E+00 0. -1.
         -5    1    5    5    0  502 -0.18764415667E+03 -0.24019981386E+02  0.37760234715E+03  0.42236585043E+03  0.47000000000E+01 0.  1.
         13    1    6    6    0    0 -0.50639641074E+02  0.58389219756E+01  0.13137629957E+03  0.14091911988E+03  0.00000000000E+00 0. -1.
        -14    1    6    6    0    0 -0.11242656903E+02  0.19490733155E+02 -0.51410474170E+01  0.23080649508E+02  0.00000000000E+00 0.  1.
</event>
<event>
12    1  0.8691829E-002  0.1835146E+03  0.7818608E-02  0.1164651E+00
         21   -1    0    0  503  502  0.00000000000E+00  0.00000000000E+00  0.49292344117E+02  0.49292344117E+02  0.00000000000E+00 0.  1.
         21   -1    0    0  501  503 -0.00000000000E+00 -0.00000000000E+00 -0.20554542342E+04  0.20554542342E+04  0.00000000000E+00 0. -1.
          6    2    1    2  501    0  0.50207241887E+02 -0.39072643317E+02 -0.18647550713E+04  0.18737633474E+04  0.17213415563E+03 0.  0.
         24    2    3    3    0    0  0.13318901971E+01  0.40743117559E+02 -0.83355339298E+03  0.83831255327E+03  0.79340421420E+02 0.  0.
         -6    2    1    2    0  502 -0.50207241887E+02  0.39072643317E+02 -0.14140681879E+03  0.23098323093E+03  0.17120141931E+03 0.  0.
        -24    2    5    5    0    0 -0.20947470067E+02  0.75774614688E+02 -0.34728859253E+02  0.11434084583E+03  0.75413172765E+02 0.  0.
          5    1    3    3  501    0  0.48875351690E+02 -0.79815760876E+02 -0.10312016783E+04  0.10354507941E+04  0.47000000000E+01 0. -1.
        -11    1    4    4    0    0 -0.73045688594E+00  0.11053001721E+02 -0.12428271407E+02  0.16648253496E+02  0.00000000000E+00 0.  1.
         12    1    4    4    0    0  0.20623470830E+01  0.29690115839E+02 -0.82112512157E+03  0.82166429978E+03  0.00000000000E+00 0. -1.
         -5    1    5    5    0  502 -0.29259771821E+02 -0.36701971372E+02 -0.10667795954E+03  0.11664238510E+03  0.47000000000E+01 0.  1.
         13    1    6    6    0    0  0.69076786993E+01  0.66047221082E+01 -0.38508900456E+02  0.39677119269E+02  0.00000000000E+00 0. -1.
        -14    1    6    6    0    0 -0.27855148766E+02  0.69169892580E+02  0.37800412026E+01  0.74663726560E+02  0.00000000000E+00 0.  1.
</event>
<event>
12    1  0.8691829E-002  0.1873462E+03  0.7818608E-02  0.1160901E+00
         21   -1    0    0  503  502  0.00000000000E+00  0.00000000000E+00  0.59260281184E+03  0.59260281184E+03  0.00000000000E+00 0. -1.
         21   -1    0    0  501  503 -0.00000000000E+00 -0.00000000000E+00 -0.62522740797E+02  0.62522740797E+02  0.00000000000E+00 0. -1.
          6    2    1    2  501    0  0.71550823559E+02 -0.17299359203E+02  0.18940420299E+03  0.26633428826E+03  0.17216623599E+03 0.  0.
         24    2    3    3    0    0  0.64553645409E+02 -0.59827715889E+02  0.16952802967E+03  0.21863969853E+03  0.10638155950E+03 0.  0.
         -6    2    1    2    0  502 -0.71550823559E+02  0.17299359203E+02  0.34067586805E+03  0.38879126437E+03  0.17227829810E+03 0.  0.
        -24    2    5    5    0    0 -0.30197959735E+02 -0.84785507363E+01  0.32633368337E+03  0.33777804796E+03  0.81342081283E+02 0.  0.
          5    1    3    3  501    0  0.69971781494E+01  0.42528356686E+02  0.19876173312E+02  0.47694589735E+02  0.47000000000E+01 0. -1.
        -11    1    4    4    0    0 -0.11936154816E+02 -0.36870519289E+02  0.11649986492E+03  0.12277673033E+03  0.00000000000E+00 0.  1.
         12    1    4    4    0    0  0.76489800226E+02 -0.22957196600E+02  0.53028164757E+02  0.95862968198E+02  0.00000000000E+00 0. -1.
         -5    1    5    5    0  502 -0.41352863823E+02  0.25777909939E+02  0.14342184686E+02  0.51013216413E+02  0.47000000000E+01 0.  1.
         13    1    6    6    0    0  0.18831671644E+02 -0.28344331588E+02  0.14039224803E+03  0.14445766264E+03  0.00000000000E+00 0. -1.
        -14    1    6    6    0    0 -0.49029631379E+02  0.19865780852E+02  0.18594143534E+03  0.19332038532E+03  0.00000000000E+00 0.  1.
</event>
<event>
12    1  0.8691829E-002  0.2809911E+03  0.7818608E-02  0.1095370E+00
         21   -1    0    0  501  502  0.00000000000E+00  0.00000000000E+00  0.28792065055E+03  0.28792065055E+03  0.00000000000E+00 0. -1.
         21   -1    0    0  502  503 -0.00000000000E+00 -0.00000000000E+00 -0.73036637007E+03  0.73036637007E+03  0.00000000000E+00 0.  1.
         -6    2    1    2    0  503  0.21365922302E+03 -0.53837928387E+02 -0.62404309748E+03  0.68372222683E+03  0.17174839107E+03 0.  0.
        -24    2    3    3    0    0  0.49571162366E+02 -0.59392995058E+02 -0.31094197773E+03  0.33015447999E+03  0.79575367698E+02 0.  0.
          6    2    1    2  501    0 -0.21365922302E+03  0.53837928387E+02  0.18159737796E+03  0.33456479380E+03  0.17437662531E+03 0.  0.
         24    2    5    5    0    0 -0.13299862698E+03 -0.34646985113E+02  0.82570177186E+02  0.17911644816E+03  0.79848728751E+02 0.  0.
          5    1    5    5  501    0 -0.80660596035E+02  0.88484913500E+02  0.99027200772E+02  0.15544834564E+03  0.47000000000E+01 0. -1.
        -11    1    6    6    0    0  0.45119086441E+00 -0.25023795205E+02  0.10465949144E+02  0.27128029621E+02  0.00000000000E+00 0.  1.
         12    1    6    6    0    0 -0.13344981785E+03 -0.96231899084E+01  0.72104228042E+02  0.15198841854E+03  0.00000000000E+00 0. -1.
         -5    1    3    3    0  503  0.16408806065E+03  0.55550666712E+01 -0.31310111974E+03  0.35356774683E+03  0.47000000000E+01 0.  1.
         11    1    4    4    0    0  0.20621707424E+01 -0.23725477823E+01  0.48381267103E+01  0.57696621405E+01  0.00000000000E+00 0. -1.
        -12    1    4    4    0    0  0.47508991623E+02 -0.57020447276E+02 -0.31578010444E+03  0.32438481785E+03  0.00000000000E+00 0.  1.
</event>
<event>
12    1  0.8691829E-002  0.2089002E+03  0.7818608E-02  0.1142829E+00
         21   -1    0    0  501  502  0.00000000000E+00  0.00000000000E+00  0.42959405465E+03  0.42959405465E+03  0.00000000000E+00 0. -1.
         21   -1    0    0  502  503 -0.00000000000E+00 -0.00000000000E+00 -0.35664101751E+03  0.35664101751E+03  0.00000000000E+00 0. -1.
         -6    2    1    2    0  503 -0.10389090085E+03 -0.59436831708E+02 -0.29653865009E+03  0.36273191744E+03  0.17121102969E+03 0.  0.
        -24    2    3    3    0    0 -0.11119187614E+03 -0.91776651246E+02 -0.28076961496E+03  0.32571947849E+03  0.80467477591E+02 0.  0.
          6    2    1    2  501    0  0.10389090085E+03  0.59436831708E+02  0.36949168723E+03  0.42350315472E+03  0.16883352417E+03 0.  0.
         24    2    5    5    0    0  0.12320558154E+03  0.86223954071E+02  0.33144937506E+03  0.37290755877E+03  0.81161404505E+02 0.  0.
          5    1    5    5  501    0 -0.19314680689E+02 -0.26787122363E+02  0.38042312167E+02  0.50595595950E+02  0.47000000000E+01 0. -1.
        -13    1    6    6    0    0  0.87545424150E+02  0.12729339035E+02  0.18945912033E+03  0.20909566146E+03  0.00000000000E+00 0.  1.
         14    1    6    6    0    0  0.35660157393E+02  0.73494615036E+02  0.14199025473E+03  0.16381189732E+03  0.00000000000E+00 0. -1.
         -5    1    3    3    0  503  0.73009752907E+01  0.32339819538E+02 -0.15769035136E+02  0.37012438951E+02  0.47000000000E+01 0.  1.
         13    1    4    4    0    0 -0.92458446991E+02 -0.38885981979E+02 -0.12572226680E+03  0.16083150309E+03  0.00000000000E+00 0. -1.
        -14    1    4    4    0    0 -0.18733429153E+02 -0.52890669267E+02 -0.15504734815E+03  0.16488797540E+03  0.00000000000E+00 0.  1.
</event>
<event>
12    1  0.8691829E-002  0.2317809E+03  0.7818608E-02  0.1125492E+00
         21   -1    0    0  503  502  0.00000000000E+00  0.00000000000E+00  0.15737244866E+03  0.15737244866E+03  0.00000000000E+00 0.  1.
         21   -1    0    0  501  503 -0.00000000000E+00 -0.00000000000E+00 -0.34141531499E+03  0.34141531499E+03  0.00000000000E+00 0. -1.
          6    2    1    2  501    0  0.15227609549E+03  0.29408708414E+02 -0.79439658012E+02  0.24501645063E+03  0.17224842649E+03 0.  0.
         24    2    3    3    0    0  0.41599651784E+02  0.21913485426E+02  0.20715406744E+02  0.95488591839E+02  0.80487335792E+02 0.  0.
         -6    2    1    2    0  502 -0.15227609549E+03 -0.29408708414E+02 -0.10460320831E+03  0.25377131302E+03  0.17147934784E+03 0.  0.
        -24    2    5    5    0    0 -0.88976231945E+02 -0.72212274518E+02 -0.19572353037E+02  0.13935385655E+03  0.76844244356E+02 0.  0.
          5    1    3    3  501    0  0.11067644371E+03  0.74952229878E+01 -0.10015506476E+03  0.14952785879E+03  0.47000000000E+01 0. -1.
        -11    1    4    4    0    0  0.20607655007E+02 -0.21662440927E+02  0.34051708310E+02  0.45315070679E+02  0.00000000000E+00 0.  1.
         12    1    4    4    0    0  0.20991996777E+02  0.43575926353E+02 -0.13336301566E+02  0.50173521160E+02  0.00000000000E+00 0. -1.
         -5    1    5    5    0  502 -0.63299863544E+02  0.42803566104E+02 -0.85030855276E+02  0.11441745647E+03  0.47000000000E+01 0.  1.
         13    1    6    6    0    0  0.95331329179E+01 -0.13076215180E+02 -0.18329579225E+02  0.24450797558E+02  0.00000000000E+00 0. -1.
        -14    1    6    6    0    0 -0.98509364863E+02 -0.59136059338E+02 -0.12427738124E+01  0.11490305899E+03  0.00000000000E+00 0.  1.
</event>
<event>
12    1  0.8691829E-002  0.2021996E+03  0.7818608E-02  0.1147959E+00
         21   -1    0    0  501  502  0.00000000000E+00  0.00000000000E+00  0.29167396334E+03  0.29167396334E+03  0.00000000000E+00 0. -1.
         21   -1    0    0  502  503 -0.00000000000E+00 -0.00000000000E+00 -0.14297380803E+03  0.14297380803E+03  0.00000000000E+00 0. -1.
         -6    2    1    2    0  503 -0.12483481282E+02  0.10565840053E+03  0.42761584394E+02  0.20637671021E+03  0.17159038000E+03 0.  0.
        -24    2    3    3    0    0 -0.41517033968E+02  0.34400356702E+02  0.73688612024E+02  0.12331512445E+03  0.82882807170E+02 0.  0.
          6    2    1    2  501    0  0.12483481282E+02 -0.10565840053E+03  0.10593857091E+03  0.22827106115E+03  0.17194522862E+03 0.  0.
         24    2    5    5    0    0  0.57306523781E+02 -0.12066567376E+03  0.77148410999E+02  0.17272570404E+03  0.77704884179E+02 0.  0.
          5    1    5    5  501    0 -0.44823042499E+02  0.15007273228E+02  0.28790159915E+02  0.55545357111E+02  0.47000000000E+01 0. -1.
        -11    1    6    6    0    0  0.38548960285E+02 -0.71394804571E+01  0.24109668586E+02  0.46024674248E+02  0.00000000000E+00 0.  1.
         12    1    6    6    0    0  0.18757563496E+02 -0.11352619330E+03  0.53038742413E+02  0.12670102979E+03  0.00000000000E+00 0. -1.
         -5    1    3    3    0  503  0.29033552686E+02  0.71258043829E+02 -0.30927027629E+02  0.83061585766E+02  0.47000000000E+01 0.  1.
         13    1    4    4    0    0  0.76928725636E+01  0.46357122204E+02  0.45244086532E+02  0.65231820713E+02  0.00000000000E+00 0. -1.
        -14    1    4    4    0    0 -0.49209906532E+02 -0.11956765502E+02  0.28444525491E+02  0.58083303734E+02  0.00000000000E+00 0.  1.
</event>
<event>
12    1  0.8691829E-002  0.2596826E+03  0.7818608E-02  0.1107686E+00
         21   -1    0    0  503  502  0.00000000000E+00  0.00000000000E+00  0.12740539094E+03  0.12740539094E+03  0.00000000000E+00 0. -1.
         21   -1    0    0  501  503 -0.00000000000E+00 -0.00000000000E+00 -0.63098451626E+03  0.63098451626E+03  0.00000000000E+00 0. -1.
          6    2    1    2  501    0  0.18321131770E+03 -0.64418793687E+02 -0.40657594623E+03  0.48118122418E+03  0.16886445019E+03 0.  0.
         24    2    3    3    0    0  0.85713066109E+02  0.20723561502E+02 -0.13701887512E+03  0.18211896595E+03  0.81344636684E+02 0.  0.
         -6    2    1    2    0  502 -0.18321131770E+03  0.64418793687E+02 -0.97003179085E+02  0.27720868303E+03  0.17239161603E+03 0.  0.
        -24    2    5    5    0    0 -0.16212006193E+03  0.62710465507E+02 -0.15057433278E+02  0.19244457086E+03  0.81195255980E+02 0.  0.
          5    1    3    3  501    0  0.97498251592E+02 -0.85142355189E+02 -0.26955707111E+03  0.29906225823E+03  0.47000000000E+01 0. -1.
        -11    1    4    4    0    0  0.67554415063E+02 -0.21648992373E+02 -0.62767611875E+02  0.94720910921E+02  0.00000000000E+00 0.  1.
         12    1    4    4    0    0  0.18158651045E+02  0.42372553875E+02 -0.74251263248E+02  0.87398055033E+02  0.00000000000E+00 0. -1.
         -5    1    5    5    0  502 -0.21091255776E+02  0.17083281804E+01 -0.81945745807E+02  0.84764112166E+02  0.47000000000E+01 0.  1.
         13    1    6    6    0    0 -0.13762893700E+03  0.18811109343E+02 -0.25164735729E+02  0.14116956491E+03  0.00000000000E+00 0. -1.
        -14    1    6    6    0    0 -0.24491124928E+02  0.43899356164E+02  0.10107302452E+02  0.51275005945E+02  0.00000000000E+00 0.  1.
</event>
<event>
12    1  0.8691829E-002  0.2095680E+03  0.7818608E-02  0.1142668E+00
         21   -1    0    0  501  502  0.00000000000E+00  0.00000000000E+00  0.17369011591E+03  0.17369011591E+03  0.00000000000E+00 0. -1.
         21   -1    0    0  502  503 -0.00000000000E+00 -0.00000000000E+00 -0.45771879578E+03  0.45771879578E+03  0.00000000000E+00 0. -1.
         -6    2    1    2    0  503 -0.94189527325E+02  0.63301834198E+02 -0.35484886636E+03  0.41019802309E+03  0.17165637452E+03 0.  0.
        -24    2    3    3    0    0 -0.48200029013E+02  0.10709824060E+03 -0.22748774880E+03  0.26780383980E+03  0.78580817117E+02 0.  0.
          6    2    1    2  501    0  0.94189527325E+02 -0.63301834198E+02  0.70820186494E+02  0.22121088861E+03  0.17618163682E+03 0.  0.
         24    2    5    5    0    0  0.35351304989E+02 -0.72126471063E+02  0.10367900925E+03  0.15308157879E+03  0.78947388883E+02 0.  0.
          5    1    5    5  501    0  0.58838222336E+02  0.88246368651E+01 -0.32858822760E+02  0.68129309821E+02  0.47000000000E+01 0. -1.
        -11    1    6    6    0    0 -0.10094437655E+02  0.40674362389E+01  0.45982557564E+02  0.47252907945E+02  0.00000000000E+00 0.  1.
         12    1    6    6    0    0  0.45445742644E+02 -0.76193907302E+02  0.57696451690E+02  0.10582867084E+03  0.00000000000E+00 0. -1.
         -5    1    3    3    0  503 -0.45989498312E+02 -0.43796406398E+02 -0.12736111756E+03  0.14239418329E+03  0.47000000000E+01 0.  1.
         13    1    4    4    0    0 -0.43493127132E+02  0.12835150533E+02 -0.55984569248E+02  0.72046271179E+02  0.00000000000E+00 0. -1.
        -14    1    4    4    0    0 -0.47069018811E+01  0.94263090063E+02 -0.17150317956E+03  0.19575756862E+03  0.00000000000E+00 0.  1.
</event>
<event>
12    1  0.8691829E-002  0.2026310E+03  0.7818608E-02  0.1147939E+00
         21   -1    0    0  501  502  0.00000000000E+00  0.00000000000E+00  0.21455916997E+03  0.21455916997E+03  0.00000000000E+00 0. -1.
         21   -1    0    0  502  503 -0.00000000000E+00 -0.00000000000E+00 -0.19485950896E+03  0.19485950896E+03  0.00000000000E+00 0. -1.
         -6    2    1    2    0  503 -0.16658370767E+02  0.10587850451E+03 -0.23969736469E+02  0.20213547466E+03  0.16969514671E+03 0.  0.
        -24    2    3    3    0    0 -0.63268463872E+02  0.87412175941E+02  0.21197339494E+02  0.13449184361E+03  0.77427009330E+02 0.  0.
          6    2    1    2  501    0  0.16658370767E+02 -0.10587850451E+03  0.43669397482E+02  0.20728320426E+03  0.17196380858E+03 0.  0.
         24    2    5    5    0    0 -0.30768682154E+02 -0.77498088578E+02 -0.26234044197E+02  0.11804557478E+03  0.79333896387E+02 0.  0.
          5    1    5    5  501    0  0.47427052921E+02 -0.28380415932E+02  0.69903441679E+02  0.89237629483E+02  0.47000000000E+01 0. -1.
        -13    1    6    6    0    0 -0.11899001092E+02  0.73454533838E+01  0.16135631349E+02  0.21351826887E+02  0.00000000000E+00 0.  1.
         14    1    6    6    0    0 -0.18869681062E+02 -0.84843541961E+02 -0.42369675546E+02  0.96693747894E+02  0.00000000000E+00 0. -1.
         -5    1    3    3    0  503  0.46610093105E+02  0.18466328569E+02 -0.45167075964E+02  0.67643631047E+02  0.47000000000E+01 0.  1.
         13    1    4    4    0    0 -0.44989425988E+02  0.10022043701E+03  0.12608371629E+02  0.11057646892E+03  0.00000000000E+00 0. -1.
        -14    1    4    4    0    0 -0.18279037884E+02 -0.12808261067E+02  0.85889678660E+01  0.23915374690E+02  0.00000000000E+00 0.  1.
</event>
<event>
12    1  0.8691829E-002  0.1729706E+03  0.7818608E-02  0.1174950E+00
         21   -1    0    0  503  502  0.00000000000E+00  0.00000000000E+00  0.14128966246E+03  0.14128966246E+03  0.00000000000E+00 0. -1.
         21   -1    0    0  501  503 -0.00000000000E+00 -0.00000000000E+00 -0.23809787280E+03  0.23809787280E+03  0.00000000000E+00 0. -1.
          6    2    1    2  501    0 -0.30851032028E+01 -0.14042658794E+02  0.15714496541E+02  0.17303789612E+03  0.17172202527E+03 0.  0.
         24    2    3    3    0    0  0.15481253370E+02 -0.28000921877E+02  0.72143268266E+02  0.11183463654E+03  0.79237705301E+02 0.  0.
         -6    2    1    2    0  502  0.30851032028E+01  0.14042658794E+02 -0.11252270688E+03  0.20634963914E+03  0.17237198114E+03 0.  0.
        -24    2    5    5    0    0  0.26279548723E+02  0.46505528218E+02 -0.13091050598E+03  0.16216795345E+03  0.79419806812E+02 0.  0.
          5    1    3    3  501    0 -0.18566356573E+02  0.13958263083E+02 -0.56428771725E+02  0.61203259579E+02  0.47000000000E+01 0. -1.
        -13    1    4    4    0    0  0.27972100586E+02 -0.69911597405E+01 -0.64356145227E+01  0.29542035475E+02  0.00000000000E+00 0.  1.
         14    1    4    4    0    0 -0.12490847216E+02 -0.21009762136E+02  0.78578882789E+02  0.82292601062E+02  0.00000000000E+00 0. -1.
         -5    1    5    5    0  502 -0.23194445520E+02 -0.32462869425E+02  0.18387799105E+02  0.44181685688E+02  0.47000000000E+01 0.  1.
         13    1    6    6    0    0  0.47088236904E+02  0.13663356415E+02 -0.10371680212E+03  0.11472211821E+03  0.00000000000E+00 0. -1.
        -14    1    6    6    0    0 -0.20808688180E+02  0.32842171803E+02 -0.27193703862E+02  0.47445835247E+02  0.00000000000E+00 0.  1.
</event>
<event>
12    1  0.8691829E-002  0.3234943E+03  0.7818608E-02  0.1074529E+00
         21   -1    0    0  503  502  0.00000000000E+00  0.00000000000E+00  0.30366297321E+03  0.30366297321E+03  0.00000000000E+00 0.  1.
         21   -1    0    0  501  503 -0.00000000000E+00 -0.00000000000E+00 -0.34872962631E+03  0.34872962631E+03  0.00000000000E+00 0. -1.
          6    2    1    2  501    0 -0.26462552370E+03  0.44078837897E+02 -0.73721044908E+02  0.33178814161E+03  0.18077324666E+03 0.  0.
         24    2    3    3    0    0 -0.15824169290E+03  0.70134283457E+02  0.14515812012E+02  0.19106060835E+03  0.79587663472E+02 0.  0.
         -6    2    1    2    0  502  0.26462552370E+03 -0.44078837897E+02  0.28654391815E+02  0.32060445791E+03  0.17319507071E+03 0.  0.
        -24    2    5    5    0    0  0.18335452225E+03 -0.54169471432E+02 -0.42282573250E+02  0.21215659221E+03  0.81666340400E+02 0.  0.
          5    1    3    3  501    0 -0.10638383079E+03 -0.26055445560E+02 -0.88236856920E+02  0.14072753326E+03  0.47000000000E+01 0. -1.
        -11    1    4    4    0    0 -0.56555213695E+01 -0.52152509165E+01 -0.16385049500E+02  0.18101204689E+02  0.00000000000E+00 0.  1.
         12    1    4    4    0    0 -0.15258617153E+03  0.75349534374E+02  0.30900861512E+02  0.17295940367E+03  0.00000000000E+00 0. -1.
         -5    1    5    5    0  502  0.81271001453E+02  0.10090633535E+02  0.70936965065E+02  0.10844786570E+03  0.47000000000E+01 0.  1.
         13    1    6    6    0    0  0.34504888146E+02 -0.35181016344E+02 -0.37675272510E+02  0.62029971592E+02  0.00000000000E+00 0. -1.
        -14    1    6    6    0    0  0.14884963410E+03 -0.18988455088E+02 -0.46073007399E+01  0.15012662062E+03  0.00000000000E+00 0.  1.
</event>
<event>
12    1  0.8691829E-002  0.2470260E+03  0.7818608E-02  0.1115365E+00
         21   -1    0    0  503  502  0.00000000000E+00  0.00000000000E+00  0.71701620493E+02  0.71701620493E+02  0.00000000000E+00 0.  1.
         21   -1    0    0  501  503 -0.00000000000E+00 -0.00000000000E+00 -0.84751200328E+03  0.84751200328E+03  0.00000000000E+00 0. -1.
          6    2    1    2  501    0 -0.17637157439E+03 -0.54951311299E+00 -0.38851162231E+03  0.45984210510E+03  0.17148249688E+03 0.  0.
         24    2    3    3    0    0 -0.57003985379E+02 -0.64357926694E+02 -0.14139745764E+03  0.17804850097E+03  0.65701069944E+02 0.  0.
         -6    2    1    2    0  502  0.17637157439E+03  0.54951311299E+00 -0.38729876047E+03  0.45937151867E+03  0.17295845768E+03 0.  0.
        -24    2    5    5    0    0  0.19832354517E+03  0.23467225586E+02 -0.32993348796E+03  0.39364500152E+03  0.78850120499E+02 0.  0.
          5    1    3    3  501    0 -0.11936758901E+03  0.63808413581E+02 -0.24711416467E+03  0.28179360414E+03  0.47000000000E+01 0. -1.
        -13    1    4    4    0    0 -0.68513665204E+02 -0.43485383502E+02 -0.12531447956E+03  0.14929440608E+03  0.00000000000E+00 0.  1.
         14    1    4    4    0    0  0.11509679825E+02 -0.20872543192E+02 -0.16082978076E+02  0.28754094887E+02  0.00000000000E+00 0. -1.
         -5    1    5    5    0  502 -0.21951970773E+02 -0.22917712473E+02 -0.57365272516E+02  0.65726517150E+02  0.47000000000E+01 0.  1.
         13    1    6    6    0    0  0.16973238662E+03  0.20071742592E+02 -0.32071275250E+03  0.36341247576E+03  0.00000000000E+00 0. -1.
        -14    1    6    6    0    0  0.28591158542E+02  0.33954829939E+01 -0.92207354535E+01  0.30232525760E+02  0.00000000000E+00 0.  1.
</event>
<event>
12    1  0.8691829E-002  0.2287278E+03  0.7818608E-02  0.1128473E+00
         21   -1    0    0  503  502  0.00000000000E+00  0.00000000000E+00  0.36621870437E+03  0.36621870437E+03  0.00000000000E+00 0. -1.
         21   -1    0    0  501  503 -0.00000000000E+00 -0.00000000000E+00 -0.26217224512E+03  0.26217224512E+03  0.00000000000E+00 0. -1.
          6    2    1    2  501    0  0.23591097471E+01  0.14593361819E+03 -0.16310523101E+03  0.27670014029E+03  0.16928515865E+03 0.  0.
         24    2    3    3    0    0  0.52145117069E+02  0.71825218561E+02 -0.39143762742E+02  0.12386285088E+03  0.77018156366E+02 0.  0.
         -6    2    1    2    0  502 -0.23591097471E+01 -0.14593361819E+03  0.26715169027E+03  0.35169080920E+03  0.17610852718E+03 0.  0.
        -24    2    5    5    0    0 -0.30871197531E+02 -0.15984776139E+03  0.26250317355E+03  0.31928338353E+03  0.80806096390E+02 0.  0.
          5    1    3    3  501    0 -0.49786007322E+02  0.74108399626E+02 -0.12396146827E+03  0.15283728942E+03  0.47000000000E+01 0. -1.
        -11    1    4    4    0    0  0.18142574505E+02 -0.31862322963E+01 -0.37166555387E+02  0.41480813942E+02  0.00000000000E+00 0.  1.
         12    1    4    4    0    0  0.34002542564E+02  0.75011450857E+02 -0.19772073549E+01  0.82382036934E+02  0.00000000000E+00 0. -1.
         -5    1    5    5    0  502  0.28512087783E+02  0.13914143207E+02  0.46485167233E+01  0.32407425672E+02  0.47000000000E+01 0.  1.
         11    1    6    6    0    0  0.13691777726E+02 -0.12121475929E+03  0.19049414568E+03  0.22620455828E+03  0.00000000000E+00 0. -1.
        -12    1    6    6    0    0 -0.44562975257E+02 -0.38633002102E+02  0.72009027869E+02  0.93078825250E+02  0.00000000000E+00 0.  1.
</event>
<event>
12    1  0.8691829E-002  0.2002372E+03  0.7818608E-02  0.1149836E+00
         21   -1    0    0  501  502  0.00000000000E+00  0.00000000000E+00  0.41442415919E+03  0.41442415919E+03  0.00000000000E+00 0. -1.
         21   -1    0    0  502  503 -0.00000000000E+00 -0.00000000000E+00 -0.10775145058E+03  0.10775145058E+03  0.00000000000E+00 0. -1.
         -6    2    1    2    0  503  0.75278778035E+02 -0.66480684677E+02  0.66893930942E+02  0.20978352603E+03  0.17160347881E+03 0.  0.
        -24    2    3    3    0    0  0.25197091189E+02  0.29917470846E+02  0.35766950500E+02  0.96682868838E+02  0.80860088502E+02 0.  0.
          6    2    1    2  501    0 -0.75278778035E+02  0.66480684677E+02  0.23977877767E+03  0.31239208374E+03  0.17322925823E+03 0.  0.
         24    2    5    5    0    0 -0.50690029896E+02 -0.29920088995E+02  0.13045336635E+03  0.16450073423E+03  0.81103143675E+02 0.  0.
          5    1    5    5  501    0 -0.24588748139E+02  0.96400773672E+02  0.10932541133E+03  0.14789134952E+03  0.47000000000E+01 0. -1.
        -11    1    6    6    0    0 -0.71243566999E+02 -0.33008746735E+02  0.11149713055E+03  0.13637020686E+03  0.00000000000E+00 0.  1.
         12    1    6    6    0    0  0.20553537103E+02  0.30886577398E+01  0.18956235799E+02  0.28130527363E+02  0.00000000000E+00 0. -1.
         -5    1    3    3    0  503  0.50081686846E+02 -0.96398155523E+02  0.31126980442E+02  0.11310065719E+03  0.47000000000E+01 0.  1.
         11    1    4    4    0    0  0.87881037784E+00 -0.27228066266E+02  0.15563738270E+02  0.31374668910E+02  0.00000000000E+00 0. -1.
        -12    1    4    4    0    0  0.24318280811E+02  0.57145537112E+02  0.20203212230E+02  0.65308199929E+02  0.00000000000E+00 0.  1.
</event>
<event>
12    1  0.8691829E-002  0.1945847E+03  0.7818608E-02  0.1154590E+00
         21   -1    0    0  501  502  0.00000000000E+00  0.00000000000E+00  0.56252387408E+02  0.56252387408E+02  0.00000000000E+00 0. -1.
         21   -1    0    0  502  503 -0.00000000000E+00 -0.00000000000E+00 -0.83516341915E+03  0.83516341915E+03  0.00000000000E+00 0. -1.
         -6    2    1    2    0  503 -0.71685809277E+02  0.56820776973E+02 -0.58843686557E+03  0.61977506673E+03  0.17174321711E+03 0.  0.
        -24    2    3    3    0    0 -0.61807786436E+01 -0.23552140555E+02 -0.34872458765E+03  0.35855718622E+03  0.79759089807E+02 0.  0.
          6    2    1    2  501    0  0.71685809277E+02 -0.56820776973E+02 -0.19047416617E+03  0.27164073983E+03  0.17070684700E+03 0.  0.
         24    2    5    5    0    0  0.73588377753E+02  0.23841036943E+02 -0.93682384841E+02  0.14554281390E+03  0.80141606337E+02 0.  0.
          5    1    5    5  501    0 -0.19025684764E+01 -0.80661813916E+02 -0.96791781328E+02  0.12609792593E+03  0.47000000000E+01 0. -1.
        -13    1    6    6    0    0 -0.91907619306E+01  0.26832430514E+02 -0.27656172636E+02  0.39614559407E+02  0.00000000000E+00 0.  1.
         14    1    6    6    0    0  0.82779139684E+02 -0.29913935710E+01 -0.66026212205E+02  0.10592825450E+03  0.00000000000E+00 0. -1.
         -5    1    3    3    0  503 -0.65505030633E+02  0.80372917528E+02 -0.23971227792E+03  0.26121788050E+03  0.47000000000E+01 0.  1.
         13    1    4    4    0    0  0.87059400974E+01  0.28172207177E+02 -0.11590454916E+03  0.11959653493E+03  0.00000000000E+00 0. -1.
        -14    1    4    4    0    0 -0.14886718741E+02 -0.51724347732E+02 -0.23282003849E+03  0.23896065130E+03  0.00000000000E+00 0.  1.
</event>
<event>
12    1  0.8691829E-002  0.2195754E+03  0.7818608E-02  0.1134265E+00
         21   -1    0    0  501  502  0.00000000000E+00  0.00000000000E+00  0.26277658938E+03  0.26277658938E+03  0.00000000000E+00 0. -1.
         21   -1    0    0  502  503 -0.00000000000E+00 -0.00000000000E+00 -0.28379043750E+03  0.28379043750E+03  0.00000000000E+00 0.  1.
         -6    2    1    2    0  503  0.11674634662E+03  0.69817431130E+02 -0.17321414374E+03  0.27939990079E+03  0.17192144087E+03 0.  0.
        -24    2    3    3    0    0  0.58479549240E+02  0.75198575211E+02 -0.35230622381E+02  0.12944818004E+03  0.80255536690E+02 0.  0.
          6    2    1    2  501    0 -0.11674634662E+03 -0.69817431130E+02  0.15220029561E+03  0.26716712610E+03  0.17236345362E+03 0.  0.
         24    2    5    5    0    0 -0.60406166245E+02 -0.97994001660E+02  0.56963402006E+02  0.15288549610E+03  0.82930190327E+02 0.  0.
          5    1    5    5  501    0 -0.56340180374E+02  0.28176570530E+02  0.95236893605E+02  0.11428163000E+03  0.47000000000E+01 0. -1.
        -13    1    6    6    0    0 -0.74934099810E+02 -0.75093999609E+02  0.21502687257E+02  0.10824321526E+03  0.00000000000E+00 0.  1.
         14    1    6    6    0    0  0.14527933565E+02 -0.22900002051E+02  0.35460714749E+02  0.44642280835E+02  0.00000000000E+00 0. -1.
         -5    1    3    3    0  503  0.58266797379E+02 -0.53811440803E+01 -0.13798352136E+03  0.14995172075E+03  0.47000000000E+01 0.  1.
         13    1    4    4    0    0  0.71012487299E+02  0.51995024274E+02 -0.33539846442E+01  0.88076700180E+02  0.00000000000E+00 0. -1.
        -14    1    4    4    0    0 -0.12532938059E+02  0.23203550937E+02 -0.31876637736E+02  0.41371479860E+02  0.00000000000E+00 0.  1.
</event>
<event>
12    1  0.8691829E-002  0.1797876E+03  0.7818608E-02  0.1168948E+00
         21   -1    0    0  501  502  0.00000000000E+00  0.00000000000E+00  0.55111004897E+02  0.55111004897E+02  0.00000000000E+00 0.  1.
         21   -1    0    0  502  503 -0.00000000000E+00 -0.00000000000E+00 -0.97276843351E+03  0.97276843351E+03  0.00000000000E+00 0. -1.
         -6    2    1    2    0  503  0.52305255034E+02  0.60241122281E+01 -0.78492017833E+03  0.80440065620E+03  0.16789460892E+03 0.  0.
        -24    2    3    3    0    0 -0.42377649489E+01  0.57773892634E+02 -0.46799998427E+03  0.47830917779E+03  0.79999393532E+02 0.  0.
          6    2    1    2  501    0 -0.52305255034E+02 -0.60241122281E+01 -0.13273725028E+03  0.22347878221E+03  0.17190537762E+03 0.  0.
         24    2    5    5    0    0 -0.70880482814E+02 -0.82695906885E+01 -0.15837111662E+03  0.19139660079E+03  0.80366779473E+02 0.  0.
          5    1    5    5  501    0  0.18575227779E+02  0.22454784604E+01  0.25633866341E+02  0.32082181412E+02  0.47000000000E+01 0. -1.
        -13    1    6    6    0    0 -0.55741143315E+01 -0.15671359833E+02  0.32277467145E+01  0.16943453557E+02  0.00000000000E+00 0.  1.
         14    1    6    6    0    0 -0.65306368482E+02  0.74017691443E+01 -0.16159886333E+03  0.17445314724E+03  0.00000000000E+00 0. -1.
         -5    1    3    3    0  503  0.56543019983E+02 -0.51749780406E+02 -0.31692019407E+03  0.32609147840E+03  0.47000000000E+01 0.  1.
         13    1    4    4    0    0  0.74576348491E+01  0.41624068476E+02 -0.44826257950E+03  0.45025272856E+03  0.00000000000E+00 0. -1.
        -14    1    4    4    0    0 -0.11695399798E+02  0.16149824158E+02 -0.19737404769E+02  0.28056449237E+02  0.00000000000E+00 0.  1.
</event>
<event>
12    1  0.8691829E-002  0.2457195E+03  0.7818608E-02  0.1116278E+00
         21   -1    0    0  501  502  0.00000000000E+00  0.00000000000E+00  0.22173784425E+04  0.22173784425E+04  0.00000000000E+00 0. -1.
         21   -1    0    0  502  503 -0.00000000000E+00 -0.00000000000E+00 -0.94530651322E+02  0.94530651322E+02  0.00000000000E+00 0. -1.
         -6    2    1    2    0  503  0.16708077568E+03 -0.44611100287E+02  0.85797776881E+02  0.26026779036E+03  0.17456210446E+03 0.  0.
        -24    2    3    3    0    0  0.11955889578E+03 -0.97787188554E+02  0.54122342560E+02  0.18209203599E+03  0.79822414154E+02 0.  0.
          6    2    1    2  501    0 -0.16708077568E+03  0.44611100287E+02  0.20370500143E+04  0.20516413035E+04  0.17249098945E+03 0.  0.
         24    2    5    5    0    0 -0.11321920261E+03 -0.35329993039E+02  0.10077616086E+04  0.10178384405E+04  0.79654471625E+02 0.  0.
          5    1    5    5  501    0 -0.53861573064E+02  0.79941093326E+02  0.10292884057E+04  0.10338028630E+04  0.47000000000E+01 0. -1.
        -13    1    6    6    0    0 -0.62647161894E+02 -0.50658519526E+02  0.41654518975E+03  0.42426506762E+03  0.00000000000E+00 0.  1.
         14    1    6    6    0    0 -0.50572040718E+02  0.15328526487E+02  0.59121641885E+03  0.59357337284E+03  0.00000000000E+00 0. -1.
         -5    1    3    3    0  503  0.47521879896E+02  0.53176088267E+02  0.31675434320E+02  0.78175754372E+02  0.47000000000E+01 0.  1.
         13    1    4    4    0    0  0.58536320806E+02 -0.50771889185E+02  0.68858104351E+02  0.10366158459E+03  0.00000000000E+00 0. -1.
        -14    1    4    4    0    0  0.61022574974E+02 -0.47015299369E+02 -0.14735761791E+02  0.78430451400E+02  0.00000000000E+00 0.  1.
</event>
<event>
12    1  0.8691829E-002  0.2583269E+03  0.7818608E-02  0.1108520E+00
         21   -1    0    0  501  502  0.00000000000E+00  0.00000000000E+00  0.12146882300E+03  0.12146882300E+03  0.00000000000E+00 0. -1.
         21   -1    0    0  502  503 -0.00000000000E+00 -0.00000000000E+00 -0.66671805692E+03  0.66671805692E+03  0.00000000000E+00 0.  1.
         -6    2    1    2    0  503 -0.12020064928E+03  0.14676795032E+03 -0.44256845326E+03  0.51244474745E+03  0.17533897469E+03 0.  0.
        -24    2    3    3    0    0 -0.34608428499E+02  0.12365623371E+03 -0.35896413249E+03  0.39049413387E+03  0.84509246327E+02 0.  0.
          6    2    1    2  501    0  0.12020064928E+03 -0.14676795032E+03 -0.10268078066E+03  0.27574213246E+03  0.17175958073E+03 0.  0.
         24    2    5    5    0    0  0.11616072264E+03 -0.57014890588E+02 -0.19498518131E+02  0.15321331325E+03  0.79687614563E+02 0.  0.
          5    1    5    5  501    0  0.40399266339E+01 -0.89753059732E+02 -0.83182262526E+02  0.12252881921E+03  0.47000000000E+01 0. -1.
        -11    1    6    6    0    0  0.27076214518E+02 -0.18950482320E+02  0.29813156941E+02  0.44509173207E+02  0.00000000000E+00 0.  1.
         12    1    6    6    0    0  0.89084508123E+02 -0.38064408268E+02 -0.49311675072E+02  0.10870414004E+03  0.00000000000E+00 0. -1.
         -5    1    3    3    0  503 -0.85592220777E+02  0.23111716614E+02 -0.83604320767E+02  0.12195061358E+03  0.47000000000E+01 0.  1.
         13    1    4    4    0    0 -0.30827244194E+02  0.21441554161E+02 -0.18428170307E+03  0.18806861864E+03  0.00000000000E+00 0. -1.
        -14    1    4    4    0    0 -0.37811843052E+01  0.10221467955E+03 -0.17468242942E+03  0.20242551523E+03  0.00000000000E+00 0.  1.
</event>
<event>
12    1  0.8691829E-002  0.1731972E+03  0.7818608E-02  0.1174902E+00
         21   -1    0    0  503  502  0.00000000000E+00  0.00000000000E+00  0.13722414210E+04  0.13722414210E+04  0.00000000000E+00 0. -1.
         21   -1    0    0  501  503 -0.00000000000E+00 -0.00000000000E+00 -0.29511927346E+02  0.29511927346E+02  0.00000000000E+00 0. -1.
          6    2    1    2  501    0  0.45937171901E+01 -0.31932368946E+01  0.31245343055E+03  0.35724558683E+03  0.17310679954E+03 0.  0.
         24    2    3    3    0    0  0.39727136074E+02 -0.43668846808E+02  0.25642624639E+03  0.27956825754E+03  0.94439278190E+02 0.  0.
         -6    2    1    2    0  502 -0.45937171901E+01  0.31932368946E+01  0.10302760631E+04  0.10445077615E+04  0.17174515616E+03 0.  0.
        -24    2    5    5    0    0 -0.34186969681E+02 -0.54083366318E+02  0.75392506157E+03  0.76069737426E+03  0.78509472852E+02 0.  0.
          5    1    3    3  501    0 -0.35133418883E+02  0.40475609914E+02  0.56027184156E+02  0.77677329285E+02  0.47000000000E+01 0. -1.
        -13    1    4    4    0    0  0.64297932321E+02 -0.97330675313E+01  0.11553403749E+03  0.13257854473E+03  0.00000000000E+00 0.  1.
         14    1    4    4    0    0 -0.24570796247E+02 -0.33935779277E+02  0.14089220890E+03  0.14698971281E+03  0.00000000000E+00 0. -1.
         -5    1    5    5    0  502  0.29593252491E+02  0.57276603212E+02  0.27635100156E+03  0.28381038729E+03  0.47000000000E+01 0.  1.
         13    1    6    6    0    0  0.87400327220E+01 -0.56025860674E+02  0.49408458928E+03  0.49732772555E+03  0.00000000000E+00 0. -1.
        -14    1    6    6    0    0 -0.42927002403E+02  0.19424943561E+01  0.25984047229E+03  0.26336964870E+03  0.00000000000E+00 0.  1.
</event>
<event>
12    1  0.8691829E-002  0.2495236E+03  0.7818608E-02  0.1113663E+00
         21   -1    0    0  503  502  0.00000000000E+00  0.00000000000E+00  0.28520456348E+03  0.28520456348E+03  0.00000000000E+00 0. -1.
         21   -1    0    0  501  503 -0.00000000000E+00 -0.00000000000E+00 -0.48702558537E+03  0.48702558537E+03  0.00000000000E+00 0.  1.
          6    2    1    2  501    0  0.11460629333E+02  0.18089179807E+03 -0.38785315778E+03  0.46099068067E+03  0.17096533867E+03 0.  0.
         24    2    3    3    0    0  0.27427182999E+02  0.69510497973E+02 -0.29629577153E+03  0.31585085214E+03  0.79916311689E+02 0.  0.
         -6    2    1    2    0  502 -0.11460629333E+02 -0.18089179807E+03  0.18603213589E+03  0.31123946819E+03  0.17149012315E+03 0.  0.
        -24    2    5    5    0    0  0.56035678844E+02 -0.97551481389E+02  0.13262974305E+03  0.19134257263E+03  0.79781216687E+02 0.  0.
          5    1    3    3  501    0 -0.15966553666E+02  0.11138130010E+03 -0.91557386248E+02  0.14513982852E+03  0.47000000000E+01 0. -1.
        -11    1    4    4    0    0  0.20561649111E+02  0.71596715979E+02 -0.13333433263E+03  0.15273151414E+03  0.00000000000E+00 0.  1.
         12    1    4    4    0    0  0.68655338880E+01 -0.20862180060E+01 -0.16296143890E+03  0.16311933800E+03  0.00000000000E+00 0. -1.
         -5    1    5    5    0  502 -0.67496308177E+02 -0.83340316682E+02  0.53402392846E+02  0.11989689556E+03  0.47000000000E+01 0.  1.
         13    1    6    6    0    0  0.31386242311E+02 -0.10349652598E+03  0.12404726535E+03  0.16457323943E+03  0.00000000000E+00 0. -1.
        -14    1    6    6    0    0  0.24649436534E+02  0.59450445908E+01  0.85824776987E+01  0.26769333202E+02  0.00000000000E+00 0.  1.
</event>
<event>
12    1  0.8691829E-002  0.2606740E+03  0.7818608E-02  0.1107396E+00
         21   -1    0    0  503  502  0.00000000000E+00  0.00000000000E+00  0.13230796941E+03  0.13230796941E+03  0.00000000000E+00 0. -1.
         21   -1    0    0  501  503 -0.00000000000E+00 -0.00000000000E+00 -0.51712302152E+03  0.51712302152E+03  0.00000000000E+00 0.  1.
          6    2    1    2  501    0  0.12916818560E+03 -0.13830414659E+03 -0.14121483798E+03  0.29265097636E+03  0.17288871092E+03 0.  0.
         24    2    3    3    0    0 -0.16573764901E+01 -0.30064055714E+02 -0.44107025458E+02  0.96989886154E+02  0.80963040819E+02 0.  0.
         -6    2    1    2    0  502 -0.12916818560E+03  0.13830414659E+03 -0.24360021414E+03  0.35678001457E+03  0.17927202051E+03 0.  0.
        -24    2    5    5    0    0 -0.39466199521E+02  0.24195508751E+02 -0.16945105526E+03  0.19372353572E+03  0.81683196646E+02 0.  0.
          5    1    3    3  501    0  0.13082556209E+03 -0.10824009087E+03 -0.97107812519E+02  0.19566109021E+03  0.47000000000E+01 0. -1.
        -11    1    4    4    0    0 -0.17658940128E+02  0.19330716731E+01  0.18016573945E+02  0.25301617918E+02  0.00000000000E+00 0.  1.
         12    1    4    4    0    0  0.16001563637E+02 -0.31997127387E+02 -0.62123599403E+02  0.71688268236E+02  0.00000000000E+00 0. -1.
         -5    1    5    5    0  502 -0.89701986076E+02  0.11410863784E+03 -0.74149158880E+02  0.16305647886E+03  0.47000000000E+01 0.  1.
         11    1    6    6    0    0  0.22933466511E+02  0.13747879092E+02 -0.27730612873E+02  0.38521876331E+02  0.00000000000E+00 0. -1.
        -12    1    6    6    0    0 -0.62399666032E+02  0.10447629660E+02 -0.14172044238E+03  0.15520165938E+03  0.00000000000E+00 0.  1.
</event>
<event>
12    1  0.8691829E-002  0.1943691E+03  0.7818608E-02  0.1154961E+00
         21   -1    0    0  503  502  0.00000000000E+00  0.00000000000E+00  0.95493226426E+03  0.95493226426E+03  0.00000000000E+00 0.  1.
         21   -1    0    0  501  503 -0.00000000000E+00 -0.00000000000E+00 -0.63873678434E+02  0.63873678434E+02  0.00000000000E+00 0.  1.
          6    2    1    2  501    0 -0.72870610466E+02 -0.52873216232E+02  0.13021583658E+03  0.23395623569E+03  0.17226042278E+03 0.  0.
         24    2    3    3    0    0 -0.48973832601E+02 -0.69185563455E+02  0.17567611661E+02  0.11755665991E+03  0.79535330761E+02 0.  0.
         -6    2    1    2    0  502  0.72870610466E+02  0.52873216232E+02  0.76084274925E+03  0.78484970701E+03  0.17029876876E+03 0.  0.
        -24    2    5    5    0    0  0.88432907932E+02  0.84571693148E+02  0.66801908582E+03  0.68542485582E+03  0.92655185871E+02 0.  0.
          5    1    3    3  501    0 -0.23896777866E+02  0.16312347223E+02  0.11264822492E+03  0.11639957578E+03  0.47000000000E+01 0. -1.
        -13    1    4    4    0    0 -0.12900535381E+02  0.13209623401E+02 -0.12974639275E+02  0.22566772650E+02  0.00000000000E+00 0.  1.
         14    1    4    4    0    0 -0.36073297220E+02 -0.82395186856E+02  0.30542250936E+02  0.94989887260E+02  0.00000000000E+00 0. -1.
         -5    1    5    5    0  502 -0.15562297466E+02 -0.31698476916E+02  0.92823663433E+02  0.99424851191E+02  0.47000000000E+01 0.  1.
         11    1    6    6    0    0  0.42510747649E+01 -0.14957146919E+02  0.25912334526E+02  0.30219810740E+02  0.00000000000E+00 0. -1.
        -12    1    6    6    0    0  0.84181833167E+02  0.99528840067E+02  0.64210675129E+03  0.65520504508E+03  0.00000000000E+00 0.  1.
</event>
<event>
12    1  0.8691829E-002  0.1971766E+03  0.7818608E-02  0.1152264E+00
         21   -1    0    0  501  502  0.00000000000E+00  0.00000000000E+00  0.95474955306E+03  0.95474955306E+03  0.00000000000E+00 0. -1.
         21   -1    0    0  502  503 -0.00000000000E+00 -0.00000000000E+00 -0.47507251705E+02  0.47507251705E+02  0.00000000000E+00 0. -1.
         -6    2    1    2    0  503 -0.94492567617E+02  0.14934662378E+02  0.26316901132E+03  0.32884119687E+03  0.17241436936E+03 0.  0.
        -24    2    3    3    0    0 -0.89934148327E+02  0.35405587133E+02  0.10855605594E+03  0.17274156869E+03  0.93346267384E+02 0.  0.
          6    2    1    2  501    0  0.94492567617E+02 -0.14934662378E+02  0.64407329003E+03  0.67341560790E+03  0.17177394608E+03 0.  0.
         24    2    5    5    0    0  0.47224773532E+01  0.32824134317E+02  0.15394804488E+03  0.17283153134E+03  0.71211039291E+02 0.  0.
          5    1    5    5  501    0  0.89770090264E+02 -0.47758796695E+02  0.49012524516E+03  0.50058407656E+03  0.47000000000E+01 0. -1.
        -13    1    6    6    0    0  0.43598828458E+01  0.15659698470E+02  0.15479138657E+03  0.15564256517E+03  0.00000000000E+00 0.  1.
         14    1    6    6    0    0  0.36259450743E+00  0.17164435847E+02 -0.84334169788E+00  0.17188966168E+02  0.00000000000E+00 0. -1.
         -5    1    3    3    0  503 -0.45584192899E+01 -0.20470924755E+02  0.15461295538E+03  0.15609962818E+03  0.47000000000E+01 0.  1.
         11    1    4    4    0    0 -0.53757089369E+02  0.41421323973E+02  0.11686287372E+03  0.13513875089E+03  0.00000000000E+00 0. -1.
        -12    1    4    4    0    0 -0.36177058958E+02 -0.60157368398E+01 -0.83068177803E+01  0.37602817797E+02  0.00000000000E+00 0.  1.
</event>
<event>
12    1  0.8691829E-002  0.2440642E+03  0.7818608E-02  0.1117197E+00
         21   -1    0    0  503  502  0.00000000000E+00  0.00000000000E+00  0.71611687952E+02  0.71611687952E+02  0.00000000000E+00 0. -1.
         21   -1    0    0  501  503 -0.00000000000E+00 -0.00000000000E+00 -0.10508737152E+04  0.10508737152E+04  0.00000000000E+00 0.  1.
          6    2    1    2  501    0 -0.98554163442E+02  0.14342783191E+03 -0.74728497145E+03  0.78613114619E+03  0.17112242503E+03 0.  0.
         24    2    3    3    0    0  0.16834986506E+02  0.56633647860E+02 -0.35698227757E+03  0.36995069354E+03  0.77047922194E+02 0.  0.
         -6    2    1    2    0  502  0.98554163442E+02 -0.14342783191E+03 -0.23197705575E+03  0.33635425692E+03  0.17040060345E+03 0.  0.
        -24    2    5    5    0    0  0.39030615676E+02 -0.43298667026E+02 -0.31292461047E+02  0.10426526763E+03  0.80584517053E+02 0.  0.
          5    1    3    3  501    0 -0.11538914995E+03  0.86794184052E+02 -0.39030269389E+03  0.41618045265E+03  0.47000000000E+01 0. -1.
        -11    1    4    4    0    0  0.14169163450E+02  0.54867994801E+02 -0.36065571665E+03  0.36508055001E+03  0.00000000000E+00 0.  1.
         12    1    4    4    0    0  0.26658230558E+01  0.17656530589E+01  0.36734390825E+01  0.48701435279E+01  0.00000000000E+00 0. -1.
         -5    1    5    5    0  502  0.59523547766E+02 -0.10012916489E+03 -0.20068459471E+03  0.23208898929E+03  0.47000000000E+01 0.  1.
         11    1    6    6    0    0  0.52497241875E+02 -0.19571071313E+02 -0.46695610562E+02  0.72934678190E+02  0.00000000000E+00 0. -1.
        -12    1    6    6    0    0 -0.13466626199E+02 -0.23727595713E+02  0.15403149515E+02  0.31330589438E+02  0.00000000000E+00 0.  1.
</event>
<event>
12    1  0.8691829E-002  0.1944364E+03  0.7818608E-02  0.1154693E+00
         21   -1    0    0  501  502  0.00000000000E+00  0.00000000000E+00  0.29097369872E+03  0.29097369872E+03  0.00000000000E+00 0. -1.
         21   -1    0    0  502  503 -0.00000000000E+00 -0.00000000000E+00 -0.15482225575E+03  0.15482225575E+03  0.00000000000E+00 0. -1.
         -6    2    1    2    0  503  0.19769419904E+02  0.88090089905E+02 -0.22365131657E+02  0.19493141479E+03  0.17131072195E+03 0.  0.
        -24    2    3    3    0    0 -0.34413718619E+02  0.10454941651E+03 -0.22388598599E+02  0.13810877420E+03  0.80361058000E+02 0.  0.
          6    2    1    2  501    0 -0.19769419904E+02 -0.88090089905E+02  0.15851657462E+03  0.25086453968E+03  0.17220574594E+03 0.  0.
         24    2    5    5    0    0  0.10910479449E+02 -0.95580456016E+02  0.17491327403E+03  0.21497159385E+03  0.79771364517E+02 0.  0.
          5    1    5    5  501    0 -0.30679899353E+02  0.74903661104E+01 -0.16396699409E+02  0.35892945829E+02  0.47000000000E+01 0. -1.
        -11    1    6    6    0    0  0.14972795586E+02 -0.29245781307E+02  0.59264507165E+01  0.33385972354E+02  0.00000000000E+00 0.  1.
         12    1    6    6    0    0 -0.40623161368E+01 -0.66334674709E+02  0.16898682331E+03  0.18158562150E+03  0.00000000000E+00 0. -1.
         -5    1    3    3    0  503  0.54183138523E+02 -0.16459326606E+02  0.23466942431E-01  0.56822640587E+02  0.47000000000E+01 0.  1.
         13    1    4    4    0    0  0.94551822462E+01  0.18683862231E+02 -0.35079689143E+02  0.40854274801E+02  0.00000000000E+00 0. -1.
        -14    1    4    4    0    0 -0.43868900865E+02  0.85865554280E+02  0.12691090543E+02  0.97254499403E+02  0.00000000000E+00 0.  1.
</event>
<event>
12    1  0.8691829E-002  0.1943615E+03  0.7818608E-02  0.1154725E+00
         21   -1    0    0  501  502  0.00000000000E+00  0.00000000000E+00  0.22532492357E+03  0.22532492357E+03  0.00000000000E+00 0. -1.
         21   -1    0    0  502  503 -0.00000000000E+00 -0.00000000000E+00 -0.18744086000E+03  0.18744086000E+03  0.00000000000E+00 0.  1.
         -6    2    1    2    0  503  0.55937644884E+02 -0.72036514026E+02  0.86891307563E+02  0.21232104582E+03  0.17091473810E+03 0.  0.
        -24    2    3    3    0    0  0.86184499540E+02 -0.50764888076E+02  0.10967429848E+03  0.16863456092E+03  0.80027005245E+02 0.  0.
          6    2    1    2  501    0 -0.55937644884E+02  0.72036514026E+02 -0.49007244000E+02  0.20044473775E+03  0.17163363150E+03 0.  0.
         24    2    5    5    0    0 -0.92479937279E+02  0.59526358614E+02 -0.74046990287E+02  0.15417463925E+03  0.78682504071E+02 0.  0.
          5    1    5    5  501    0  0.36542292396E+02  0.12510155413E+02  0.25039746287E+02  0.46270098510E+02  0.47000000000E+01 0. -1.
        -13    1    6    6    0    0 -0.10362137278E+03  0.59682393829E+02 -0.53931446891E+02  0.13117918278E+03  0.00000000000E+00 0.  1.
         14    1    6    6    0    0  0.11141435502E+02 -0.15603521566E+00 -0.20115543396E+02  0.22995456468E+02  0.00000000000E+00 0. -1.
         -5    1    3    3    0  503 -0.30246854657E+02 -0.21271625951E+02 -0.22782990916E+02  0.43686484893E+02  0.47000000000E+01 0.  1.
         11    1    4    4    0    0  0.96869834951E+02 -0.28849329338E+02  0.73345366619E+02  0.12488231072E+03  0.00000000000E+00 0. -1.
        -12    1    4    4    0    0 -0.10685335411E+02 -0.21915558738E+02  0.36328931860E+02  0.43752250202E+02  0.00000000000E+00 0.  1.
</event>
<event>
12    1  0.8691829E-002  0.2120050E+03  0.7818608E-02  0.1141075E+00
         21   -1    0    0  503  502  0.00000000000E+00  0.00000000000E+00  0.58573881138E+02  0.58573881138E+02  0.00000000000E+00 0.  1.
         21   -1    0    0  501  503 -0.00000000000E+00 -0.00000000000E+00 -0.93832341990E+03  0.93832341990E+03  0.00000000000E+00 0. -1.
          6    2    1    2  501    0  0.10256019081E+03  0.66929308735E+02 -0.65997158047E+03  0.69153116336E+03  0.16629713695E+03 0.  0.
         24    2    3    3    0    0  0.52509262014E+02  0.80248647867E+02 -0.25768492942E+03  0.28589691938E+03  0.78348309373E+02 0.  0.
         -6    2    1    2    0  502 -0.10256019081E+03 -0.66929308735E+02 -0.21977795829E+03  0.30536613768E+03  0.17305491032E+03 0.  0.
        -24    2    5    5    0    0 -0.17715219961E+02 -0.33892539355E+02 -0.18937557776E+03  0.20925946803E+03  0.80398272788E+02 0.  0.
          5    1    3    3  501    0  0.50050928798E+02 -0.13319339133E+02 -0.40228665105E+03  0.40563424397E+03  0.47000000000E+01 0. -1.
        -13    1    4    4    0    0  0.21785990664E+02  0.79979122958E+02 -0.23021144961E+03  0.24468061025E+03  0.00000000000E+00 0.  1.
         14    1    4    4    0    0  0.30723271350E+02  0.26952490927E+00 -0.27473479805E+02  0.41216309135E+02  0.00000000000E+00 0. -1.
         -5    1    5    5    0  502 -0.84844970851E+02 -0.33036769379E+02 -0.30402380535E+02  0.96106669654E+02  0.47000000000E+01 0.  1.
         13    1    6    6    0    0  0.23781298302E+02 -0.40300407457E+02 -0.91989809235E+02  0.10320754814E+03  0.00000000000E+00 0. -1.
        -14    1    6    6    0    0 -0.41496518263E+02  0.64078681021E+01 -0.97385768521E+02  0.10605191989E+03  0.00000000000E+00 0.  1.
</event>
<event>
12    1  0.8691829E-002  0.2238825E+03  0.7818608E-02  0.1131425E+00
         21   -1    0    0  501  502  0.00000000000E+00  0.00000000000E+00  0.61028364724E+03  0.61028364724E+03  0.00000000000E+00 0.  1.
         21   -1    0    0  502  503 -0.00000000000E+00 -0.00000000000E+00 -0.85410190153E+02  0.85410190153E+02  0.00000000000E+00 0. -1.
         -6    2    1    2    0  503  0.81444795206E+01 -0.14206876277E+03  0.33974687584E+03  0.40687997288E+03  0.17283954058E+03 0.  0.
        -24    2    3    3    0    0  0.67147225734E+02 -0.11228866432E+03  0.20277139100E+03  0.25472034693E+03  0.81539708554E+02 0.  0.
          6    2    1    2  501    0 -0.81444795206E+01  0.14206876277E+03  0.18512658125E+03  0.28881386451E+03  0.16997567870E+03 0.  0.
         24    2    5    5    0    0  0.56075536119E+01  0.44989800310E+01  0.87637345176E+02  0.11957792067E+03  0.81036345942E+02 0.  0.
          5    1    5    5  501    0 -0.13752033133E+02  0.13756978274E+03  0.97489236076E+02  0.16923594384E+03  0.47000000000E+01 0. -1.
        -13    1    6    6    0    0  0.34677890038E+02  0.97062327714E+00  0.82962146386E+02  0.89923389060E+02  0.00000000000E+00 0.  1.
         14    1    6    6    0    0 -0.29070336426E+02  0.35283567539E+01  0.46751987900E+01  0.29654531611E+02  0.00000000000E+00 0. -1.
         -5    1    3    3    0  503 -0.59002746214E+02 -0.29780098445E+02  0.13697548484E+03  0.15215962595E+03  0.47000000000E+01 0.  1.
         11    1    4    4    0    0 -0.44998198140E+00 -0.25327934542E+02  0.16149763935E+01  0.25383358736E+02  0.00000000000E+00 0. -1.
        -12    1    4    4    0    0  0.67597207716E+02 -0.86960729781E+02  0.20115641461E+03  0.22933698819E+03  0.00000000000E+00 0.  1.
</event>
<event>
12    1  0.8691829E-002  0.2632477E+03  0.7818608E-02  0.1105226E+00
         21   -1    0    0  501  502  0.00000000000E+00  0.00000000000E+00  0.17623242130E+04  0.17623242130E+04  0.00000000000E+00 0. -1.
         21   -1    0    0  502  503 -0.00000000000E+00 -0.00000000000E+00 -0.44304597529E+03  0.44304597529E+03  0.00000000000E+00 0. -1.
         -6    2    1    2    0  503 -0.19610294718E+03 -0.33107899031E+02 -0.39301313852E+03  0.47296114188E+03  0.17228005052E+03 0.  0.
        -24    2    3    3    0    0 -0.65383951735E+02  0.27991030335E+02 -0.23937795840E+03  0.26213800864E+03  0.79724335562E+02 0.  0.
          6    2    1    2  501    0  0.19610294718E+03  0.33107899031E+02  0.17122913762E+04  0.17324090464E+04  0.17247274600E+03 0.  0.
         24    2    5    5    0    0  0.68915361844E+02 -0.18178797647E+02  0.10866116782E+04  0.10918591408E+04  0.79697228655E+02 0.  0.
          5    1    5    5  501    0  0.12718758533E+03  0.51286696679E+02  0.62567969801E+03  0.64054990565E+03  0.47000000000E+01 0. -1.
        -13    1    6    6    0    0  0.25922109582E+02 -0.38500909623E+02  0.27780095140E+03  0.28165163661E+03  0.00000000000E+00 0.  1.
         14    1    6    6    0    0  0.42993252261E+02  0.20322111975E+02  0.80881072680E+03  0.81020750414E+03  0.00000000000E+00 0. -1.
         -5    1    3    3    0  503 -0.13071899544E+03 -0.61098929367E+02 -0.15363518013E+03  0.21082313325E+03  0.47000000000E+01 0.  1.
         13    1    4    4    0    0 -0.32155314495E+02 -0.27026408632E+02 -0.81755574050E+02  0.91914987363E+02  0.00000000000E+00 0. -1.
        -14    1    4    4    0    0 -0.33228637240E+02  0.55017438967E+02 -0.15762238435E+03  0.17022302127E+03  0.00000000000E+00 0.  1.
</event>
<event>
12    1  0.8691829E-002  0.3138576E+03  0.7818608E-02  0.1078605E+00
         21   -1    0    0  501  502  0.00000000000E+00  0.00000000000E+00  0.15493112241E+03  0.15493112241E+03  0.00000000000E+00 0.  1.
         21   -1    0    0  502  503 -0.00000000000E+00 -0.00000000000E+00 -0.65336013592E+03  0.65336013592E+03  0.00000000000E+00 0. -1.
         -6    2    1    2    0  503  0.15385674784E+03 -0.21145970525E+03 -0.31872177372E+03  0.44731437168E+03  0.17354962479E+03 0.  0.
        -24    2    3    3    0    0  0.17706681769E+03 -0.20362983368E+03 -0.25792105861E+03  0.38159655682E+03  0.79214219757E+02 0.  0.
          6    2    1    2  501    0 -0.15385674784E+03  0.21145970525E+03 -0.17970723978E+03  0.36097688665E+03  0.17211192541E+03 0.  0.
         24    2    5    5    0    0 -0.13993781403E+03  0.20188199843E+03 -0.95923867112E+02  0.27537774693E+03  0.79325797403E+02 0.  0.
          5    1    5    5  501    0 -0.13918933809E+02  0.95777068223E+01 -0.83783372670E+02  0.85599139729E+02  0.47000000000E+01 0. -1.
        -13    1    6    6    0    0 -0.11431026420E+03  0.96397504068E+02 -0.52966138543E+02  0.15863394064E+03  0.00000000000E+00 0.  1.
         14    1    6    6    0    0 -0.25627549831E+02  0.10548449437E+03 -0.42957728570E+02  0.11674380628E+03  0.00000000000E+00 0. -1.
         -5    1    3    3    0  503 -0.23210069852E+02 -0.78298715721E+01 -0.60800715115E+02  0.65717814860E+02  0.47000000000E+01 0.  1.
         13    1    4    4    0    0  0.11560744782E+03 -0.96205535328E+02 -0.18318998920E+03  0.23702143186E+03  0.00000000000E+00 0. -1.
        -14    1    4    4    0    0  0.61459369874E+02 -0.10742429835E+03 -0.74731069407E+02  0.14457512496E+03  0.00000000000E+00 0.  1.
</event>
<event>
12    1  0.8691829E-002  0.2319932E+03  0.7818608E-02  0.1125694E+00
         21   -1    0    0  501  502  0.00000000000E+00  0.00000000000E+00  0.20292374192E+03  0.20292374192E+03  0.00000000000E+00 0.  1.
         21   -1    0    0  502  503 -0.00000000000E+00 -0.00000000000E+00 -0.45351231554E+03  0.45351231554E+03  0.00000000000E+00 0. -1.
         -6    2    1    2    0  503 -0.15586222988E+03 -0.52629177495E+01 -0.33800918741E+03  0.40851829506E+03  0.16827434035E+03 0.  0.
        -24    2    3    3    0    0 -0.11482146837E+02 -0.14715911860E+02 -0.14552665270E+03  0.16767273533E+03  0.81164904769E+02 0.  0.
          6    2    1    2  501    0  0.15586222988E+03  0.52629177495E+01  0.87420613786E+02  0.24791776240E+03  0.17175599027E+03 0.  0.
         24    2    5    5    0    0  0.26537945969E+02 -0.35164365819E+02  0.57233978615E+02  0.10902046722E+03  0.81663570607E+02 0.  0.
          5    1    5    5  501    0  0.12932428391E+03  0.40427283569E+02  0.30186635171E+02  0.13889729518E+03  0.47000000000E+01 0. -1.
        -11    1    6    6    0    0 -0.32921782824E+01  0.11561642902E+01  0.61709140771E+02  0.61807711561E+02  0.00000000000E+00 0.  1.
         12    1    6    6    0    0  0.29830124252E+02 -0.36320530109E+02 -0.44751621560E+01  0.47212755656E+02  0.00000000000E+00 0. -1.
         -5    1    3    3    0  503 -0.14438008305E+03  0.94529941106E+01 -0.19248253470E+03  0.24084555974E+03  0.47000000000E+01 0.  1.
         11    1    4    4    0    0 -0.38315878752E+02  0.25157041761E+01 -0.32730292271E+02  0.50455003361E+02  0.00000000000E+00 0. -1.
        -12    1    4    4    0    0  0.26833731915E+02 -0.17231616036E+02 -0.11279636043E+03  0.11721773196E+03  0.00000000000E+00 0.  1.
</event>
<event>
12    1  0.8691829E-002  0.1997520E+03  0.7818608E-02  0.1150202E+00
         21   -1    0    0  501  502  0.00000000000E+00  0.00000000000E+00  0.72528505402E+02  0.72528505402E+02  0.00000000000E+00 0. -1.
         21   -1    0    0  502  503 -0.00000000000E+00 -0.00000000000E+00 -0.81283290809E+03  0.81283290809E+03  0.00000000000E+00 0. -1.
         -6    2    1    2    0  503  0.37092715694E+02  0.93005873813E+02 -0.62412859182E+03  0.65531471772E+03  0.17284362302E+03 0.  0.
        -24    2    3    3    0    0 -0.22193786570E+01  0.66537404846E+02 -0.58373483770E+03  0.59286661140E+03  0.79450023801E+02 0.  0.
          6    2    1    2  501    0 -0.37092715694E+02 -0.93005873813E+02 -0.11617581087E+03  0.23004669577E+03  0.17146049423E+03 0.  0.
         24    2    5    5    0    0 -0.58573750040E+02 -0.11454602007E+03 -0.56412702422E+02  0.16282220716E+03  0.82322556097E+02 0.  0.
          5    1    5    5  501    0  0.21481034346E+02  0.21540146258E+02 -0.59763108451E+02  0.67224488612E+02  0.47000000000E+01 0. -1.
        -13    1    6    6    0    0 -0.20303140455E+02 -0.23121050910E+02 -0.55784872911E+02  0.63708339746E+02  0.00000000000E+00 0.  1.
         14    1    6    6    0    0 -0.38270609584E+02 -0.91424969162E+02 -0.62782951163E+00  0.99113867415E+02  0.00000000000E+00 0. -1.
         -5    1    3    3    0  503  0.39312094351E+02  0.26468468967E+02 -0.40393754120E+02  0.62448106325E+02  0.47000000000E+01 0.  1.
         13    1    4    4    0    0 -0.20848103464E+02  0.74189446625E+02 -0.35612661191E+03  0.36436915501E+03  0.00000000000E+00 0. -1.
        -14    1    4    4    0    0  0.18628724807E+02 -0.76520417794E+01 -0.22760822579E+03  0.22849745639E+03  0.00000000000E+00 0.  1.
</event>
<event>
12    1  0.8691829E-002  0.2696252E+03  0.7818608E-02  0.1101594E+00
         21   -1    0    0  503  502  0.00000000000E+00  0.00000000000E+00  0.57806353805E+02  0.57806353805E+02  0.00000000000E+00 0. -1.
         21   -1    0    0  501  503 -0.00000000000E+00 -0.00000000000E+00 -0.28441254458E+04  0.28441254458E+04  0.00000000000E+00 0.  1.
          6    2    1    2  501    0 -0.94239953441E+01  0.20742506503E+03 -0.24771632498E+04  0.24917183202E+04  0.17090480411E+03 0.  0.
         24    2    3    3    0    0  0.51287196592E+02  0.16946681375E+03 -0.19494808144E+04  0.19591795702E+04  0.80992377101E+02 0.  0.
         -6    2    1    2    0  502  0.94239953441E+01 -0.20742506503E+03 -0.30915584224E+03  0.41021347939E+03  0.17199940289E+03 0.  0.
        -24    2    5    5    0    0 -0.56042617017E+02 -0.11319298741E+03 -0.10244172713E+03  0.17374281066E+03  0.61145968609E+02 0.  0.
          5    1    3    3  501    0 -0.60711191936E+02  0.37958251283E+02 -0.52768243537E+03  0.53253875001E+03  0.47000000000E+01 0. -1.
        -11    1    4    4    0    0  0.80434742453E+00  0.11404209858E+03 -0.93437593819E+03  0.94131006639E+03  0.00000000000E+00 0.  1.
         12    1    4    4    0    0  0.50482849167E+02  0.55424715163E+02 -0.10151048762E+04  0.10178695038E+04  0.00000000000E+00 0. -1.
         -5    1    5    5    0  502  0.65466612361E+02 -0.94232077622E+02 -0.20671411511E+03  0.23647066873E+03  0.47000000000E+01 0.  1.
         13    1    6    6    0    0 -0.96432151412E+01 -0.73778890825E+02 -0.78951881324E+02  0.10848832146E+03  0.00000000000E+00 0. -1.
        -14    1    6    6    0    0 -0.46399401876E+02 -0.39414096581E+02 -0.23489845811E+02  0.65254489194E+02  0.00000000000E+00 0.  1.
</event>
<event>
12    1  0.8691829E-002  0.1794079E+03  0.7818608E-02  0.1169817E+00
         21   -1    0    0  503  502  0.00000000000E+00  0.00000000000E+00  0.48341702643E+03  0.48341702643E+03  0.00000000000E+00 0.  1.
         21   -1    0    0  501  503 -0.00000000000E+00 -0.00000000000E+00 -0.71903454844E+02  0.71903454844E+02  0.00000000000E+00 0. -1.
          6    2    1    2  501    0  0.17281812795E+02  0.43756032894E+02  0.29216464673E+03  0.33984112397E+03  0.16708847141E+03 0.  0.
         24    2    3    3    0    0 -0.26688895954E+02 -0.14220832501E+02  0.86466659268E+02  0.12160159457E+03  0.79974592172E+02 0.  0.
         -6    2    1    2    0  502 -0.17281812795E+02 -0.43756032894E+02  0.11934892486E+03  0.21547935730E+03  0.17312982438E+03 0.  0.
        -24    2    5    5    0    0 -0.33846575152E+02 -0.91720754435E+02  0.99677984346E+02  0.16085297389E+03  0.79872969151E+02 0.  0.
          5    1    3    3  501    0  0.43970708748E+02  0.57976865394E+02  0.20569798746E+03  0.21823952940E+03  0.47000000000E+01 0. -1.
        -13    1    4    4    0    0  0.44760096195E+01 -0.11714551569E+02  0.89329332824E+02  0.90205294098E+02  0.00000000000E+00 0.  1.
         14    1    4    4    0    0 -0.31164905573E+02 -0.25062809312E+01 -0.28626735557E+01  0.31396300473E+02  0.00000000000E+00 0. -1.
         -5    1    5    5    0  502  0.16564762357E+02  0.47964721541E+02  0.19670940513E+02  0.54626383416E+02  0.47000000000E+01 0.  1.
         11    1    6    6    0    0 -0.51745846482E+02 -0.55725524479E+02  0.32789363116E+02  0.82813700799E+02  0.00000000000E+00 0. -1.
        -12    1    6    6    0    0  0.17899271330E+02 -0.35995229956E+02  0.66888621231E+02  0.78039273086E+02  0.00000000000E+00 0.  1.
</event>
<event>
12    1  0.8691829E-002  0.1766571E+03  0.7818608E-02  0.1171746E+00
         21   -1    0    0  503  502  0.00000000000E+00  0.00000000000E+00  0.96803757941E+03  0.96803757941E+03  0.00000000000E+00 0. -1.
         21   -1    0    0  501  503 -0.00000000000E+00 -0.00000000000E+00 -0.34572742137E+02  0.34572742137E+02  0.00000000000E+00 0. -1.
          6    2    1    2  501    0  0.14143336586E+02  0.22748661812E+02  0.60664121842E+03  0.63109798350E+03  0.17191149267E+03 0.  0.
         24    2    3    3    0    0  0.13472441635E+02  0.80815400026E+02  0.46022364059E+03  0.47351501080E+03  0.75485300122E+02 0.  0.
         -6    2    1    2    0  502 -0.14143336586E+02 -0.22748661812E+02  0.32682361885E+03  0.37151233804E+03  0.17461444355E+03 0.  0.
        -24    2    5    5    0    0  0.32506750434E+02 -0.64607372458E+02  0.16507015985E+03  0.19797659597E+03  0.81949822948E+02 0.  0.
          5    1    3    3  501    0  0.67089495092E+00 -0.58066738214E+02  0.14641757783E+03  0.15758297270E+03  0.47000000000E+01 0. -1.
        -13    1    4    4    0    0 -0.12355056867E+02 -0.68584196864E+01  0.24276507561E+02  0.28089752048E+02  0.00000000000E+00 0.  1.
         14    1    4    4    0    0  0.25827498502E+02  0.87673819712E+02  0.43594713303E+03  0.44542525876E+03  0.00000000000E+00 0. -1.
         -5    1    5    5    0  502 -0.46650087021E+02  0.41858710645E+02  0.16175345900E+03  0.17353574207E+03  0.47000000000E+01 0.  1.
         11    1    6    6    0    0  0.34989833632E+02 -0.81694180497E+02  0.15290083168E+03  0.17685274076E+03  0.00000000000E+00 0. -1.
        -12    1    6    6    0    0 -0.24830831981E+01  0.17086808039E+02  0.12169328167E+02  0.21123855216E+02  0.00000000000E+00 0.  1.
</event>
<event>
12    1  0.8691829E-002  0.2163310E+03  0.7818608E-02  0.1136746E+00
         21   -1    0    0  503  502  0.00000000000E+00  0.00000000000E+00  0.24114037282E+03  0.24114037282E+03  0.00000000000E+00 0.  1.
         21   -1    0    0  501  503 -0.00000000000E+00 -0.00000000000E+00 -0.22562677297E+03  0.22562677297E+03  0.00000000000E+00 0.  1.
          6    2    1    2  501    0 -0.12907882177E+03  0.20460475600E+02 -0.80143077936E+02  0.23069899608E+03  0.17239240285E+03 0.  0.
         24    2    3    3    0    0 -0.11647563595E+03 -0.46283577011E+02 -0.42276438629E+02  0.15279147896E+03  0.76480033398E+02 0.  0.
         -6    2    1    2    0  502  0.12907882177E+03 -0.20460475600E+02  0.95656677780E+02  0.23606814971E+03  0.17174981226E+03 0.  0.
        -24    2    5    5    0    0 -0.82775308295E+00  0.16860109354E+02  0.45263261966E+02  0.91741677404E+02  0.77992461344E+02 0.  0.
          5    1    3    3  501    0 -0.12603185817E+02  0.66744052610E+02 -0.37866639307E+02  0.77907517121E+02  0.47000000000E+01 0. -1.
        -11    1    4    4    0    0 -0.11553456326E+03 -0.16155286059E+02 -0.32460886839E+02  0.12109061792E+03  0.00000000000E+00 0.  1.
         12    1    4    4    0    0 -0.94107269391E+00 -0.30128290952E+02 -0.98155517901E+01  0.31700861036E+02  0.00000000000E+00 0. -1.
         -5    1    5    5    0  502  0.12990657485E+03 -0.37320584954E+02  0.50393415814E+02  0.14432647231E+03  0.47000000000E+01 0.  1.
         11    1    6    6    0    0  0.33526142285E+02  0.58132714621E+01  0.22165449417E+00  0.34027128476E+02  0.00000000000E+00 0. -1.
        -12    1    6    6    0    0 -0.34353895368E+02  0.11046837892E+02  0.45041607472E+02  0.57714548928E+02  0.00000000000E+00 0.  1.
</event>
<event>
12    1  0.8691829E-002  0.1774510E+03  0.7818608E-02  0.1170989E+00
         21   -1    0    0  501  502  0.00000000000E+00  0.00000000000E+00  0.47341814499E+03  0.47341814499E+03  0.00000000000E+00 0. -1.
         21   -1    0    0  502  503 -0.00000000000E+00 -0.00000000000E+00 -0.16457837195E+03  0.16457837195E+03  0.00000000000E+00 0. -1.
         -6    2    1    2    0  503 -0.24346175923E+02  0.30787901517E+02 -0.92636609743E+02  0.20017593956E+03  0.17305558111E+03 0.  0.
        -24    2    3    3    0    0  0.13901633611E+02  0.54070326786E+01 -0.12128442190E+03  0.14586322854E+03  0.79647216049E+02 0.  0.
          6    2    1    2  501    0  0.24346175923E+02 -0.30787901517E+02  0.40147638279E+03  0.43782057738E+03  0.17018501955E+03 0.  0.
         24    2    5    5    0    0  0.48404859355E+02 -0.23963562772E+02  0.40143410949E+03  0.41237487765E+03  0.77371911600E+02 0.  0.
          5    1    5    5  501    0 -0.24058683432E+02 -0.68243387454E+01  0.42273297176E-01  0.25445699731E+02  0.47000000000E+01 0. -1.
        -11    1    6    6    0    0  0.10905559330E+02 -0.95371920381E+01  0.73453680522E+01  0.16243265931E+02  0.00000000000E+00 0.  1.
         12    1    6    6    0    0  0.37499300024E+02 -0.14426370734E+02  0.39408874144E+03  0.39613161172E+03  0.00000000000E+00 0. -1.
         -5    1    3    3    0  503 -0.38247809534E+02  0.25380868838E+02  0.28647812157E+02  0.54312711022E+02  0.47000000000E+01 0.  1.
         11    1    4    4    0    0  0.45468411711E+02  0.13841215737E+02 -0.81876379822E+02  0.94671523118E+02  0.00000000000E+00 0. -1.
        -12    1    4    4    0    0 -0.31566778099E+02 -0.84341830586E+01 -0.39408042078E+02  0.51191705421E+02  0.00000000000E+00 0.  1.
</event>
<event>
12    1  0.8691829E-002  0.2104580E+03  0.7818608E-02  0.1141588E+00
         21   -1    0    0  503  502  0.00000000000E+00  0.00000000000E+00  0.64091071154E+03  0.64091071154E+03  0.00000000000E+00 0.  1.
         21   -1    0    0  501  503 -0.00000000000E+00 -0.00000000000E+00 -0.87686501495E+02  0.87686501495E+02  0.00000000000E+00 0.  1.
          6    2    1    2  501    0  0.10997321629E+03 -0.42212474250E+02  0.10708944498E+03  0.23613704255E+03  0.17440341841E+03 0.  0.
         24    2    3    3    0    0  0.12363619620E+03  0.45857948465E+01  0.11496256802E+03  0.18653027812E+03  0.79184683403E+02 0.  0.
         -6    2    1    2    0  502 -0.10997321629E+03  0.42212474250E+02  0.44613476506E+03  0.49246017049E+03  0.17206042437E+03 0.  0.
        -24    2    5    5    0    0 -0.13093268577E+03  0.72542907483E+02  0.33840093163E+03  0.37849568739E+03  0.79611263126E+02 0.  0.
          5    1    3    3  501    0 -0.13662979910E+02 -0.46798269096E+02 -0.78731230353E+01  0.49606764426E+02  0.47000000000E+01 0. -1.
        -13    1    4    4    0    0  0.95719134760E+02 -0.30028155617E+02  0.93570798145E+02  0.13718358923E+03  0.00000000000E+00 0.  1.
         14    1    4    4    0    0  0.27917061441E+02  0.34613950464E+02  0.21391769875E+02  0.49346688892E+02  0.00000000000E+00 0. -1.
         -5    1    5    5    0  502  0.20959469482E+02 -0.30330433233E+02  0.10773383343E+03  0.11396448309E+03  0.47000000000E+01 0.  1.
         11    1    6    6    0    0 -0.28201471978E+02  0.55863035017E+02  0.94780819856E+02  0.11357554981E+03  0.00000000000E+00 0. -1.
        -12    1    6    6    0    0 -0.10273121380E+03  0.16679872465E+02  0.24362011178E+03  0.26492013758E+03  0.00000000000E+00 0.  1.
</event>
<event>
12    1  0.8691829E-002  0.2352040E+03  0.7818608E-02  0.1123268E+00
         21   -1    0    0  503  502  0.00000000000E+00  0.00000000000E+00  0.45272706975E+03  0.45272706975E+03  0.00000000000E+00 0. -1.
         21   -1    0    0  501  503 -0.00000000000E+00 -0.00000000000E+00 -0.12382410269E+03  0.12382410269E+03  0.00000000000E+00 0. -1.
          6    2    1    2  501    0 -0.15182365319E+03 -0.48739007697E+02  0.12424812481E+03  0.26477475429E+03  0.17100339602E+03 0.  0.
         24    2    3    3    0    0 -0.12799207892E+03 -0.83505783623E+02  0.50201711451E+02  0.17944226357E+03  0.79524373363E+02 0.  0.
         -6    2    1    2    0  502  0.15182365319E+03  0.48739007697E+02  0.20465484225E+03  0.31177641814E+03  0.17290175798E+03 0.  0.
        -24    2    5    5    0    0  0.11206413545E+03 -0.33826688418E+02  0.10773887553E+03  0.17831216063E+03  0.80529162587E+02 0.  0.
          5    1    3    3  501    0 -0.23831574271E+02  0.34766775926E+02  0.74046413360E+02  0.85332490718E+02  0.47000000000E+01 0. -1.
        -13    1    4    4    0    0 -0.16860579319E+02 -0.52868125041E+02  0.27574874708E+02  0.61965244254E+02  0.00000000000E+00 0.  1.
         14    1    4    4    0    0 -0.11113149960E+03 -0.30637658583E+02  0.22626836743E+02  0.11747701932E+03  0.00000000000E+00 0. -1.
         -5    1    5    5    0  502  0.39759517744E+02  0.82565696115E+02  0.96915966725E+02  0.13346425751E+03  0.47000000000E+01 0.  1.
         13    1    6    6    0    0  0.12151559347E+03 -0.17540087463E+02  0.98126075444E+02  0.15717003787E+03  0.00000000000E+00 0. -1.
        -14    1    6    6    0    0 -0.94514580171E+01 -0.16286600955E+02  0.96128000818E+01  0.21142122759E+02  0.00000000000E+00 0.  1.
</event>
<event>
12    1  0.8691829E-002  0.2162057E+03  0.7818608E-02  0.1137419E+00
         21   -1    0    0  503  502  0.00000000000E+00  0.00000000000E+00  0.38123875032E+03  0.38123875032E+03  0.00000000000E+00 0. -1.
         21   -1    0    0  501  503 -0.00000000000E+00 -0.00000000000E+00 -0.32773877750E+03  0.32773877750E+03  0.00000000000E+00 0.  1.
          6    2    1    2  501    0 -0.12197596211E+02  0.12988364658E+03 -0.25496384637E+03  0.33429250990E+03  0.17241338758E+03 0.  0.
         24    2    3    3    0    0 -0.32760139618E+02  0.28762572951E+02 -0.45774601956E+02  0.10098901721E+03  0.78758841164E+02 0.  0.
         -6    2    1    2    0  502  0.12197596211E+02 -0.12988364658E+03  0.30846381920E+03  0.37468501793E+03  0.16798926127E+03 0.  0.
        -24    2    5    5    0    0  0.34179434166E+01 -0.79140837972E+02  0.30239638743E+03  0.32261949520E+03  0.79779752936E+02 0.  0.
          5    1    3    3  501    0  0.20562543407E+02  0.10112107363E+03 -0.20918924442E+03  0.23330349269E+03  0.47000000000E+01 0. -1.
        -13    1    4    4    0    0 -0.57997492093E+02  0.17612187617E+02 -0.21726609851E+02  0.64389003854E+02  0.00000000000E+00 0.  1.
         14    1    4    4    0    0  0.25237352475E+02  0.11150385334E+02 -0.24047992105E+02  0.36600013352E+02  0.00000000000E+00 0. -1.
         -5    1    5    5    0  502  0.87796527945E+01 -0.50742808609E+02  0.60674317680E+01  0.52065522728E+02  0.47000000000E+01 0.  1.
         13    1    6    6    0    0  0.71361995388E+00 -0.56524032478E+02  0.74153216373E+02  0.93242560022E+02  0.00000000000E+00 0. -1.
        -14    1    6    6    0    0  0.27043234627E+01 -0.22616805493E+02  0.22824317106E+03  0.22937693517E+03  0.00000000000E+00 0.  1.
</event>
<event>
12    1  0.8691829E-002  0.1835221E+03  0.7818608E-02  0.1164657E+00
         21   -1    0    0  501  502  0.00000000000E+00  0.00000000000E+00  0.10966953242E+04  0.10966953242E+04  0.00000000000E+00 0.  1.
         21   -1    0    0  502  503 -0.00000000000E+00 -0.00000000000E+00 -0.39305133782E+02  0.39305133782E+02  0.00000000000E+00 0.  1.
         -6    2    1    2    0  503  0.28166113424E+02  0.51994544795E+02  0.25965614555E+03  0.31742856151E+03  0.17275073114E+03 0.  0.
        -24    2    3    3    0    0  0.51429387020E+02 -0.19339665367E+02  0.19184012644E+03  0.21618207078E+03  0.83144747933E+02 0.  0.
          6    2    1    2  501    0 -0.28166113424E+02 -0.51994544795E+02  0.79773404484E+03  0.81857189644E+03  0.17373422436E+03 0.  0.
         24    2    5    5    0    0  0.13793581694E+02  0.62086914719E+01  0.17766120288E+03  0.19434385152E+03  0.77312475514E+02 0.  0.
          5    1    5    5  501    0 -0.41959695119E+02 -0.58203236267E+02  0.62007284196E+03  0.62422804492E+03  0.47000000000E+01 0. -1.
        -13    1    6    6    0    0 -0.28776391813E+02  0.15312090463E+02  0.52167912038E+02  0.61514485177E+02  0.00000000000E+00 0.  1.
         14    1    6    6    0    0  0.42569973507E+02 -0.91033989915E+01  0.12549329084E+03  0.13282936634E+03  0.00000000000E+00 0. -1.
         -5    1    3    3    0  503 -0.23263273596E+02  0.71334210162E+02  0.67816019115E+02  0.10124649074E+03  0.47000000000E+01 0.  1.
         11    1    4    4    0    0 -0.12406444756E+01  0.28441326870E+02  0.51051502352E+02  0.58452580483E+02  0.00000000000E+00 0. -1.
        -12    1    4    4    0    0  0.52670031496E+02 -0.47780992236E+02  0.14078862408E+03  0.15772949029E+03  0.00000000000E+00 0.  1.
</event>
<event>
12    1  0.8691829E-002  0.2476384E+03  0.7818608E-02  0.1115033E+00
         21   -1    0    0  503  502  0.00000000000E+00  0.00000000000E+00  0.25569324247E+03  0.25569324247E+03  0.00000000000E+00 0. -1.
         21   -1    0    0  501  503 -0.00000000000E+00 -0.00000000000E+00 -0.27186769559E+03  0.27186769559E+03  0.00000000000E+00 0.  1.
          6    2    1    2  501    0 -0.13090395859E+03  0.11799101818E+03 -0.10051539870E+03  0.26595407859E+03  0.17196075076E+03 0.  0.
         24    2    3    3    0    0 -0.14560150737E+03  0.10359271729E+03 -0.38877107601E+02  0.20080273219E+03  0.82940085232E+02 0.  0.
         -6    2    1    2    0  502  0.13090395859E+03 -0.11799101818E+03  0.84340945575E+02  0.26160685947E+03  0.17397421382E+03 0.  0.
        -24    2    5    5    0    0  0.14274158339E+03 -0.48017250662E+02  0.32285280626E+02  0.17346867390E+03  0.79801162219E+02 0.  0.
          5    1    3    3  501    0  0.14697548779E+02  0.14398300893E+02 -0.61638291097E+02  0.65151346402E+02  0.47000000000E+01 0. -1.
        -13    1    4    4    0    0 -0.95744443457E+01  0.41842271964E+02 -0.27512316089E+02  0.50984048919E+02  0.00000000000E+00 0.  1.
         14    1    4    4    0    0 -0.13602706302E+03  0.61750445323E+02 -0.11364791513E+02  0.14981868327E+03  0.00000000000E+00 0. -1.
         -5    1    5    5    0  502 -0.11837624798E+02 -0.69973767518E+02  0.52055664950E+02  0.88138185566E+02  0.47000000000E+01 0.  1.
         13    1    6    6    0    0  0.69941896844E+01  0.15137023036E+02 -0.78983467424E+01  0.18450800444E+02  0.00000000000E+00 0. -1.
        -14    1    6    6    0    0  0.13574739370E+03 -0.63154273698E+02  0.40183627368E+02  0.15501787346E+03  0.00000000000E+00 0.  1.
</event>
<event>
12    1  0.8691829E-002  0.2196705E+03  0.7818608E-02  0.1134136E+00
         21   -1    0    0  503  502  0.00000000000E+00  0.00000000000E+00  0.44240873079E+02  0.44240873079E+02  0.00000000000E+00 0.  1.
         21   -1    0    0  501  503 -0.00000000000E+00 -0.00000000000E+00 -0.15555907323E+04  0.15555907323E+04  0.00000000000E+00 0. -1.
          6    2    1    2  501    0 -0.55298263235E+02  0.12426533210E+03 -0.11930908961E+04  0.12131450872E+04  0.17249737824E+03 0.  0.
         24    2    3    3    0    0  0.59870070642E+01  0.13293612116E+03 -0.94193243077E+03  0.95442954523E+03  0.77402817138E+02 0.  0.
         -6    2    1    2    0  502  0.55298263235E+02 -0.12426533210E+03 -0.31825896315E+03  0.38668651823E+03  0.17244687611E+03 0.  0.
        -24    2    5    5    0    0  0.84907287155E+02 -0.98480247214E+02 -0.31061041987E+03  0.34641053141E+03  0.81325376351E+02 0.  0.
          5    1    3    3  501    0 -0.61285270299E+02 -0.86707890624E+01 -0.25115846534E+03  0.25871554196E+03  0.47000000000E+01 0. -1.
        -11    1    4    4    0    0 -0.20531211710E+00  0.11592094120E+03 -0.55020994389E+03  0.56228879512E+03  0.00000000000E+00 0.  1.
         12    1    4    4    0    0  0.61923191813E+01  0.17015179958E+02 -0.39172248689E+03  0.39214075011E+03  0.00000000000E+00 0. -1.
         -5    1    5    5    0  502 -0.29609023921E+02 -0.25785084884E+02 -0.76485432769E+01  0.40275986819E+02  0.47000000000E+01 0.  1.
         13    1    6    6    0    0  0.69680109477E+00 -0.58497383000E+02 -0.95880756617E+02  0.11231896028E+03  0.00000000000E+00 0. -1.
        -14    1    6    6    0    0  0.84210486061E+02 -0.39982864214E+02 -0.21472966325E+03  0.23409157113E+03  0.00000000000E+00 0.  1.
</event>
<event>
12    1  0.8691829E-002  0.2770851E+03  0.7818608E-02  0.1097795E+00
         21   -1    0    0  503  502  0.00000000000E+00  0.00000000000E+00  0.10594275926E+04  0.10594275926E+04  0.00000000000E+00 0. -1.
         21   -1    0    0  501  503 -0.00000000000E+00 -0.00000000000E+00 -0.13849133719E+03  0.13849133719E+03  0.00000000000E+00 0. -1.
          6    2    1    2  501    0 -0.21235615459E+03  0.28240791976E+02  0.42419932919E+02  0.27674191653E+03  0.16998223122E+03 0.  0.
         24    2    3    3    0    0 -0.16157761681E+03  0.34383017098E+02 -0.31958538482E+02  0.18635146440E+03  0.80099949952E+02 0.  0.
         -6    2    1    2    0  502  0.21235615459E+03 -0.28240791976E+02  0.87851632253E+03  0.92117701330E+03  0.17573696867E+03 0.  0.
        -24    2    5    5    0    0  0.10811918752E+03 -0.72144005902E+02  0.62134589341E+03  0.64019381609E+03  0.82963164194E+02 0.  0.
          5    1    3    3  501    0 -0.50778537783E+02 -0.61422251229E+01  0.74378471401E+02  0.90390452133E+02  0.47000000000E+01 0. -1.
        -13    1    4    4    0    0 -0.55268492407E+01 -0.41467944686E+01  0.16977971597E+02  0.18330125107E+02  0.00000000000E+00 0.  1.
         14    1    4    4    0    0 -0.15605076757E+03  0.38529811567E+02 -0.48936510078E+02  0.16802133929E+03  0.00000000000E+00 0. -1.
         -5    1    5    5    0  502  0.10423696707E+03  0.43903213926E+02  0.25717042912E+03  0.28098319720E+03  0.47000000000E+01 0.  1.
         13    1    6    6    0    0  0.42850696672E+02  0.13666162526E+02  0.14578956622E+03  0.15256979984E+03  0.00000000000E+00 0. -1.
        -14    1    6    6    0    0  0.65268490845E+02 -0.85810168427E+02  0.47555632719E+03  0.48762401626E+03  0.00000000000E+00 0.  1.
</event>
<event>
12    1  0.8691829E-002  0.1821266E+03  0.7818608E-02  0.1168242E+00
         21   -1    0    0  503  502  0.00000000000E+00  0.00000000000E+00  0.22733640321E+02  0.22733640321E+02  0.00000000000E+00 0. -1.
         21   -1    0    0  501  503 -0.00000000000E+00 -0.00000000000E+00 -0.16762100741E+04  0.16762100741E+04  0.00000000000E+00 0. -1.
          6    2    1    2  501    0 -0.45975739831E+01  0.88684673468E+00 -0.11647460276E+04  0.11773811651E+04  0.17196271380E+03 0.  0.
         24    2    3    3    0    0 -0.32395057257E+01 -0.21968630782E+02 -0.27383687157E+03  0.28616546085E+03  0.80068243498E+02 0.  0.
         -6    2    1    2    0  502  0.45975739831E+01 -0.88684673468E+00 -0.48873040616E+03  0.52156254930E+03  0.18206635808E+03 0.  0.
        -24    2    5    5    0    0 -0.30315722242E+02 -0.34133686189E+01 -0.47662332494E+03  0.48422633388E+03  0.79841433164E+02 0.  0.
          5    1    3    3  501    0 -0.13580682575E+01  0.22855477517E+02 -0.89090915600E+03  0.89121570422E+03  0.47000000000E+01 0. -1.
        -11    1    4    4    0    0 -0.32896046108E+02  0.91185489105E+01 -0.70381065573E+02  0.78222708819E+02  0.00000000000E+00 0.  1.
         12    1    4    4    0    0  0.29656540382E+02 -0.31087179693E+02 -0.20345580600E+03  0.20794275203E+03  0.00000000000E+00 0. -1.
         -5    1    5    5    0  502  0.34913296225E+02  0.25265218842E+01 -0.12107081222E+02  0.37336215419E+02  0.47000000000E+01 0.  1.
         11    1    6    6    0    0 -0.18910925497E+02 -0.40166226275E+02 -0.31335605313E+03  0.31648533121E+03  0.00000000000E+00 0. -1.
        -12    1    6    6    0    0 -0.11404796745E+02  0.36752857656E+02 -0.16326727180E+03  0.16774100267E+03  0.00000000000E+00 0.  1.
</event>
<event>
12    1  0.8691829E-002  0.1982467E+03  0.7818608E-02  0.1151337E+00
         21   -1    0    0  503  502  0.00000000000E+00  0.00000000000E+00  0.13095155961E+03  0.13095155961E+03  0.00000000000E+00 0.  1.
         21   -1    0    0  501  503 -0.00000000000E+00 -0.00000000000E+00 -0.46856010832E+03  0.46856010832E+03  0.00000000000E+00 0.  1.
          6    2    1    2  501    0  0.69120063271E+02  0.68628678688E+02 -0.34908299384E+03  0.40144826323E+03  0.17266815797E+03 0.  0.
         24    2    3    3    0    0  0.21652491366E+02  0.88594393441E+02 -0.32003218246E+03  0.34213688330E+03  0.79493724072E+02 0.  0.
         -6    2    1    2    0  502 -0.69120063271E+02 -0.68628678688E+02  0.11474445129E+02  0.19806340470E+03  0.17207547967E+03 0.  0.
        -24    2    5    5    0    0 -0.18877078521E+02 -0.51476455700E+02 -0.56804722867E+02  0.11144532892E+03  0.78658217705E+02 0.  0.
          5    1    3    3  501    0  0.47467571904E+02 -0.19965714753E+02 -0.29050811376E+02  0.59311379934E+02  0.47000000000E+01 0. -1.
        -13    1    4    4    0    0  0.38735474647E+02  0.55512133012E+02 -0.27737971655E+03  0.28551977350E+03  0.00000000000E+00 0.  1.
         14    1    4    4    0    0 -0.17082983281E+02  0.33082260429E+02 -0.42652465919E+02  0.56617109797E+02  0.00000000000E+00 0. -1.
         -5    1    5    5    0  502 -0.50242984749E+02 -0.17152222988E+02  0.68279167996E+02  0.86618075782E+02  0.47000000000E+01 0.  1.
         13    1    6    6    0    0 -0.42452039040E+02 -0.57551669322E+02 -0.41341551625E+02  0.82604443895E+02  0.00000000000E+00 0. -1.
        -14    1    6    6    0    0  0.23574960519E+02  0.60752136220E+01 -0.15463171242E+02  0.28840885022E+02  0.00000000000E+00 0.  1.
</event>
<event>
12    1  0.8691829E-002  0.2233942E+03  0.7818608E-02  0.1131583E+00
         21   -1    0    0  503  502  0.00000000000E+00  0.00000000000E+00  0.12013158729E+04  0.12013158729E+04  0.00000000000E+00 0. -1.
         21   -1    0    0  501  503 -0.00000000000E+00 -0.00000000000E+00 -0.41475965707E+02  0.41475965707E+02  0.00000000000E+00 0. -1.
          6    2    1    2  501    0  0.89581439254E+02 -0.11213233818E+03  0.61488304886E+03  0.65382414443E+03  0.16972434280E+03 0.  0.
         24    2    3    3    0    0  0.74841818783E+02 -0.94646954615E+02  0.61366303942E+03  0.63044523357E+03  0.79495425770E+02 0.  0.
         -6    2    1    2    0  502 -0.89581439254E+02  0.11213233818E+03  0.54495685829E+03  0.58896769413E+03  0.17119133101E+03 0.  0.
        -24    2    5    5    0    0 -0.85442805191E+02  0.13747267866E+03  0.52718511922E+03  0.55738944438E+03  0.80991557871E+02 0.  0.
          5    1    3    3  501    0  0.14739620471E+02 -0.17485383566E+02  0.12200094371E+01  0.23378910862E+02  0.47000000000E+01 0. -1.
        -11    1    4    4    0    0  0.41806386794E+02 -0.41438811177E+02  0.47068905499E+03  0.47435549489E+03  0.00000000000E+00 0.  1.
         12    1    4    4    0    0  0.33035431989E+02 -0.53208143438E+02  0.14297398443E+03  0.15608973867E+03  0.00000000000E+00 0. -1.
         -5    1    5    5    0  502 -0.41386340622E+01 -0.25340340482E+02  0.17771739070E+02  0.31578249749E+02  0.47000000000E+01 0.  1.
         13    1    6    6    0    0 -0.56659577955E+02  0.12739756354E+03  0.48917693852E+03  0.50865953658E+03  0.00000000000E+00 0. -1.
        -14    1    6    6    0    0 -0.28783227236E+02  0.10075115127E+02  0.38008180698E+02  0.48729907807E+02  0.00000000000E+00 0.  1.
</event>
<event>
12    1  0.8691829E-002  0.2431020E+03  0.7818608E-02  0.1117846E+00
         21   -1    0    0  501  502  0.00000000000E+00  0.00000000000E+00  0.12887142677E+03  0.12887142677E+03  0.00000000000E+00 0.  1.
         21   -1    0    0  502  503 -0.00000000000E+00 -0.00000000000E+00 -0.54665732528E+03  0.54665732528E+03  0.00000000000E+00 0.  1.
         -6    2    1    2    0  503  0.15845248925E+03  0.60127543432E+02 -0.34514496801E+03  0.42180585793E+03  0.17341458998E+03 0.  0.
        -24    2    3    3    0    0  0.16487527106E+03  0.56017513161E+02 -0.20014912934E+03  0.27653360420E+03  0.78034245616E+02 0.  0.
          6    2    1    2  501    0 -0.15845248925E+03 -0.60127543432E+02 -0.72640930508E+02  0.25372289412E+03  0.17428737587E+03 0.  0.
         24    2    5    5    0    0 -0.88061746120E+02  0.31118969179E+02 -0.19678578954E+02  0.12680605731E+03  0.83482143777E+02 0.  0.
          5    1    5    5  501    0 -0.70390743135E+02 -0.91246512612E+02 -0.52962351553E+02  0.12691683681E+03  0.47000000000E+01 0. -1.
        -13    1    6    6    0    0 -0.51921603108E+02 -0.10933498696E+02  0.21999830517E+02  0.57440289047E+02  0.00000000000E+00 0.  1.
         14    1    6    6    0    0 -0.36140143012E+02  0.42052467875E+02 -0.41678409471E+02  0.69365768268E+02  0.00000000000E+00 0. -1.
         -5    1    3    3    0  503 -0.64227818014E+01  0.41100302712E+01 -0.14499583867E+03  0.14527225373E+03  0.47000000000E+01 0.  1.
         13    1    4    4    0    0  0.59334058283E+02  0.57007758756E+02 -0.11225905724E+03  0.13918516790E+03  0.00000000000E+00 0. -1.
        -14    1    4    4    0    0  0.10554121277E+03 -0.99024559470E+00 -0.87890072097E+02  0.13734843630E+03  0.00000000000E+00 0.  1.
</event>
<event>
12    1  0.8691829E-002  0.2251530E+03  0.7818608E-02  0.1130251E+00
         21   -1    0    0  501  502  0.00000000000E+00  0.00000000000E+00  0.22526729143E+03  0.22526729143E+03  0.00000000000E+00 0.  1.
         21   -1    0    0  502  503 -0.00000000000E+00 -0.00000000000E+00 -0.44306173981E+03  0.44306173981E+03  0.00000000000E+00 0.  1.
         -6    2    1    2    0  503 -0.12476615857E+03 -0.74066084391E+02 -0.34365591280E+03  0.41038523968E+03  0.17106805479E+03 0.  0.
        -24    2    3    3    0    0 -0.12232377965E+03 -0.13410223612E+02 -0.15422795517E+03  0.21141252851E+03  0.75934536874E+02 0.  0.
          6    2    1    2  501    0  0.12476615857E+03  0.74066084391E+02  0.12586146441E+03  0.25794379156E+03  0.17216710546E+03 0.  0.
         24    2    5    5    0    0  0.54749241077E+02  0.69467949198E+02  0.76344824083E+01  0.12038209320E+03  0.81303675672E+02 0.  0.
          5    1    5    5  501    0  0.70016917489E+02  0.45981351924E+01  0.11822698200E+03  0.13756169836E+03  0.47000000000E+01 0. -1.
        -13    1    6    6    0    0  0.64133407029E+02  0.26070367800E+02  0.23685352053E+02  0.73169350661E+02  0.00000000000E+00 0.  1.
         14    1    6    6    0    0 -0.93841659518E+01  0.43397581398E+02 -0.16050869645E+02  0.47212742540E+02  0.00000000000E+00 0. -1.
         -5    1    3    3    0  503 -0.24423789166E+01 -0.60655860779E+02 -0.18942795762E+03  0.19897271117E+03  0.47000000000E+01 0.  1.
         13    1    4    4    0    0 -0.48261907060E+02 -0.40780871919E+01 -0.11977642779E+03  0.12919843312E+03  0.00000000000E+00 0. -1.
        -14    1    4    4    0    0 -0.74061872589E+02 -0.93321364196E+01 -0.34451527389E+02  0.82214095391E+02  0.00000000000E+00 0.  1.
</event>
<event>
12    1  0.8691829E-002  0.2645814E+03  0.7818608E-02  0.1104696E+00
         21   -1    0    0  503  502  0.00000000000E+00  0.00000000000E+00  0.64413021436E+03  0.64413021436E+03  0.00000000000E+00 0. -1.
         21   -1    0    0  501  503 -0.00000000000E+00 -0.00000000000E+00 -0.56974667795E+03  0.56974667795E+03  0.00000000000E+00 0.  1.
          6    2    1    2  501    0 -0.60867389982E+02  0.19241994817E+03 -0.50927605287E+03  0.57304785794E+03  0.16820069512E+03 0.  0.
         24    2    3    3    0    0 -0.21349181612E+02  0.19811429534E+03 -0.36722881016E+03  0.42542122232E+03  0.80132114739E+02 0.  0.
         -6    2    1    2    0  502  0.60867389982E+02 -0.19241994817E+03  0.58365958928E+03  0.64082903437E+03  0.17109371559E+03 0.  0.
        -24    2    5    5    0    0  0.49990099127E+02 -0.20211310405E+03  0.58438036306E+03  0.62550316598E+03  0.80031775401E+02 0.  0.
          5    1    3    3  501    0 -0.39518208370E+02 -0.56943471676E+01 -0.14204724271E+03  0.14762663562E+03  0.47000000000E+01 0. -1.
        -13    1    4    4    0    0 -0.44310323230E+02  0.11104224030E+03 -0.16230652614E+03  0.20158668682E+03  0.00000000000E+00 0.  1.
         14    1    4    4    0    0  0.22961141617E+02  0.87072055043E+02 -0.20492228402E+03  0.22383453550E+03  0.00000000000E+00 0. -1.
         -5    1    5    5    0  502  0.10877290855E+02  0.96931558816E+01 -0.72077377750E+00  0.15325868397E+02  0.47000000000E+01 0.  1.
         11    1    6    6    0    0  0.16043221384E+02 -0.62584820671E+02  0.90674542471E+02  0.11133785243E+03  0.00000000000E+00 0. -1.
        -12    1    6    6    0    0  0.33946877743E+02 -0.13952828338E+03  0.49370582059E+03  0.51416531355E+03  0.00000000000E+00 0.  1.
</event>
<event>
12    1  0.8691829E-002  0.1879735E+03  0.7818608E-02  0.1160335E+00
         21   -1    0    0  501  502  0.00000000000E+00  0.00000000000E+00  0.17365906620E+03  0.17365906620E+03  0.00000000000E+00 0. -1.
         21   -1    0    0  502  503 -0.00000000000E+00 -0.00000000000E+00 -0.21664752346E+03  0.21664752346E+03  0.00000000000E+00 0. -1.
         -6    2    1    2    0  503 -0.73793489756E+02 -0.17826203650E+01  0.26913697528E+02  0.18989049406E+03  0.17287393023E+03 0.  0.
        -24    2    3    3    0    0  0.34216034931E+01  0.21373790651E+02 -0.33306091274E+02  0.89158657183E+02  0.79821201052E+02 0.  0.
          6    2    1    2  501    0  0.73793489756E+02  0.17826203650E+01 -0.69902154789E+02  0.20041609560E+03  0.17271839295E+03 0.  0.
         24    2    5    5    0    0  0.39052264236E+02  0.62352156997E+02 -0.97208667493E+01  0.10811496371E+03  0.78622384233E+02 0.  0.
          5    1    5    5  501    0  0.34741225519E+02 -0.60569536632E+02 -0.60181288039E+02  0.92301131892E+02  0.47000000000E+01 0. -1.
        -13    1    6    6    0    0  0.62127545944E+02  0.47211293017E+02  0.21763473218E+01  0.78060711251E+02  0.00000000000E+00 0.  1.
         14    1    6    6    0    0 -0.23075281707E+02  0.15140863979E+02 -0.11897214071E+02  0.30054252454E+02  0.00000000000E+00 0. -1.
         -5    1    3    3    0  503 -0.77215093249E+02 -0.23156411016E+02  0.60219788802E+02  0.10073183687E+03  0.47000000000E+01 0.  1.
         11    1    4    4    0    0 -0.14742293149E+02  0.30928821992E+02  0.14445462117E+02  0.37183310946E+02  0.00000000000E+00 0. -1.
        -12    1    4    4    0    0  0.18163896642E+02 -0.95550313416E+01 -0.47751553391E+02  0.51975346237E+02  0.00000000000E+00 0.  1.
</event>
<event>
12    1  0.8691829E-002  0.1877503E+03  0.7818608E-02  0.1160547E+00
         21   -1    0    0  503  502  0.00000000000E+00  0.00000000000E+00  0.11649201612E+03  0.11649201612E+03  0.00000000000E+00 0.  1.
         21   -1    0    0  501  503 -0.00000000000E+00 -0.00000000000E+00 -0.70943981249E+03  0.70943981249E+03  0.00000000000E+00 0.  1.
          6    2    1    2  501    0  0.72356633888E+02  0.15449321447E+02 -0.60937229751E+03  0.63764000180E+03  0.17255726849E+03 0.  0.
         24    2    3    3    0    0  0.76568749178E+02  0.61672787580E+02 -0.53604579615E+03  0.55073075868E+03  0.79328222638E+02 0.  0.
         -6    2    1    2    0  502 -0.72356633888E+02 -0.15449321447E+02  0.16424501139E+02  0.18829182681E+03  0.17236555284E+03 0.  0.
        -24    2    5    5    0    0 -0.10605737766E+03 -0.46248680581E+02  0.21651948240E+02  0.14209922072E+03  0.79600715169E+02 0.  0.
          5    1    3    3  501    0 -0.42121152894E+01 -0.46223466133E+02 -0.73326501363E+02  0.86909243114E+02  0.47000000000E+01 0. -1.
        -11    1    4    4    0    0  0.57682716114E+02  0.17177216403E+02 -0.42995327841E+03  0.43414533755E+03  0.00000000000E+00 0.  1.
         12    1    4    4    0    0  0.18886033064E+02  0.44495571177E+02 -0.10609251774E+03  0.11658542113E+03  0.00000000000E+00 0. -1.
         -5    1    5    5    0  502  0.33700743776E+02  0.30799359134E+02 -0.52274471013E+01  0.46192606089E+02  0.47000000000E+01 0.  1.
         13    1    6    6    0    0 -0.85762083020E+02 -0.33884953447E+01 -0.79493615662E+01  0.86196340607E+02  0.00000000000E+00 0. -1.
        -14    1    6    6    0    0 -0.20295294644E+02 -0.42860185237E+02  0.29601309806E+02  0.55902880118E+02  0.00000000000E+00 0.  1.
</event>
<event>
12    1  0.8691829E-002  0.1953406E+03  0.7818608E-02  0.1153772E+00
         21   -1    0    0  503  502  0.00000000000E+00  0.00000000000E+00  0.74212543985E+02  0.74212543985E+02  0.00000000000E+00 0. -1.
         21   -1    0    0  501  503 -0.00000000000E+00 -0.00000000000E+00 -0.55569920929E+03  0.55569920929E+03  0.00000000000E+00 0. -1.
          6    2    1    2  501    0  0.54134796975E+02  0.73909711583E+02 -0.15423744166E+03  0.24889183953E+03  0.17252460017E+03 0.  0.
         24    2    3    3    0    0 -0.17671356820E+01 -0.19641604419E+02 -0.45454829815E+02  0.94837883267E+02  0.80865117056E+02 0.  0.
         -6    2    1    2    0  502 -0.54134796975E+02 -0.73909711583E+02 -0.32724922364E+03  0.38101991374E+03  0.17231047149E+03 0.  0.
        -24    2    5    5    0    0 -0.63071194382E+02 -0.68998286637E+02 -0.11270128455E+03  0.16617836873E+03  0.78580732851E+02 0.  0.
          5    1    3    3  501    0  0.55901932657E+02  0.93551316002E+02 -0.10878261185E+03  0.15405395627E+03  0.47000000000E+01 0. -1.
        -13    1    4    4    0    0 -0.40485254658E+02 -0.19741672096E+01 -0.19396012880E+02  0.44935047530E+02  0.00000000000E+00 0.  1.
         14    1    4    4    0    0  0.38718118976E+02 -0.17667437209E+02 -0.26058816936E+02  0.49902835738E+02  0.00000000000E+00 0. -1.
         -5    1    5    5    0  502  0.89363974064E+01 -0.49114249465E+01 -0.21454793910E+03  0.21484154502E+03  0.47000000000E+01 0.  1.
         11    1    6    6    0    0 -0.55498126533E+02 -0.28538607347E+02 -0.10801959283E+03  0.12475065769E+03  0.00000000000E+00 0. -1.
        -12    1    6    6    0    0 -0.75730678490E+01 -0.40459679290E+02 -0.46816917157E+01  0.41427711042E+02  0.00000000000E+00 0.  1.
</event>
<event>
12    1  0.8691829E-002  0.2580065E+03  0.7818608E-02  0.1108398E+00
         21   -1    0    0  503  502  0.00000000000E+00  0.00000000000E+00  0.23483617088E+03  0.23483617088E+03  0.00000000000E+00 0. -1.
         21   -1    0    0  501  503 -0.00000000000E+00 -0.00000000000E+00 -0.29755231940E+03  0.29755231940E+03  0.00000000000E+00 0. -1.
          6    2    1    2  501    0 -0.14481676928E+03 -0.12565295701E+03 -0.90055619524E+02  0.27327157352E+03  0.17264639010E+03 0.  0.
         24    2    3    3    0    0 -0.26793031153E+01 -0.64167279342E+02 -0.41661260390E+02  0.11095197568E+03  0.80312277313E+02 0.  0.
         -6    2    1    2    0  502  0.14481676928E+03  0.12565295701E+03  0.27339471002E+02  0.25911691675E+03  0.17214403157E+03 0.  0.
        -24    2    5    5    0    0  0.10586670909E+03  0.21119975903E+02 -0.27332770998E+02  0.13479718633E+03  0.75956484882E+02 0.  0.
          5    1    3    3  501    0 -0.14213746617E+03 -0.61485677668E+02 -0.48394359134E+02  0.16231959784E+03  0.47000000000E+01 0. -1.
        -13    1    4    4    0    0  0.16536539732E+02 -0.34582883201E+02  0.17447000982E+02  0.42116870730E+02  0.00000000000E+00 0.  1.
         14    1    4    4    0    0 -0.19215842848E+02 -0.29584396141E+02 -0.59108261372E+02  0.68835104952E+02  0.00000000000E+00 0. -1.
         -5    1    5    5    0  502  0.38950060188E+02  0.10453298111E+03  0.54672242000E+02  0.12431973043E+03  0.47000000000E+01 0.  1.
         13    1    6    6    0    0  0.63660292739E+02  0.42065713073E+01  0.22207530531E+02  0.67553701054E+02  0.00000000000E+00 0. -1.
        -14    1    6    6    0    0  0.42206416354E+02  0.16913404595E+02 -0.49540301529E+02  0.67243485276E+02  0.00000000000E+00 0.  1.
</event>
<event>
12    1  0.8691829E-002  0.1845663E+03  0.7818608E-02  0.1163748E+00
         21   -1    0    0  503  502  0.00000000000E+00  0.00000000000E+00  0.35673592398E+03  0.35673592398E+03  0.00000000000E+00 0.  1.
         21   -1    0    0  501  503 -0.00000000000E+00 -0.00000000000E+00 -0.96465817728E+02  0.96465817728E+02  0.00000000000E+00 0.  1.
          6    2    1    2  501    0 -0.35701149949E+02  0.54688894387E+02  0.10121939690E+03  0.21049962688E+03  0.17262467764E+03 0.  0.
         24    2    3    3    0    0 -0.70912146383E+02  0.36589036319E+02  0.12056781690E+03  0.16618404848E+03  0.81934421431E+02 0.  0.
         -6    2    1    2    0  502  0.35701149949E+02 -0.54688894387E+02  0.15905070935E+03  0.24270211484E+03  0.17129431141E+03 0.  0.
        -24    2    5    5    0    0  0.29169886069E+02 -0.10354932760E+03  0.11047903824E+03  0.17333860442E+03  0.79166333711E+02 0.  0.
          5    1    3    3  501    0  0.35210996434E+02  0.18099858068E+02 -0.19348419996E+02  0.44315578393E+02  0.47000000000E+01 0. -1.
        -11    1    4    4    0    0 -0.66617274427E+02  0.43996190564E+02  0.48084585222E+02  0.93196852802E+02  0.00000000000E+00 0.  1.
         12    1    4    4    0    0 -0.42948719566E+01 -0.74071542455E+01  0.72483231677E+02  0.72987195682E+02  0.00000000000E+00 0. -1.
         -5    1    5    5    0  502  0.65312638801E+01  0.48860433215E+02  0.48571671116E+02  0.69363510413E+02  0.47000000000E+01 0.  1.
         11    1    6    6    0    0  0.30694038956E+01  0.10933041373E+02  0.26934690794E+02  0.29230638072E+02  0.00000000000E+00 0. -1.
        -12    1    6    6    0    0  0.26100482174E+02 -0.11448236898E+03  0.83544347443E+02  0.14410796635E+03  0.00000000000E+00 0.  1.
</event>
<event>
12    1  0.8691829E-002  0.1971009E+03  0.7818608E-02  0.1152735E+00
         21   -1    0    0  501  502  0.00000000000E+00  0.00000000000E+00  0.98743016833E+03  0.98743016833E+03  0.00000000000E+00 0. -1.
         21   -1    0    0  502  503 -0.00000000000E+00 -0.00000000000E+00 -0.42239024986E+02  0.42239024986E+02  0.00000000000E+00 0. -1.
         -6    2    1    2    0  503  0.91571840384E+02  0.84431318902E+01  0.32966774114E+03  0.38409581442E+03  0.17433326326E+03 0.  0.
        -24    2    3    3    0    0  0.90965655655E+02  0.61424659674E+02  0.18439056462E+03  0.22938654591E+03  0.81059038962E+02 0.  0.
          6    2    1    2  501    0 -0.91571840384E+02 -0.84431318902E+01  0.61552340221E+03  0.64557337890E+03  0.17157867132E+03 0.  0.
         24    2    5    5    0    0 -0.51315430334E+02  0.46958417510E+02  0.21785893451E+03  0.24202780639E+03  0.79224853129E+02 0.  0.
          5    1    5    5  501    0 -0.40256410051E+02 -0.55401549400E+02  0.39766446769E+03  0.40354557251E+03  0.47000000000E+01 0. -1.
        -11    1    6    6    0    0  0.20707173528E+02  0.15572615474E+02  0.40946160198E+02  0.48454942196E+02  0.00000000000E+00 0.  1.
         12    1    6    6    0    0 -0.72022603862E+02  0.31385802036E+02  0.17691277431E+03  0.19357286419E+03  0.00000000000E+00 0. -1.
         -5    1    3    3    0  503  0.60618472910E+00 -0.52981527784E+02  0.14527717651E+03  0.15470926851E+03  0.47000000000E+01 0.  1.
         11    1    4    4    0    0  0.86938459205E+02  0.19175528306E+02  0.93665608178E+02  0.12922554983E+03  0.00000000000E+00 0. -1.
        -12    1    4    4    0    0  0.40271964499E+01  0.42249131369E+02  0.90724956446E+02  0.10016099608E+03  0.00000000000E+00 0.  1.
</event>
<event>
12    1  0.8691829E-002  0.3708662E+03  0.7818608E-02  0.1054546E+00
         21   -1    0    0  503  502  0.00000000000E+00  0.00000000000E+00  0.45429715237E+03  0.45429715237E+03  0.00000000000E+00 0. -1.
         21   -1    0    0  501  503 -0.00000000000E+00 -0.00000000000E+00 -0.10125957769E+04  0.10125957769E+04  0.00000000000E+00 0.  1.
          6    2    1    2  501    0 -0.10035090657E+03  0.31239801051E+03 -0.89369721958E+03  0.96685898167E+03  0.16869721022E+03 0.  0.
         24    2    3    3    0    0 -0.12760215709E+03  0.20564976055E+03 -0.67501428855E+03  0.72194647924E+03  0.83596020435E+02 0.  0.
         -6    2    1    2    0  502  0.10035090657E+03 -0.31239801051E+03  0.33539859507E+03  0.50003394758E+03  0.17285516983E+03 0.  0.
        -24    2    5    5    0    0 -0.43450898591E+01 -0.75805636065E+02  0.89556481827E+02  0.14310589046E+03  0.81814168597E+02 0.  0.
          5    1    3    3  501    0  0.27251250521E+02  0.10674824996E+03 -0.21868293103E+03  0.24491250243E+03  0.47000000000E+01 0. -1.
        -11    1    4    4    0    0 -0.22855362347E+02  0.14019003044E+02 -0.16466012149E+03  0.16682882138E+03  0.00000000000E+00 0.  1.
         12    1    4    4    0    0 -0.10474679474E+03  0.19163075751E+03 -0.51035416706E+03  0.55511765786E+03  0.00000000000E+00 0. -1.
         -5    1    5    5    0  502  0.10469599642E+03 -0.23659237445E+03  0.24584211324E+03  0.35692805712E+03  0.47000000000E+01 0.  1.
         13    1    6    6    0    0 -0.24097433291E+02 -0.83522351295E+02  0.84658539901E+02  0.12134141022E+03  0.00000000000E+00 0. -1.
        -14    1    6    6    0    0  0.19752343432E+02  0.77167152303E+01  0.48979419269E+01  0.21764480240E+02  0.00000000000E+00 0.  1.
</event>
<event>
12    1  0.8691829E-002  0.1721794E+03  0.7818608E-02  0.1175767E+00
         21   -1    0    0  503  502  0.00000000000E+00  0.00000000000E+00  0.27928889199E+02  0.27928889199E+02  0.00000000000E+00 0.  1.
         21   -1    0    0  501  503 -0.00000000000E+00 -0.00000000000E+00 -0.14253141348E+04  0.14253141348E+04  0.00000000000E+00 0.  1.
          6    2    1    2  501    0 -0.90294439714E+01  0.13508572824E+02 -0.10668866478E+04  0.10805835488E+04  0.17073275637E+03 0.  0.
         24    2    3    3    0    0  0.51743171816E+01  0.65086450256E+02 -0.86884471195E+03  0.87538919541E+03  0.84570032500E+02 0.  0.
         -6    2    1    2    0  502  0.90294439714E+01 -0.13508572824E+02 -0.33049859778E+03  0.37265947527E+03  0.17141105266E+03 0.  0.
        -24    2    5    5    0    0  0.51149657175E+02 -0.51914150823E+02 -0.16497951366E+03  0.19753735219E+03  0.80569219303E+02 0.  0.
          5    1    3    3  501    0 -0.14203761153E+02 -0.51577877432E+02 -0.19804193590E+03  0.20519435335E+03  0.47000000000E+01 0. -1.
        -11    1    4    4    0    0 -0.27273408192E+02  0.32578087511E+00 -0.40555157247E+03  0.40646773901E+03  0.00000000000E+00 0.  1.
         12    1    4    4    0    0  0.32447725373E+02  0.64760669381E+02 -0.46329313949E+03  0.46892145640E+03  0.00000000000E+00 0. -1.
         -5    1    5    5    0  502 -0.42120213204E+02  0.38405577999E+02 -0.16551908412E+03  0.17512212307E+03  0.47000000000E+01 0.  1.
         11    1    6    6    0    0  0.73268881171E+02 -0.41105405166E+02 -0.12869600502E+03  0.15369009399E+03  0.00000000000E+00 0. -1.
        -12    1    6    6    0    0 -0.22119223996E+02 -0.10808745657E+02 -0.36283508643E+02  0.43847258208E+02  0.00000000000E+00 0.  1.
</event>
<event>
12    1  0.8691829E-002  0.2257176E+03  0.7818608E-02  0.1129743E+00
         21   -1    0    0  503  502  0.00000000000E+00  0.00000000000E+00  0.52754721860E+02  0.52754721860E+02  0.00000000000E+00 0.  1.
         21   -1    0    0  501  503 -0.00000000000E+00 -0.00000000000E+00 -0.98356295123E+03  0.98356295123E+03  0.00000000000E+00 0. -1.
          6    2    1    2  501    0 -0.43095094849E+02  0.14020227620E+03 -0.53779306611E+03  0.58324079920E+03  0.17156509679E+03 0.  0.
         24    2    3    3    0    0 -0.39551627283E+02  0.15545293995E+02 -0.31122870270E+03  0.32457997854E+03  0.81748820772E+02 0.  0.
         -6    2    1    2    0  502  0.43095094849E+02 -0.14020227620E+03 -0.39301516325E+03  0.45307687389E+03  0.17118373070E+03 0.  0.
        -24    2    5    5    0    0 -0.29636318400E+02 -0.40478094670E+02 -0.23104051688E+03  0.24937943424E+03  0.79332176721E+02 0.  0.
          5    1    3    3  501    0 -0.35434675656E+01  0.12465698220E+03 -0.22656436342E+03  0.25866082066E+03  0.47000000000E+01 0. -1.
        -13    1    4    4    0    0 -0.47632038802E+02 -0.10928089895E+01 -0.83776156979E+02  0.96376604164E+02  0.00000000000E+00 0.  1.
         14    1    4    4    0    0  0.80804115188E+01  0.16638102985E+02 -0.22745254572E+03  0.22820337437E+03  0.00000000000E+00 0. -1.
         -5    1    5    5    0  502  0.72731413249E+02 -0.99724181526E+02 -0.16197464637E+03  0.20369743965E+03  0.47000000000E+01 0.  1.
         13    1    6    6    0    0  0.12591700511E+02 -0.20879926474E+02 -0.17424267248E+03  0.17594041936E+03  0.00000000000E+00 0. -1.
        -14    1    6    6    0    0 -0.42228018911E+02 -0.19598168196E+02 -0.56797844406E+02  0.73439014883E+02  0.00000000000E+00 0.  1.
</event>
<event>
12    1  0.8691829E-002  0.2175704E+03  0.7818608E-02  0.1136450E+00
         21   -1    0    0  503  502  0.00000000000E+00  0.00000000000E+00  0.52928240313E+02  0.52928240313E+02  0.00000000000E+00 0. -1.
         21   -1    0    0  501  503 -0.00000000000E+00 -0.00000000000E+00 -0.87845477577E+03  0.87845477577E+03  0.00000000000E+00 0. -1.
          6    2    1    2  501    0  0.11739150615E+03 -0.62370496870E+02 -0.40815100274E+03  0.46070349382E+03  0.16730099695E+03 0.  0.
         24    2    3    3    0    0  0.86457865319E+02 -0.48372642363E+02 -0.12106690620E+03  0.17158033917E+03  0.70482210580E+02 0.  0.
         -6    2    1    2    0  502 -0.11739150615E+03  0.62370496870E+02 -0.41737553271E+03  0.47067952226E+03  0.17223830229E+03 0.  0.
        -24    2    5    5    0    0 -0.37998368377E+02  0.74974649593E+01 -0.32048244923E+03  0.33384137122E+03  0.85093906298E+02 0.  0.
          5    1    3    3  501    0  0.30933640826E+02 -0.13997854507E+02 -0.28708409654E+03  0.28912315465E+03  0.47000000000E+01 0. -1.
        -11    1    4    4    0    0  0.20168780441E+02  0.18413743427E+02 -0.23490473977E+02  0.36022881883E+02  0.00000000000E+00 0.  1.
         12    1    4    4    0    0  0.66289084878E+02 -0.66786385790E+02 -0.97576432223E+02  0.13555745729E+03  0.00000000000E+00 0. -1.
         -5    1    5    5    0  502 -0.79393137768E+02  0.54873031911E+02 -0.96893083480E+02  0.13683815105E+03  0.47000000000E+01 0.  1.
         11    1    6    6    0    0 -0.62582322882E+02  0.19680044853E+02 -0.21035822433E+03  0.22035070648E+03  0.00000000000E+00 0. -1.
        -12    1    6    6    0    0  0.24583954504E+02 -0.12182579894E+02 -0.11012422490E+03  0.11349066474E+03  0.00000000000E+00 0.  1.
</event>
<event>
12    1  0.8691829E-002  0.2494993E+03  0.7818608E-02  0.1113945E+00
         21   -1    0    0  503  502  0.00000000000E+00  0.00000000000E+00  0.22031414110E+03  0.22031414110E+03  0.00000000000E+00 0. -1.
         21   -1    0    0  501  503 -0.00000000000E+00 -0.00000000000E+00 -0.28305490855E+03  0.28305490855E+03  0.00000000000E+00 0.  1.
          6    2    1    2  501    0  0.17306483110E+03  0.57904245385E+02 -0.56270150266E+02  0.25378581397E+03  0.16714237093E+03 0.  0.
         24    2    3    3    0    0  0.76921562933E+02 -0.22026936531E+02 -0.62891359069E+02  0.12849234940E+03  0.78440091994E+02 0.  0.
         -6    2    1    2    0  502 -0.17306483110E+03 -0.57904245385E+02 -0.64706171832E+01  0.24958323569E+03  0.17013402144E+03 0.  0.
        -24    2    5    5    0    0 -0.61953020632E+02 -0.36394289805E+01 -0.56598554258E+02  0.11607142048E+03  0.80110898756E+02 0.  0.
          5    1    3    3  501    0  0.96143268168E+02  0.79931181916E+02  0.66212088022E+01  0.12529346456E+03  0.47000000000E+01 0. -1.
        -11    1    4    4    0    0  0.18220158207E+02  0.28409815578E+02 -0.11790317216E+02  0.35750571552E+02  0.00000000000E+00 0.  1.
         12    1    4    4    0    0  0.58701404726E+02 -0.50436752109E+02 -0.51101041853E+02  0.92741777848E+02  0.00000000000E+00 0. -1.
         -5    1    5    5    0  502 -0.11111181047E+03 -0.54264816404E+02  0.50127937074E+02  0.13351181521E+03  0.47000000000E+01 0.  1.
         11    1    6    6    0    0 -0.49182807816E+02  0.17516709070E+02  0.22370395778E+01  0.52256942385E+02  0.00000000000E+00 0. -1.
        -12    1    6    6    0    0 -0.12770212815E+02 -0.21156138051E+02 -0.58835593835E+02  0.63814478095E+02  0.00000000000E+00 0.  1.
</event>
<event>
12    1  0.8691829E-002  0.2492740E+03  0.7818608E-02  0.1113935E+00
         21   -1    0    0  503  502  0.00000000000E+00  0.00000000000E+00  0.13327298056E+04  0.13327298056E+04  0.00000000000E+00 0. -1.
         21   -1    0    0  501  503 -0.00000000000E+00 -0.00000000000E+00 -0.49612777599E+02  0.49612777599E+02  0.00000000000E+00 0. -1.
          6    2    1    2  501    0  0.73342770363E+02 -0.16388176729E+03  0.46762608525E+03  0.52991666491E+03  0.17291940473E+03 0.  0.
         24    2    3    3    0    0  0.11729650485E+03 -0.13250064858E+03  0.34536238448E+03  0.39617359813E+03  0.79771243663E+02 0.  0.
         -6    2    1    2    0  502 -0.73342770363E+02  0.16388176729E+03  0.81549094276E+03  0.85242591830E+03  0.17137115523E+03 0.  0.
        -24    2    5    5    0    0 -0.32007377709E+02  0.17366366885E+03  0.74669844761E+03  0.77143951404E+03  0.79854931383E+02 0.  0.
          5    1    3    3  501    0 -0.43953734487E+02 -0.31381118706E+02  0.12226370077E+03  0.13374306679E+03  0.47000000000E+01 0. -1.
        -11    1    4    4    0    0  0.10206130995E+02 -0.13380425153E+02  0.11119895258E+03  0.11246514101E+03  0.00000000000E+00 0.  1.
         12    1    4    4    0    0  0.10709037386E+03 -0.11912022343E+03  0.23416343190E+03  0.28370845712E+03  0.00000000000E+00 0. -1.
         -5    1    5    5    0  502 -0.41335392655E+02 -0.97819015621E+01  0.68792495156E+02  0.80986404253E+02  0.47000000000E+01 0.  1.
         11    1    6    6    0    0 -0.83457376670E+01  0.12387449683E+03  0.63326090365E+03  0.64531691005E+03  0.00000000000E+00 0. -1.
        -12    1    6    6    0    0 -0.23661640042E+02  0.49789172024E+02  0.11343754395E+03  0.12612260400E+03  0.00000000000E+00 0.  1.
</event>
<event>
12    1  0.8691829E-002  0.2156694E+03  0.7818608E-02  0.1137368E+00
         21   -1    0    0  501  502  0.00000000000E+00  0.00000000000E+00  0.13391321410E+03  0.13391321410E+03  0.00000000000E+00 0. -1.
         21   -1    0    0  502  503 -0.00000000000E+00 -0.00000000000E+00 -0.35534392160E+03  0.35534392160E+03  0.00000000000E+00 0. -1.
         -6    2    1    2    0  503  0.59794484736E+02 -0.11584092901E+03 -0.69797004992E+02  0.22561708615E+03  0.17040230756E+03 0.  0.
        -24    2    3    3    0    0  0.97131587753E+02 -0.56961469111E+02 -0.71054432655E+02  0.15572773658E+03  0.80766584913E+02 0.  0.
          6    2    1    2  501    0 -0.59794484736E+02  0.11584092901E+03 -0.15163370251E+03  0.26364004955E+03  0.17181034530E+03 0.  0.
         24    2    5    5    0    0 -0.54699584548E+02  0.12960916587E+02 -0.81796860042E+02  0.13910278794E+03  0.97461938168E+02 0.  0.
          5    1    5    5  501    0 -0.50949001877E+01  0.10288001242E+03 -0.69836842468E+02  0.12453726161E+03  0.47000000000E+01 0. -1.
        -13    1    6    6    0    0  0.94417727601E+01  0.37672238985E+02 -0.10862114186E+02  0.40327784313E+02  0.00000000000E+00 0.  1.
         14    1    6    6    0    0 -0.64141357308E+02 -0.24711322397E+02 -0.70934745856E+02  0.98775003628E+02  0.00000000000E+00 0. -1.
         -5    1    3    3    0  503 -0.37337103017E+02 -0.58879459895E+02  0.12574276632E+01  0.69889349572E+02  0.47000000000E+01 0.  1.
         11    1    4    4    0    0  0.18556693262E+02  0.52811638791E+01 -0.49595411048E+02  0.53216034743E+02  0.00000000000E+00 0. -1.
        -12    1    4    4    0    0  0.78574894490E+02 -0.62242632990E+02 -0.21459021607E+02  0.10251170184E+03  0.00000000000E+00 0.  1.
</event>
<event>
12    1  0.8691829E-002  0.1793568E+03  0.7818608E-02  0.1168844E+00
         21   -1    0    0  503  502  0.00000000000E+00  0.00000000000E+00  0.17962321201E+03  0.17962321201E+03  0.00000000000E+00 0. -1.
         21   -1    0    0  501  503 -0.00000000000E+00 -0.00000000000E+00 -0.17738985809E+03  0.17738985809E+03  0.00000000000E+00 0. -1.
          6    2    1    2  501    0 -0.44194146987E+02  0.20790007814E+02  0.11389657731E+01  0.17765297713E+03  0.17080379384E+03 0.  0.
         24    2    3    3    0    0  0.33662296597E+02  0.41591834882E+02  0.13287502616E+02  0.96019535675E+02  0.78614009976E+02 0.  0.
         -6    2    1    2    0  502  0.44194146987E+02 -0.20790007814E+02  0.10943881395E+01  0.17936009296E+03  0.17257896225E+03 0.  0.
        -24    2    5    5    0    0 -0.28329928344E+02 -0.53059937721E+02 -0.34415765140E+01  0.99712400881E+02  0.79452983642E+02 0.  0.
          5    1    3    3  501    0 -0.77856443584E+02 -0.20801827068E+02 -0.12148536843E+02  0.81633441459E+02  0.47000000000E+01 0. -1.
        -11    1    4    4    0    0  0.19968114194E+02 -0.21035837061E+02  0.13309903345E+02  0.31912153679E+02  0.00000000000E+00 0.  1.
         12    1    4    4    0    0  0.13694182403E+02  0.62627671943E+02 -0.22400729212E-01  0.64107381997E+02  0.00000000000E+00 0. -1.
         -5    1    5    5    0  502  0.72524075332E+02  0.32269929907E+02  0.45359646535E+01  0.79647692084E+02  0.47000000000E+01 0.  1.
         11    1    6    6    0    0  0.15757107565E+02  0.14979281285E+01 -0.22048988215E+02  0.27141998983E+02  0.00000000000E+00 0. -1.
        -12    1    6    6    0    0 -0.44087035909E+02 -0.54557865850E+02  0.18607411701E+02  0.72570401897E+02  0.00000000000E+00 0.  1.
</event>
<event>
12    1  0.8691829E-002  0.2225017E+03  0.7818608E-02  0.1133096E+00
         21   -1    0    0  503  502  0.00000000000E+00  0.00000000000E+00  0.78479810657E+02  0.78479810657E+02  0.00000000000E+00 0.  1.
         21   -1    0    0  501  503 -0.00000000000E+00 -0.00000000000E+00 -0.14679092653E+04  0.14679092653E+04  0.00000000000E+00 0.  1.
          6    2    1    2  501    0  0.13230833491E+03  0.53160468664E+02 -0.12803767523E+04  0.12985998283E+04  0.16329530102E+03 0.  0.
         24    2    3    3    0    0  0.15743851544E+02  0.44408492016E+02 -0.75739521220E+03  0.76269343987E+03  0.76379269041E+02 0.  0.
         -6    2    1    2    0  502 -0.13230833491E+03 -0.53160468664E+02 -0.10905270239E+03  0.24778924770E+03  0.17080833838E+03 0.  0.
        -24    2    5    5    0    0 -0.14933979813E+03 -0.39816958659E+02 -0.12961757437E+03  0.21757130670E+03  0.81540127622E+02 0.  0.
          5    1    3    3  501    0  0.11656448337E+03  0.87519766475E+01 -0.52298154008E+03  0.53590638841E+03  0.47000000000E+01 0. -1.
        -11    1    4    4    0    0  0.17347851335E+02  0.65549914473E+02 -0.61534716836E+03  0.61907178650E+03  0.00000000000E+00 0.  1.
         12    1    4    4    0    0 -0.16039997906E+01 -0.21141422457E+02 -0.14204804384E+03  0.14362165337E+03  0.00000000000E+00 0. -1.
         -5    1    5    5    0  502  0.17031463217E+02 -0.13343510005E+02  0.20564871978E+02  0.30217940996E+02  0.47000000000E+01 0.  1.
         13    1    6    6    0    0 -0.13127205739E+03 -0.58593120381E+02 -0.88252709075E+02  0.16868327560E+03  0.00000000000E+00 0. -1.
        -14    1    6    6    0    0 -0.18067740737E+02  0.18776161723E+02 -0.41364865292E+02  0.48888031102E+02  0.00000000000E+00 0.  1.
</event>
<event>
12    1  0.8691829E-002  0.2455298E+03  0.7818608E-02  0.1116512E+00
         21   -1    0    0  503  502  0.00000000000E+00  0.00000000000E+00  0.47144559429E+02  0.47144559429E+02  0.00000000000E+00 0. -1.
         21   -1    0    0  501  503 -0.00000000000E+00 -0.00000000000E+00 -0.15299604904E+04  0.15299604904E+04  0.00000000000E+00 0.  1.
          6    2    1    2  501    0  0.15989442846E+03 -0.66239698851E+02 -0.10652702874E+04  0.10927195931E+04  0.17111808174E+03 0.  0.
         24    2    3    3    0    0  0.12726237193E+02 -0.78106528915E+01 -0.26017396933E+03  0.27218647290E+03  0.78562193818E+02 0.  0.
         -6    2    1    2    0  502 -0.15989442846E+03  0.66239698851E+02 -0.41754564362E+03  0.48438545681E+03  0.17415791773E+03 0.  0.
        -24    2    5    5    0    0 -0.14018166439E+03  0.48428872877E+02 -0.15653567214E+03  0.22198478265E+03  0.52702678436E+02 0.  0.
          5    1    3    3  501    0  0.14716819127E+03 -0.58429045960E+02 -0.80509631807E+03  0.82053312017E+03  0.47000000000E+01 0. -1.
        -11    1    4    4    0    0  0.13578251964E+02  0.33106497814E+02 -0.16044239671E+03  0.16438422000E+03  0.00000000000E+00 0.  1.
         12    1    4    4    0    0 -0.85201477183E+00 -0.40917150706E+02 -0.99731572627E+02  0.10780225290E+03  0.00000000000E+00 0. -1.
         -5    1    5    5    0  502 -0.19712764067E+02  0.17810825974E+02 -0.26100997148E+03  0.26240067416E+03  0.47000000000E+01 0.  1.
         13    1    6    6    0    0 -0.87929435116E+02  0.55126568266E+02 -0.11496035193E+03  0.15487545514E+03  0.00000000000E+00 0. -1.
        -14    1    6    6    0    0 -0.52252229278E+02 -0.66976953887E+01 -0.41575320205E+02  0.67109327505E+02  0.00000000000E+00 0.  1.
</event>
<event>
12    1  0.8691829E-002  0.2520765E+03  0.7818608E-02  0.1112064E+00
         21   -1    0    0  501  502  0.00000000000E+00  0.00000000000E+00  0.15847885683E+04  0.15847885683E+04  0.00000000000E+00 0. -1.
         21   -1    0    0  502  503 -0.00000000000E+00 -0.00000000000E+00 -0.57126845536E+02  0.57126845536E+02  0.00000000000E+00 0. -1.
         -6    2    1    2    0  503  0.13447886809E+03 -0.12506750798E+03  0.31426421693E+03  0.40261074497E+03  0.17206674986E+03 0.  0.
        -24    2    3    3    0    0  0.13232835820E+03 -0.30764772501E+02  0.19978245205E+03  0.25419984543E+03  0.79039658781E+02 0.  0.
          6    2    1    2  501    0 -0.13447886809E+03  0.12506750798E+03  0.12133975058E+04  0.12393046689E+04  0.17267341310E+03 0.  0.
         24    2    5    5    0    0 -0.35340810631E+02  0.69675677222E+02  0.32326286339E+03  0.34194276806E+03  0.79512922748E+02 0.  0.
          5    1    5    5  501    0 -0.99138057462E+02  0.55391830759E+02  0.89013464244E+03  0.89736190081E+03  0.47000000000E+01 0. -1.
        -11    1    6    6    0    0 -0.52242874700E+02  0.16311225076E+02  0.17982592916E+03  0.18797004767E+03  0.00000000000E+00 0.  1.
         12    1    6    6    0    0  0.16902064069E+02  0.53364452146E+02  0.14343693423E+03  0.15397272039E+03  0.00000000000E+00 0. -1.
         -5    1    3    3    0  503  0.21505098964E+01 -0.94302735481E+02  0.11448176488E+03  0.14841089954E+03  0.47000000000E+01 0.  1.
         13    1    4    4    0    0  0.61698389714E+02  0.21642673145E+02  0.58256589478E+02  0.87572408964E+02  0.00000000000E+00 0. -1.
        -14    1    4    4    0    0  0.70629968483E+02 -0.52407445646E+02  0.14152586257E+03  0.16662743647E+03  0.00000000000E+00 0.  1.
</event>
<event>
12    1  0.8691829E-002  0.2352349E+03  0.7818608E-02  0.1125217E+00
         21   -1    0    0  501  502  0.00000000000E+00  0.00000000000E+00  0.88478787909E+03  0.88478787909E+03  0.00000000000E+00 0.  1.
         21   -1    0    0  502  503 -0.00000000000E+00 -0.00000000000E+00 -0.61168823411E+02  0.61168823411E+02  0.00000000000E+00 0.  1.
         -6    2    1    2    0  503  0.14091885462E+03  0.10519437222E+02  0.33898495743E+03  0.41260907958E+03  0.18806028035E+03 0.  0.
        -24    2    3    3    0    0  0.38563727311E+02  0.41241194417E+02  0.64251094315E+02  0.11778509143E+03  0.80976091906E+02 0.  0.
          6    2    1    2  501    0 -0.14091885462E+03 -0.10519437222E+02  0.48463409825E+03  0.53334762292E+03  0.17210664002E+03 0.  0.
         24    2    5    5    0    0 -0.12548037978E+03  0.89455729853E+01  0.20844334143E+03  0.25600188691E+03  0.79139058187E+02 0.  0.
          5    1    5    5  501    0 -0.15438474845E+02 -0.19465010207E+02  0.27619075682E+03  0.27734573601E+03  0.47000000000E+01 0. -1.
        -13    1    6    6    0    0 -0.62050518742E+01  0.53634994970E+01 -0.62925548368E+01  0.10337603300E+02  0.00000000000E+00 0.  1.
         14    1    6    6    0    0 -0.11927532790E+03  0.35820734883E+01  0.21473589627E+03  0.24566428361E+03  0.00000000000E+00 0. -1.
         -5    1    3    3    0  503  0.10235512731E+03 -0.30721757195E+02  0.27473386311E+03  0.29482398815E+03  0.47000000000E+01 0.  1.
         13    1    4    4    0    0  0.62592737083E+02  0.18255381552E+02  0.38420562348E+02  0.75678592101E+02  0.00000000000E+00 0. -1.
        -14    1    4    4    0    0 -0.24029009772E+02  0.22985812864E+02  0.25830531967E+02  0.42106499325E+02  0.00000000000E+00 0.  1.
</event>
<event>
12    1  0.8691829E-002  0.3136621E+03  0.7818608E-02  0.1078655E+00
         21   -1    0    0  503  502  0.00000000000E+00  0.00000000000E+00  0.62002076774E+02  0.62002076774E+02  0.00000000000E+00 0. -1.
         21   -1    0    0  501  503 -0.00000000000E+00 -0.00000000000E+00 -0.21891101242E+04  0.21891101242E+04  0.00000000000E+00 0.  1.
          6    2    1    2  501    0 -0.25191417845E+03 -0.69669925259E+02 -0.16545000533E+04  0.16838889648E+04  0.17261798124E+03 0.  0.
         24    2    3    3    0    0 -0.19131002420E+03  0.14996194324E+02 -0.10318574069E+04  0.10525830402E+04  0.79855726380E+02 0.  0.
         -6    2    1    2    0  502  0.25191417845E+03  0.69669925259E+02 -0.47260799413E+03  0.56722323623E+03  0.17340482061E+03 0.  0.
        -24    2    5    5    0    0  0.21378384779E+02  0.43718886337E+02 -0.12450258495E+03  0.14886970811E+03  0.65520378330E+02 0.  0.
          5    1    3    3  501    0 -0.60604154250E+02 -0.84666119584E+02 -0.62264264640E+03  0.63130592460E+03  0.47000000000E+01 0. -1.
        -11    1    4    4    0    0 -0.13820244696E+03 -0.20802768226E+02 -0.60400305759E+03  0.61996158355E+03  0.00000000000E+00 0.  1.
         12    1    4    4    0    0 -0.53107577244E+02  0.35798962551E+02 -0.42785434934E+03  0.43262145662E+03  0.00000000000E+00 0. -1.
         -5    1    5    5    0  502  0.23053579367E+03  0.25951038922E+02 -0.34810540918E+03  0.41835352811E+03  0.47000000000E+01 0.  1.
         11    1    6    6    0    0  0.15464228756E+02  0.32607583682E+02 -0.15724330437E+02  0.39365612561E+02  0.00000000000E+00 0. -1.
        -12    1    6    6    0    0  0.59141560222E+01  0.11111302655E+02 -0.10877825451E+03  0.10950409555E+03  0.00000000000E+00 0.  1.
</event>
<event>
12    1  0.8691829E-002  0.1792820E+03  0.7818608E-02  0.1168969E+00
         21   -1    0    0  503  502  0.00000000000E+00  0.00000000000E+00  0.26350281580E+03  0.26350281580E+03  0.00000000000E+00 0.  1.
         21   -1    0    0  501  503 -0.00000000000E+00 -0.00000000000E+00 -0.12938775014E+03  0.12938775014E+03  0.00000000000E+00 0.  1.
          6    2    1    2  501    0  0.39881244453E+02  0.33482191028E+01  0.15753641058E+02  0.17806168556E+03  0.17278906917E+03 0.  0.
         24    2    3    3    0    0  0.69887030009E+02  0.53298816705E+02  0.16320958755E+02  0.11959955066E+03  0.79452614789E+02 0.  0.
         -6    2    1    2    0  502 -0.39881244453E+02 -0.33482191028E+01  0.11836142460E+03  0.21482888038E+03  0.17475782323E+03 0.  0.
        -24    2    5    5    0    0  0.40143041544E+02 -0.11450918601E+02  0.49665184272E+01  0.75724477733E+02  0.62983671704E+02 0.  0.
          5    1    3    3  501    0 -0.30005785556E+02 -0.49950597602E+02 -0.56731769770E+00  0.58462134900E+02  0.47000000000E+01 0. -1.
        -11    1    4    4    0    0  0.84018488343E+02  0.44344909733E+02 -0.16895669775E+01  0.95018061647E+02  0.00000000000E+00 0.  1.
         12    1    4    4    0    0 -0.14131458334E+02  0.89539069721E+01  0.18010525733E+02  0.24581489009E+02  0.00000000000E+00 0. -1.
         -5    1    5    5    0  502 -0.80024285997E+02  0.81026994983E+01  0.11339490618E+03  0.13910440264E+03  0.47000000000E+01 0.  1.
         11    1    6    6    0    0  0.31057150160E+02  0.23253376304E+02 -0.32105678662E+01  0.38930371583E+02  0.00000000000E+00 0. -1.
        -12    1    6    6    0    0  0.90858913842E+01 -0.34704294905E+02  0.81770862934E+01  0.36794106149E+02  0.00000000000E+00 0.  1.
</event>
<event>
12    1  0.8691829E-002  0.1921508E+03  0.7818608E-02  0.1156550E+00
         21   -1    0    0  503  502  0.00000000000E+00  0.00000000000E+00  0.36885132160E+02  0.36885132160E+02  0.00000000000E+00 0. -1.
         21   -1    0    0  501  503 -0.00000000000E+00 -0.00000000000E+00 -0.10294990796E+04  0.10294990796E+04  0.00000000000E+00 0.  1.
          6    2    1    2  501    0  0.25246220390E+02  0.80365225812E+02 -0.58564223584E+03  0.61635926555E+03  0.17270198223E+03 0.  0.
         24    2    3    3    0    0  0.60668792904E+02  0.15828801088E+02 -0.45511936306E+03  0.46643255319E+03  0.80588080197E+02 0.  0.
         -6    2    1    2    0  502 -0.25246220390E+02 -0.80365225812E+02 -0.40697171163E+03  0.45002494624E+03  0.17262832041E+03 0.  0.
        -24    2    5    5    0    0 -0.61859944640E+02 -0.90371923073E+02 -0.21643830449E+03  0.25569078035E+03  0.80860981181E+02 0.  0.
          5    1    3    3  501    0 -0.35422572513E+02  0.64536424724E+02 -0.13052287278E+03  0.14992671236E+03  0.47000000000E+01 0. -1.
        -11    1    4    4    0    0 -0.13313188711E+02  0.84849550394E+01 -0.20212664243E+03  0.20274223792E+03  0.00000000000E+00 0.  1.
         12    1    4    4    0    0  0.73981981615E+02  0.73438460483E+01 -0.25299272063E+03  0.26369031527E+03  0.00000000000E+00 0. -1.
         -5    1    5    5    0  502  0.36613724249E+02  0.10006697262E+02 -0.19053340714E+03  0.19433416589E+03  0.47000000000E+01 0.  1.
         11    1    6    6    0    0  0.13233648719E+02 -0.14980965809E+02 -0.77486011281E+01  0.21438274520E+02  0.00000000000E+00 0. -1.
        -12    1    6    6    0    0 -0.75093593358E+02 -0.75390957265E+02 -0.20868970336E+03  0.23425250583E+03  0.00000000000E+00 0.  1.
</event>
<event>
12    1  0.8691829E-002  0.1806810E+03  0.7818608E-02  0.1167173E+00
         21   -1    0    0  501  502  0.00000000000E+00  0.00000000000E+00  0.14156856153E+04  0.14156856153E+04  0.00000000000E+00 0.  1.
         21   -1    0    0  502  503 -0.00000000000E+00 -0.00000000000E+00 -0.45541871845E+02  0.45541871845E+02  0.00000000000E+00 0.  1.
         -6    2    1    2    0  503 -0.37176856493E+02 -0.44357388858E+02  0.17168145914E+03  0.24923911045E+03  0.17116049241E+03 0.  0.
        -24    2    3    3    0    0  0.39869598111E+02 -0.17928950529E+02  0.51297966386E+02  0.10381251781E+03  0.78959010747E+02 0.  0.
          6    2    1    2  501    0  0.37176856493E+02  0.44357388858E+02  0.11984622843E+04  0.12119883767E+04  0.17103883100E+03 0.  0.
         24    2    5    5    0    0  0.36897657279E+02  0.73344129869E+02  0.11503602794E+04  0.11556305734E+04  0.73569364785E+02 0.  0.
          5    1    5    5  501    0  0.27919921386E+00 -0.28986741011E+02  0.48102004918E+02  0.56357803220E+02  0.47000000000E+01 0. -1.
        -11    1    6    6    0    0  0.80366503907E+01 -0.34281217708E+01  0.50548800217E+03  0.50556350749E+03  0.00000000000E+00 0.  1.
         12    1    6    6    0    0  0.28861006888E+02  0.76772251640E+02  0.64487227721E+03  0.65006706596E+03  0.00000000000E+00 0. -1.
         -5    1    3    3    0  503 -0.77046454604E+02 -0.26428438329E+02  0.12038349275E+03  0.14542659264E+03  0.47000000000E+01 0.  1.
         13    1    4    4    0    0 -0.10839435734E+02 -0.17756621638E+02  0.48791243951E+02  0.53041271340E+02  0.00000000000E+00 0. -1.
        -14    1    4    4    0    0  0.50709033845E+02 -0.17232889068E+00  0.25067224344E+01  0.50771246470E+02  0.00000000000E+00 0.  1.
</event>
<event>
12    1  0.8691829E-002  0.2868746E+03  0.7818608E-02  0.1092050E+00
         21   -1    0    0  501  502  0.00000000000E+00  0.00000000000E+00  0.23429086192E+03  0.23429086192E+03  0.00000000000E+00 0. -1.
         21   -1    0    0  502  503 -0.00000000000E+00 -0.00000000000E+00 -0.40163044067E+03  0.40163044067E+03  0.00000000000E+00 0.  1.
         -6    2    1    2    0  503 -0.20304892668E+03  0.10713856482E+03 -0.19692623085E+03  0.34796119027E+03  0.17201601914E+03 0.  0.
        -24    2    3    3    0    0 -0.17499670317E+03  0.10416236898E+03 -0.88176932395E+02  0.23551438106E+03  0.78855608865E+02 0.  0.
          6    2    1    2  501    0  0.20304892668E+03 -0.10713856482E+03  0.29586652103E+02  0.28796011233E+03  0.17128373423E+03 0.  0.
         24    2    5    5    0    0  0.12042598288E+03 -0.11293444376E+03  0.70284610922E+02  0.19555580017E+03  0.77753061067E+02 0.  0.
          5    1    5    5  501    0  0.82622943794E+02  0.57958789416E+01 -0.40697958818E+02  0.92404312161E+02  0.47000000000E+01 0. -1.
        -13    1    6    6    0    0  0.85711613695E+02 -0.78345531902E+02  0.81313277977E+01  0.11640713716E+03  0.00000000000E+00 0.  1.
         14    1    6    6    0    0  0.34714369188E+02 -0.34588911858E+02  0.62153283124E+02  0.79148663000E+02  0.00000000000E+00 0. -1.
         -5    1    3    3    0  503 -0.28052223509E+02  0.29761958360E+01 -0.10874929846E+03  0.11244680920E+03  0.47000000000E+01 0.  1.
         11    1    4    4    0    0 -0.10839368250E+03  0.67315079210E+02 -0.12542802840E+02  0.12821010958E+03  0.00000000000E+00 0. -1.
        -12    1    4    4    0    0 -0.66603020670E+02  0.36847289772E+02 -0.75634129554E+02  0.10730427149E+03  0.00000000000E+00 0.  1.
</event>
<event>
12    1  0.8691829E-002  0.1885084E+03  0.7818608E-02  0.1160248E+00
         21   -1    0    0  501  502  0.00000000000E+00  0.00000000000E+00  0.62122759622E+02  0.62122759622E+02  0.00000000000E+00 0.  1.
         21   -1    0    0  502  503 -0.00000000000E+00 -0.00000000000E+00 -0.62204355924E+03  0.62204355924E+03  0.00000000000E+00 0.  1.
         -6    2    1    2    0  503 -0.54364250223E+02  0.48823176017E+02 -0.38109245800E+03  0.42432984977E+03  0.17171250870E+03 0.  0.
        -24    2    3    3    0    0  0.39738132629E+01  0.74726024715E+02 -0.15610405332E+03  0.19041499461E+03  0.79307154465E+02 0.  0.
          6    2    1    2  501    0  0.54364250223E+02 -0.48823176017E+02 -0.17882834162E+03  0.25983646909E+03  0.17377065542E+03 0.  0.
         24    2    5    5    0    0 -0.78764258543E+01 -0.69033680822E+02 -0.44217435687E+02  0.11008817275E+03  0.73051604963E+02 0.  0.
          5    1    5    5  501    0  0.62240676078E+02  0.20210504805E+02 -0.13461090593E+03  0.14974829635E+03  0.47000000000E+01 0. -1.
        -13    1    6    6    0    0  0.15214966351E+02 -0.72554793375E+02 -0.44990631555E+02  0.86717069660E+02  0.00000000000E+00 0.  1.
         14    1    6    6    0    0 -0.23091392205E+02  0.35211125525E+01  0.77319586802E+00  0.23371103086E+02  0.00000000000E+00 0. -1.
         -5    1    3    3    0  503 -0.58338063486E+02 -0.25902848698E+02 -0.22498840468E+03  0.23391485516E+03  0.47000000000E+01 0.  1.
         13    1    4    4    0    0  0.33922373666E+02  0.88231834603E+01 -0.36454399836E+02  0.50571724005E+02  0.00000000000E+00 0. -1.
        -14    1    4    4    0    0 -0.29948560403E+02  0.65902841255E+02 -0.11964965348E+03  0.13984327061E+03  0.00000000000E+00 0.  1.
</event>
<event>
12    1  0.8691829E-002  0.1924154E+03  0.7818608E-02  0.1156413E+00
         21   -1    0    0  503  502  0.00000000000E+00  0.00000000000E+00  0.22372950178E+04  0.22372950178E+04  0.00000000000E+00 0.  1.
         21   -1    0    0  501  503 -0.00000000000E+00 -0.00000000000E+00 -0.25179280029E+02  0.25179280029E+02  0.00000000000E+00 0.  1.
          6    2    1    2  501    0  0.66021636884E+02  0.56945207188E+02  0.44304258523E+03  0.48302217448E+03  0.17152864354E+03 0.  0.
         24    2    3    3    0    0 -0.54073189108E+01 -0.82084132800E+01  0.29795564259E+03  0.30861058969E+03  0.79789184533E+02 0.  0.
         -6    2    1    2    0  502 -0.66021636884E+02 -0.56945207188E+02  0.17690731525E+04  0.17794521233E+04  0.17096323314E+03 0.  0.
        -24    2    5    5    0    0  0.46042856047E+01 -0.26917135463E+02  0.13991247281E+04  0.14015981400E+04  0.78623212316E+02 0.  0.
          5    1    3    3  501    0  0.71428955795E+02  0.65153620468E+02  0.14508694264E+03  0.17441158479E+03  0.47000000000E+01 0. -1.
        -13    1    4    4    0    0  0.19115221275E+02 -0.27199426039E+02  0.59595434090E+02  0.68240869174E+02  0.00000000000E+00 0.  1.
         14    1    4    4    0    0 -0.24522540185E+02  0.18991012759E+02  0.23836020850E+03  0.24036972051E+03  0.00000000000E+00 0. -1.
         -5    1    5    5    0  502 -0.70625922488E+02 -0.30028071724E+02  0.36994842436E+03  0.37785398332E+03  0.47000000000E+01 0.  1.
         13    1    6    6    0    0  0.59850359775E+01  0.74165149422E+01  0.21183650875E+02  0.23228698068E+02  0.00000000000E+00 0. -1.
        -14    1    6    6    0    0 -0.13807503728E+01 -0.34333650406E+02  0.13779410773E+04  0.13783694419E+04  0.00000000000E+00 0.  1.
</event>
<event>
12    1  0.8691829E-002  0.1737976E+03  0.7818608E-02  0.1174319E+00
         21   -1    0    0  503  502  0.00000000000E+00  0.00000000000E+00  0.75325925541E+03  0.75325925541E+03  0.00000000000E+00 0. -1.
         21   -1    0    0  501  503 -0.00000000000E+00 -0.00000000000E+00 -0.39929086203E+02  0.39929086203E+02  0.00000000000E+00 0. -1.
          6    2    1    2  501    0 -0.11182393464E+02 -0.23380004072E+02  0.33242458690E+03  0.37511558919E+03  0.17185438244E+03 0.  0.
         24    2    3    3    0    0  0.50905808008E+02 -0.47625962708E+02  0.21312743683E+03  0.23837967113E+03  0.80882196225E+02 0.  0.
         -6    2    1    2    0  502  0.11182393464E+02  0.23380004072E+02  0.38090558230E+03  0.41807275242E+03  0.17036458896E+03 0.  0.
        -24    2    5    5    0    0 -0.52374642107E+02  0.15419977284E+02  0.29568028671E+03  0.31135677514E+03  0.80841391896E+02 0.  0.
          5    1    3    3  501    0 -0.62088201472E+02  0.24245958636E+02  0.11929715007E+03  0.13673591806E+03  0.47000000000E+01 0. -1.
        -11    1    4    4    0    0 -0.95046884906E+01 -0.31446200653E+01  0.11208996261E+03  0.11253616066E+03  0.00000000000E+00 0.  1.
         12    1    4    4    0    0  0.60410496499E+02 -0.44481342643E+02  0.10103747422E+03  0.12584351047E+03  0.00000000000E+00 0. -1.
         -5    1    5    5    0  502  0.63557035571E+02  0.79600267873E+01  0.85225295594E+02  0.10671597728E+03  0.47000000000E+01 0.  1.
         11    1    6    6    0    0 -0.21691068978E+02  0.33461488027E+02  0.25140357692E+03  0.25454652255E+03  0.00000000000E+00 0. -1.
        -12    1    6    6    0    0 -0.30683573129E+02 -0.18041510743E+02  0.44276709788E+02  0.56810252591E+02  0.00000000000E+00 0.  1.
</event>
<event>
12    1  0.8691829E-002  0.2509400E+03  0.7818608E-02  0.1112752E+00
         21   -1    0    0  501  502  0.00000000000E+00  0.00000000000E+00  0.89265711697E+03  0.89265711697E+03  0.00000000000E+00 0. -1.
         21   -1    0    0  502  503 -0.00000000000E+00 -0.00000000000E+00 -0.71707063242E+02  0.71707063242E+02  0.00000000000E+00 0. -1.
         -6    2    1    2    0  503 -0.17985960271E+03 -0.32722498417E+02  0.34697343094E+03  0.42805761933E+03  0.17152995393E+03 0.  0.
        -24    2    3    3    0    0 -0.89791174413E+02 -0.65651404656E+02  0.27946801903E+03  0.31068766883E+03  0.77793907012E+02 0.  0.
          6    2    1    2  501    0  0.17985960271E+03  0.32722498417E+02  0.47397662278E+03  0.53630656088E+03  0.17190302416E+03 0.  0.
         24    2    5    5    0    0  0.19301242819E+02  0.29310367222E+02  0.14195752124E+03  0.16745780685E+03  0.81599899723E+02 0.  0.
          5    1    5    5  501    0  0.16055835989E+03  0.34121311954E+01  0.33201910153E+03  0.36884875403E+03  0.47000000000E+01 0. -1.
        -13    1    6    6    0    0 -0.24757093723E+02 -0.11809630588E+02  0.57450153254E+02  0.63662399995E+02  0.00000000000E+00 0.  1.
         14    1    6    6    0    0  0.44058336542E+02  0.41119997810E+02  0.84507367991E+02  0.10379540685E+03  0.00000000000E+00 0. -1.
         -5    1    3    3    0  503 -0.90068428294E+02  0.32928906238E+02  0.67505411914E+02  0.11736995049E+03  0.47000000000E+01 0.  1.
         13    1    4    4    0    0 -0.77663021432E+02 -0.21759477141E+02  0.22862169402E+03  0.24243122472E+03  0.00000000000E+00 0. -1.
        -14    1    4    4    0    0 -0.12128152981E+02 -0.43891927514E+02  0.50846325012E+02  0.68256444113E+02  0.00000000000E+00 0.  1.
</event>
<event>
12    1  0.8691829E-002  0.3359237E+03  0.7818608E-02  0.1068588E+00
         21   -1    0    0  501  502  0.00000000000E+00  0.00000000000E+00  0.45536888555E+03  0.45536888555E+03  0.00000000000E+00 0. -1.
         21   -1    0    0  502  503 -0.00000000000E+00 -0.00000000000E+00 -0.25473798403E+03  0.25473798403E+03  0.00000000000E+00 0.  1.
         -6    2    1    2    0  503 -0.22153353409E+03 -0.18450327865E+03  0.40605086949E+02  0.33836887721E+03  0.17241275306E+03 0.  0.
        -24    2    3    3    0    0 -0.20620350760E+03 -0.19194054508E+03  0.72502269067E+02  0.30190186648E+03  0.80790460916E+02 0.  0.
          6    2    1    2  501    0  0.22153353409E+03  0.18450327865E+03  0.16002581457E+03  0.37173799237E+03  0.17164587697E+03 0.  0.
         24    2    5    5    0    0  0.11069152091E+03  0.12531562361E+03  0.24955501625E+02  0.18719745526E+03  0.80395844880E+02 0.  0.
          5    1    5    5  501    0  0.11084201318E+03  0.59187655041E+02  0.13507031294E+03  0.18454053710E+03  0.47000000000E+01 0. -1.
        -11    1    6    6    0    0  0.44212289916E+02  0.10749627826E+03  0.92395011766E+01  0.11659993482E+03  0.00000000000E+00 0.  1.
         12    1    6    6    0    0  0.66479230995E+02  0.17819345353E+02  0.15716000449E+02  0.70597520443E+02  0.00000000000E+00 0. -1.
         -5    1    3    3    0  503 -0.15330026492E+02  0.74372664268E+01 -0.31897182118E+02  0.36467010726E+02  0.47000000000E+01 0.  1.
         13    1    4    4    0    0 -0.12939272221E+03 -0.11286591848E+03  0.32820626663E+01  0.17173224523E+03  0.00000000000E+00 0. -1.
        -14    1    4    4    0    0 -0.76810785386E+02 -0.79074626597E+02  0.69220206401E+02  0.13016962125E+03  0.00000000000E+00 0.  1.
</event>
<event>
12    1  0.8691829E-002  0.2162898E+03  0.7818608E-02  0.1136760E+00
         21   -1    0    0  503  502  0.00000000000E+00  0.00000000000E+00  0.24329945213E+03  0.24329945213E+03  0.00000000000E+00 0.  1.
         21   -1    0    0  501  503 -0.00000000000E+00 -0.00000000000E+00 -0.19819200722E+03  0.19819200722E+03  0.00000000000E+00 0.  1.
          6    2    1    2  501    0  0.65661034279E+02  0.11289058368E+03 -0.16735299953E+02  0.21693627104E+03  0.17241119489E+03 0.  0.
         24    2    3    3    0    0  0.24029615583E+02  0.72104205782E+02  0.56662269683E+02  0.12309599785E+03  0.78521162528E+02 0.  0.
         -6    2    1    2    0  502 -0.65661034279E+02 -0.11289058368E+03  0.61842744865E+02  0.22455518831E+03  0.17188616058E+03 0.  0.
        -24    2    5    5    0    0  0.93065214190E+01 -0.26739885894E+02  0.70882401962E+02  0.10989969330E+03  0.79069556978E+02 0.  0.
          5    1    3    3  501    0  0.41631418696E+02  0.40786377898E+02 -0.73397569636E+02  0.93840273194E+02  0.47000000000E+01 0. -1.
        -13    1    4    4    0    0 -0.85262632676E+00  0.44882046679E+02  0.70605665233E+02  0.83667706129E+02  0.00000000000E+00 0.  1.
         14    1    4    4    0    0  0.24882241909E+02  0.27222159103E+02 -0.13943395551E+02  0.39428291722E+02  0.00000000000E+00 0. -1.
         -5    1    5    5    0  502 -0.74967555698E+02 -0.86150697786E+02 -0.90396570976E+01  0.11465549501E+03  0.47000000000E+01 0.  1.
         11    1    6    6    0    0 -0.30917347032E+02 -0.20694465464E+01  0.48787802307E+02  0.57796320043E+02  0.00000000000E+00 0. -1.
        -12    1    6    6    0    0  0.40223868451E+02 -0.24670439348E+02  0.22094599655E+02  0.52103373257E+02  0.00000000000E+00 0.  1.
</event>
<event>
12    1  0.8691829E-002  0.2144881E+03  0.7818608E-02  0.1138182E+00
         21   -1    0    0  501  502  0.00000000000E+00  0.00000000000E+00  0.70559491997E+03  0.70559491997E+03  0.00000000000E+00 0. -1.
         21   -1    0    0  502  503 -0.00000000000E+00 -0.00000000000E+00 -0.69157896208E+02  0.69157896208E+02  0.00000000000E+00 0.  1.
         -6    2    1    2    0  503  0.94410346022E+02  0.85378777442E+02  0.41353895593E+03  0.46585362231E+03  0.17263336952E+03 0.  0.
        -24    2    3    3    0    0  0.10273302702E+03  0.20215633355E+02  0.35866695558E+03  0.38013006202E+03  0.69958075685E+02 0.  0.
          6    2    1    2  501    0 -0.94410346022E+02 -0.85378777442E+02  0.22289806783E+03  0.30889919387E+03  0.17184968506E+03 0.  0.
         24    2    5    5    0    0 -0.92098201552E+02 -0.61681813957E+01  0.18373279405E+03  0.22037985582E+03  0.79305838698E+02 0.  0.
          5    1    5    5  501    0 -0.23121444695E+01 -0.79210596046E+02  0.39165273781E+02  0.88519338047E+02  0.47000000000E+01 0. -1.
        -13    1    6    6    0    0 -0.12706156907E+02  0.31352123110E+02  0.54071910031E+02  0.63782234997E+02  0.00000000000E+00 0.  1.
         14    1    6    6    0    0 -0.79392044646E+02 -0.37520304506E+02  0.12966088402E+03  0.15659762082E+03  0.00000000000E+00 0. -1.
         -5    1    3    3    0  503 -0.83226809944E+01  0.65163144087E+02  0.54872000351E+02  0.85723560290E+02  0.47000000000E+01 0.  1.
         13    1    4    4    0    0  0.76034941251E+02 -0.97148559005E+00  0.14468153078E+03  0.16344724355E+03  0.00000000000E+00 0. -1.
        -14    1    4    4    0    0  0.26698085765E+02  0.21187118945E+02  0.21398542480E+03  0.21668281847E+03  0.00000000000E+00 0.  1.
</event>
<event>
12    1  0.8691829E-002  0.2432136E+03  0.7818608E-02  0.1117770E+00
         21   -1    0    0  501  502  0.00000000000E+00  0.00000000000E+00  0.52356367397E+02  0.52356367397E+02  0.00000000000E+00 0.  1.
         21   -1    0    0  502  503 -0.00000000000E+00 -0.00000000000E+00 -0.12583919160E+04  0.12583919160E+04  0.00000000000E+00 0.  1.
         -6    2    1    2    0  503  0.17118286829E+03 -0.48964818877E+01 -0.81548602922E+03  0.85098198045E+03  0.17270007896E+03 0.  0.
        -24    2    3    3    0    0  0.86129022924E+02 -0.19058314241E+01 -0.22465727488E+03  0.25403658299E+03  0.81497567791E+02 0.  0.
          6    2    1    2  501    0 -0.17118286829E+03  0.48964818877E+01 -0.39054951939E+03  0.45976630295E+03  0.17183880906E+03 0.  0.
         24    2    5    5    0    0 -0.19360046273E+03  0.69276659479E+01 -0.29823904426E+03  0.36463487771E+03  0.80516674024E+02 0.  0.
          5    1    5    5  501    0  0.22417594440E+02 -0.20311840603E+01 -0.92310475124E+02  0.95131425233E+02  0.47000000000E+01 0. -1.
        -11    1    6    6    0    0 -0.95957393020E+02  0.41902477315E+02 -0.17058357676E+03  0.20015592806E+03  0.00000000000E+00 0.  1.
         12    1    6    6    0    0 -0.97643069715E+02 -0.34974811367E+02 -0.12765546750E+03  0.16447894965E+03  0.00000000000E+00 0. -1.
         -5    1    3    3    0  503  0.85053845370E+02 -0.29906504635E+01 -0.59082875434E+03  0.59694539746E+03  0.47000000000E+01 0.  1.
         11    1    4    4    0    0  0.18133589138E+01  0.28030875431E+02 -0.68972621124E+02  0.74473087170E+02  0.00000000000E+00 0. -1.
        -12    1    4    4    0    0  0.84315664010E+02 -0.29936706855E+02 -0.15568465376E+03  0.17956349582E+03  0.00000000000E+00 0.  1.
</event>
<event>
12    1  0.8691829E-002  0.2992190E+03  0.7818608E-02  0.1085667E+00
         21   -1    0    0  503  502  0.00000000000E+00  0.00000000000E+00  0.17992245877E+03  0.17992245877E+03  0.00000000000E+00 0.  1.
         21   -1    0    0  501  503 -0.00000000000E+00 -0.00000000000E+00 -0.52959490839E+03  0.52959490839E+03  0.00000000000E+00 0. -1.
          6    2    1    2  501    0  0.22583418152E+03  0.94731169835E+02 -0.86954035928E+02  0.31133022714E+03  0.17143638438E+03 0.  0.
         24    2    3    3    0    0  0.22433537434E+03  0.99799255361E+02 -0.11511223363E+03  0.28229738347E+03  0.78452118083E+02 0.  0.
         -6    2    1    2    0  502 -0.22583418152E+03 -0.94731169835E+02 -0.26271841369E+03  0.39818714001E+03  0.17192138174E+03 0.  0.
        -24    2    5    5    0    0 -0.21205901225E+03 -0.10600528720E+03 -0.27810953961E+03  0.37419052009E+03  0.80420667194E+02 0.  0.
          5    1    3    3  501    0  0.14988071767E+01 -0.50680855266E+01  0.28158197702E+02  0.29032843672E+02  0.47000000000E+01 0. -1.
        -13    1    4    4    0    0  0.41256284307E+02  0.20310086504E+02  0.95610603679E+01  0.46968015542E+02  0.00000000000E+00 0.  1.
         14    1    4    4    0    0  0.18307909003E+03  0.79489168857E+02 -0.12467329400E+03  0.23532936793E+03  0.00000000000E+00 0. -1.
         -5    1    5    5    0  502 -0.13775169270E+02  0.11274117361E+02  0.15391125922E+02  0.23996619925E+02  0.47000000000E+01 0.  1.
         11    1    6    6    0    0 -0.82214976836E+02 -0.78877408024E+02 -0.16105383237E+03  0.19727971217E+03  0.00000000000E+00 0. -1.
        -12    1    6    6    0    0 -0.12984403541E+03 -0.27127879171E+02 -0.11705570724E+03  0.17691080791E+03  0.00000000000E+00 0.  1.
</event>
<event>
12    1  0.8691829E-002  0.1867335E+03  0.7818608E-02  0.1161689E+00
         21   -1    0    0  503  502  0.00000000000E+00  0.00000000000E+00  0.46043229312E+03  0.46043229312E+03  0.00000000000E+00 0. -1.
         21   -1    0    0  501  503 -0.00000000000E+00 -0.00000000000E+00 -0.85782033883E+02  0.85782033883E+02  0.00000000000E+00 0.  1.
          6    2    1    2  501    0  0.50468451511E+01  0.80435945386E+02  0.28327414973E+03  0.33928400292E+03  0.16844577399E+03 0.  0.
         24    2    3    3    0    0  0.64544305037E+02  0.76549874807E+02  0.18473077951E+03  0.22401069685E+03  0.77649731227E+02 0.  0.
         -6    2    1    2    0  502 -0.50468451511E+01 -0.80435945386E+02  0.91376109503E+02  0.20693032408E+03  0.16725774625E+03 0.  0.
        -24    2    5    5    0    0  0.36228454991E+02 -0.18579729629E+02 -0.34318513190E+01  0.86346406144E+02  0.76067187054E+02 0.  0.
          5    1    3    3  501    0 -0.59497459885E+02  0.38860705784E+01  0.98543370223E+02  0.11527330607E+03  0.47000000000E+01 0. -1.
        -11    1    4    4    0    0  0.47188912702E+02  0.30123185755E+02  0.34372522955E+02  0.65693760254E+02  0.00000000000E+00 0.  1.
         12    1    4    4    0    0  0.17355392335E+02  0.46426689052E+02  0.15035825655E+03  0.15831693660E+03  0.00000000000E+00 0. -1.
         -5    1    5    5    0  502 -0.41275300142E+02 -0.61856215757E+02  0.94807960822E+02  0.12058391794E+03  0.47000000000E+01 0.  1.
         13    1    6    6    0    0  0.86105642018E+01 -0.12841259073E+02  0.35238607783E+02  0.38481154205E+02  0.00000000000E+00 0. -1.
        -14    1    6    6    0    0  0.27617890789E+02 -0.57384705563E+01 -0.38670459102E+02  0.47865251939E+02  0.00000000000E+00 0.  1.
</event>
<event>
12    1  0.8691829E-002  0.1811746E+03  0.7818608E-02  0.1166826E+00
         21   -1    0    0  503  502  0.00000000000E+00  0.00000000000E+00  0.13024660429E+03  0.13024660429E+03  0.00000000000E+00 0. -1.
         21   -1    0    0  501  503 -0.00000000000E+00 -0.00000000000E+00 -0.37299979846E+03  0.37299979846E+03  0.00000000000E+00 0. -1.
          6    2    1    2  501    0 -0.26205802588E+02  0.51360156463E+02 -0.26535749984E+03  0.32130803006E+03  0.17175458566E+03 0.  0.
         24    2    3    3    0    0  0.49320038661E+02  0.45005171116E+02 -0.13193876251E+03  0.16779194619E+03  0.79299233990E+02 0.  0.
         -6    2    1    2    0  502  0.26205802588E+02 -0.51360156463E+02  0.22604305671E+02  0.18193837269E+03  0.17107310444E+03 0.  0.
        -24    2    5    5    0    0  0.45244378317E+02 -0.89477216517E+02  0.43295947937E+02  0.13433993057E+03  0.78226924981E+02 0.  0.
          5    1    3    3  501    0 -0.75525841249E+02  0.63549853466E+01 -0.13341873733E+03  0.15351608387E+03  0.47000000000E+01 0. -1.
        -13    1    4    4    0    0  0.44414421404E+02 -0.11926625859E+02 -0.67360262605E+02  0.81561573129E+02  0.00000000000E+00 0.  1.
         14    1    4    4    0    0  0.49056172572E+01  0.56931796976E+02 -0.64578499908E+02  0.86230373059E+02  0.00000000000E+00 0. -1.
         -5    1    5    5    0  502 -0.19038575730E+02  0.38117060054E+02 -0.20691642266E+02  0.47598442124E+02  0.47000000000E+01 0.  1.
         13    1    6    6    0    0 -0.19051330044E+02 -0.43196052880E+01  0.12831477063E+02  0.23372183678E+02  0.00000000000E+00 0. -1.
        -14    1    6    6    0    0  0.64295708361E+02 -0.85157611229E+02  0.30464470874E+02  0.11096774689E+03  0.00000000000E+00 0.  1.
</event>
<event>
12    1  0.8691829E-002  0.1735186E+03  0.7818608E-02  0.1174596E+00
         21   -1    0    0  501  502  0.00000000000E+00  0.00000000000E+00  0.19594022402E+03  0.19594022402E+03  0.00000000000E+00 0. -1.
         21   -1    0    0  502  503 -0.00000000000E+00 -0.00000000000E+00 -0.15988141649E+03  0.15988141649E+03  0.00000000000E+00 0. -1.
         -6    2    1    2    0  503  0.15539554110E+02  0.11221979087E+02  0.56476478370E+02  0.18110594207E+03  0.17100397390E+03 0.  0.
        -24    2    3    3    0    0  0.39503549308E+02 -0.33439006011E+02  0.80676865866E+02  0.12474438238E+03  0.79835497864E+02 0.  0.
          6    2    1    2  501    0 -0.15539554110E+02 -0.11221979087E+02 -0.20417670838E+02  0.17471569844E+03  0.17245661322E+03 0.  0.
         24    2    5    5    0    0 -0.62192725105E+02 -0.27099555937E+02  0.24826721938E+02  0.10765035054E+03  0.79811721333E+02 0.  0.
          5    1    5    5  501    0  0.46653170996E+02  0.15877576850E+02 -0.45244392776E+02  0.67065347895E+02  0.47000000000E+01 0. -1.
        -11    1    6    6    0    0 -0.20301008341E+02  0.23008947835E+02  0.28978762313E+02  0.42205583579E+02  0.00000000000E+00 0.  1.
         12    1    6    6    0    0 -0.41891716765E+02 -0.50108503772E+02 -0.41520403746E+01  0.65444766965E+02  0.00000000000E+00 0. -1.
         -5    1    3    3    0  503 -0.23963995198E+02  0.44660985098E+02 -0.24200387496E+02  0.56361559691E+02  0.47000000000E+01 0.  1.
         11    1    4    4    0    0 -0.34274993707E+01 -0.45768813519E+02  0.59953307681E+02  0.75504510758E+02  0.00000000000E+00 0. -1.
        -12    1    4    4    0    0  0.42931048678E+02  0.12329807508E+02  0.20723558185E+02  0.49239871625E+02  0.00000000000E+00 0.  1.
</event>
<event>
12    1  0.8691829E-002  0.1809772E+03  0.7818608E-02  0.1166888E+00
         21   -1    0    0  501  502  0.00000000000E+00  0.00000000000E+00  0.24419246111E+03  0.24419246111E+03  0.00000000000E+00 0.  1.
         21   -1    0    0  502  503 -0.00000000000E+00 -0.00000000000E+00 -0.14736154474E+03  0.14736154474E+03  0.00000000000E+00 0.  1.
         -6    2    1    2    0  503 -0.54481051164E+02  0.12855384994E+02  0.10725768737E+03  0.21027670054E+03  0.17198439880E+03 0.  0.
        -24    2    3    3    0    0  0.31497054551E+02 -0.70999895270E+01  0.82512174205E+02  0.11848954427E+03  0.78670444970E+02 0.  0.
          6    2    1    2  501    0  0.54481051164E+02 -0.12855384994E+02 -0.10426771006E+02  0.18127730531E+03  0.17210257990E+03 0.  0.
         24    2    5    5    0    0  0.51166750321E+01  0.39138966346E+02 -0.47315738434E+02  0.10051134639E+03  0.79408517173E+02 0.  0.
          5    1    5    5  501    0  0.49364376132E+02 -0.51994351340E+02  0.36888967428E+02  0.80765958918E+02  0.47000000000E+01 0. -1.
        -11    1    6    6    0    0  0.14196258302E+02  0.62243991444E+02 -0.34757655072E+02  0.72690733981E+02  0.00000000000E+00 0.  1.
         12    1    6    6    0    0 -0.90795832702E+01 -0.23105025097E+02 -0.12558083362E+02  0.27820612410E+02  0.00000000000E+00 0. -1.
         -5    1    3    3    0  503 -0.85978105714E+02  0.19955374521E+02  0.24745513168E+02  0.91787156271E+02  0.47000000000E+01 0.  1.
         11    1    4    4    0    0  0.15421182632E+02  0.35893018242E+02  0.35505921551E+02  0.52790075748E+02  0.00000000000E+00 0. -1.
        -12    1    4    4    0    0  0.16075871919E+02 -0.42993007769E+02  0.47006252655E+02  0.65699468519E+02  0.00000000000E+00 0.  1.
</event>
<event>
12    1  0.8691829E-002  0.1888399E+03  0.7818608E-02  0.1159728E+00
         21   -1    0    0  503  502  0.00000000000E+00  0.00000000000E+00  0.79021208970E+02  0.79021208970E+02  0.00000000000E+00 0.  1.
         21   -1    0    0  501  503 -0.00000000000E+00 -0.00000000000E+00 -0.44965729462E+03  0.44965729462E+03  0.00000000000E+00 0. -1.
          6    2    1    2  501    0 -0.63702203458E+02  0.50531638449E+02 -0.17581125931E+03  0.25801185995E+03  0.17043797630E+03 0.  0.
         24    2    3    3    0    0 -0.14533176317E+02  0.94119464847E+02 -0.10971090273E+03  0.16469069954E+03  0.77568405047E+02 0.  0.
         -6    2    1    2    0  502  0.63702203458E+02 -0.50531638449E+02 -0.19482482633E+03  0.27066664363E+03  0.16938802145E+03 0.  0.
        -24    2    5    5    0    0  0.10849419777E+03 -0.27976422817E+02 -0.15522983226E+03  0.20659704037E+03  0.77668301664E+02 0.  0.
          5    1    3    3  501    0 -0.49169027141E+02 -0.43587826398E+02 -0.66100356582E+02  0.93321160411E+02  0.47000000000E+01 0. -1.
        -11    1    4    4    0    0 -0.28893451703E+02  0.72941388178E+02 -0.35352195917E+02  0.86052631667E+02  0.00000000000E+00 0.  1.
         12    1    4    4    0    0  0.14360275387E+02  0.21178076668E+02 -0.74358706811E+02  0.78638067876E+02  0.00000000000E+00 0. -1.
         -5    1    5    5    0  502 -0.44791994309E+02 -0.22555215632E+02 -0.39594994074E+02  0.64069603262E+02  0.47000000000E+01 0.  1.
         13    1    6    6    0    0  0.32113494164E+02 -0.32857016457E+02 -0.10617539355E+03  0.11568955974E+03  0.00000000000E+00 0. -1.
        -14    1    6    6    0    0  0.76380703604E+02  0.48805936403E+01 -0.49054438716E+02  0.90907480633E+02  0.00000000000E+00 0.  1.
</event>
<event>
12    1  0.8691829E-002  0.2973691E+03  0.7818608E-02  0.1086762E+00
         21   -1    0    0  501  502  0.00000000000E+00  0.00000000000E+00  0.18447522567E+04  0.18447522567E+04  0.00000000000E+00 0.  1.
         21   -1    0    0  502  503 -0.00000000000E+00 -0.00000000000E+00 -0.22788243464E+03  0.22788243464E+03  0.00000000000E+00 0.  1.
         -6    2    1    2    0  503  0.21811912173E+03  0.10685076024E+03 -0.11265746227E+03  0.31799386512E+03  0.17156735768E+03 0.  0.
        -24    2    3    3    0    0  0.21287307583E+03  0.47617639239E+02 -0.11237286015E+03  0.25834275767E+03  0.80814199032E+02 0.  0.
          6    2    1    2  501    0 -0.21811912173E+03 -0.10685076024E+03  0.17295272844E+04  0.17546408262E+04  0.16883946682E+03 0.  0.
         24    2    5    5    0    0 -0.22236462992E+03 -0.13093658035E+03  0.15443968254E+04  0.15678427323E+04  0.79867779336E+02 0.  0.
          5    1    5    5  501    0  0.42455081966E+01  0.24085820113E+02  0.18513045894E+03  0.18679809394E+03  0.47000000000E+01 0. -1.
        -13    1    6    6    0    0 -0.12896504355E+03 -0.72619131952E+02  0.64682289639E+03  0.66354003653E+03  0.00000000000E+00 0.  1.
         14    1    6    6    0    0 -0.93399586375E+02 -0.58317448402E+02  0.89757392903E+03  0.90430269578E+03  0.00000000000E+00 0. -1.
         -5    1    3    3    0  503  0.52460458993E+01  0.59233121002E+02 -0.28460212481E+00  0.59651107446E+02  0.47000000000E+01 0.  1.
         13    1    4    4    0    0  0.12857038492E+02 -0.16999174915E+02 -0.18155227073E+02  0.27997993797E+02  0.00000000000E+00 0. -1.
        -14    1    4    4    0    0  0.20001603734E+03  0.64616814154E+02 -0.94217633074E+02  0.23034476388E+03  0.00000000000E+00 0.  1.
</event>
<event>
12    1  0.8691829E-002  0.1848028E+03  0.7818608E-02  0.1163936E+00
         21   -1    0    0  501  502  0.00000000000E+00  0.00000000000E+00  0.43119748153E+03  0.43119748153E+03  0.00000000000E+00 0. -1.
         21   -1    0    0  502  503 -0.00000000000E+00 -0.00000000000E+00 -0.81338290712E+02  0.81338290712E+02  0.00000000000E+00 0.  1.
         -6    2    1    2    0  503 -0.53123283191E+02  0.24735033139E+02  0.12113384384E+03  0.21848245929E+03  0.17212574419E+03 0.  0.
        -24    2    3    3    0    0 -0.20600225543E+02  0.49263898490E+02  0.15079002692E+03  0.16787619773E+03  0.50926265931E+02 0.  0.
          6    2    1    2  501    0  0.53123283191E+02 -0.24735033139E+02  0.22872534697E+03  0.29405331295E+03  0.17526597339E+03 0.  0.
         24    2    5    5    0    0 -0.17190619682E+02  0.14429985347E+02  0.49651604492E+02  0.97667369317E+02  0.81054866100E+02 0.  0.
          5    1    5    5  501    0  0.70313902874E+02 -0.39165018486E+02  0.17907374248E+03  0.19638594363E+03  0.47000000000E+01 0. -1.
        -11    1    6    6    0    0  0.32523183605E+02  0.27834718472E+01  0.14756379823E+02  0.35822561784E+02  0.00000000000E+00 0.  1.
         12    1    6    6    0    0 -0.49713803287E+02  0.11646513500E+02  0.34895224670E+02  0.61844807532E+02  0.00000000000E+00 0. -1.
         -5    1    3    3    0  503 -0.32523057648E+02 -0.24528865350E+02 -0.29656183074E+02  0.50606261556E+02  0.47000000000E+01 0.  1.
         13    1    4    4    0    0  0.11647238847E+02 -0.15221451221E+01  0.41411496046E+02  0.43045175146E+02  0.00000000000E+00 0. -1.
        -14    1    4    4    0    0 -0.32247464390E+02  0.50786043612E+02  0.10937853087E+03  0.12483102259E+03  0.00000000000E+00 0.  1.
</event>
<event>
12    1  0.8691829E-002  0.2011679E+03  0.7818608E-02  0.1148960E+00
         21   -1    0    0  503  502  0.00000000000E+00  0.00000000000E+00  0.69157543259E+03  0.69157543259E+03  0.00000000000E+00 0.  1.
         21   -1    0    0  501  503 -0.00000000000E+00 -0.00000000000E+00 -0.58942319213E+02  0.58942319213E+02  0.00000000000E+00 0. -1.
          6    2    1    2  501    0  0.85885033157E+02 -0.59316837540E+02  0.35815030891E+03  0.41077995973E+03  0.17197036202E+03 0.  0.
         24    2    3    3    0    0  0.16137065024E+02  0.25379596766E+02  0.21733536223E+03  0.23220447360E+03  0.76024529470E+02 0.  0.
         -6    2    1    2    0  502 -0.85885033157E+02  0.59316837540E+02  0.27448280447E+03  0.33973779207E+03  0.17083978247E+03 0.  0.
        -24    2    5    5    0    0 -0.62282641865E+01  0.75791837293E+02  0.20452477784E+03  0.23234672191E+03  0.79821178625E+02 0.  0.
          5    1    3    3  501    0  0.69747968133E+02 -0.84696434306E+02  0.14081494667E+03  0.17857548614E+03  0.47000000000E+01 0. -1.
        -13    1    4    4    0    0  0.42954776630E+02  0.23403388509E+02  0.93938417935E+02  0.10591155647E+03  0.00000000000E+00 0.  1.
         14    1    4    4    0    0 -0.26817711606E+02  0.19762082573E+01  0.12339694430E+03  0.12629291713E+03  0.00000000000E+00 0. -1.
         -5    1    5    5    0  502 -0.79656768971E+02 -0.16474999754E+02  0.69958026629E+02  0.10739107016E+03  0.47000000000E+01 0.  1.
         13    1    6    6    0    0 -0.63318920240E+01  0.91963462242E+02  0.15602002018E+03  0.18121704650E+03  0.00000000000E+00 0. -1.
        -14    1    6    6    0    0  0.10362783746E+00 -0.16171624949E+02  0.48504757660E+02  0.51129675414E+02  0.00000000000E+00 0.  1.
</event>
<event>
12    1  0.8691829E-002  0.1785807E+03  0.7818608E-02  0.1169821E+00
         21   -1    0    0  503  502  0.00000000000E+00  0.00000000000E+00  0.73704050020E+03  0.73704050020E+03  0.00000000000E+00 0. -1.
         21   -1    0    0  501  503 -0.00000000000E+00 -0.00000000000E+00 -0.70188794100E+02  0.70188794100E+02  0.00000000000E+00 0. -1.
          6    2    1    2  501    0  0.15828329403E+02 -0.40820499139E+02  0.82065705058E+02  0.19653459842E+03  0.17313064219E+03 0.  0.
         24    2    3    3    0    0  0.81419360210E+02 -0.28318210889E+02  0.66248173829E+02  0.12775397013E+03  0.67091154877E+02 0.  0.
         -6    2    1    2    0  502 -0.15828329403E+02  0.40820499139E+02  0.58478600104E+03  0.61069469588E+03  0.17045965917E+03 0.  0.
        -24    2    5    5    0    0 -0.45317847199E+01  0.80852893483E+02  0.26318828435E+03  0.28638406408E+03  0.78676754399E+02 0.  0.
          5    1    3    3  501    0 -0.65591030807E+02 -0.12502288250E+02  0.15817531229E+02  0.68780628290E+02  0.47000000000E+01 0. -1.
        -11    1    4    4    0    0  0.28486676808E+02 -0.10649634766E+02  0.65195978401E+02  0.71940399470E+02  0.00000000000E+00 0.  1.
         12    1    4    4    0    0  0.52932683402E+02 -0.17668576124E+02  0.10521954278E+01  0.55813570658E+02  0.00000000000E+00 0. -1.
         -5    1    5    5    0  502 -0.11296544683E+02 -0.40032394344E+02  0.32159771669E+03  0.32431063180E+03  0.47000000000E+01 0.  1.
         11    1    6    6    0    0 -0.23251326785E+02  0.59061730205E+02  0.24330098743E+03  0.25144439278E+03  0.00000000000E+00 0. -1.
        -12    1    6    6    0    0  0.18719542065E+02  0.21791163278E+02  0.19887296913E+02  0.34939671301E+02  0.00000000000E+00 0.  1.
</event>
<event>
12    1  0.8691829E-002  0.2362392E+03  0.7818608E-02  0.1122647E+00
         21   -1    0    0  501  502  0.00000000000E+00  0.00000000000E+00  0.61310972880E+02  0.61310972880E+02  0.00000000000E+00 0.  1.
         21   -1    0    0  502  503 -0.00000000000E+00 -0.00000000000E+00 -0.90806091190E+03  0.90806091190E+03  0.00000000000E+00 0. -1.
         -6    2    1    2    0  503 -0.13064687839E+03  0.94546410661E+02 -0.38880296834E+03  0.45494694052E+03  0.17263064588E+03 0.  0.
        -24    2    3    3    0    0 -0.31697592403E+02  0.93932920542E+02 -0.15013306481E+03  0.19653496244E+03  0.79107037517E+02 0.  0.
          6    2    1    2  501    0  0.13064687839E+03 -0.94546410661E+02 -0.45794697068E+03  0.51442494426E+03  0.17002930547E+03 0.  0.
         24    2    5    5    0    0  0.78799056187E+02 -0.35414757778E+02 -0.39840438238E+03  0.41567192475E+03  0.81200990174E+02 0.  0.
          5    1    5    5  501    0  0.51847822202E+02 -0.59131652883E+02 -0.59542588300E+02  0.98753019504E+02  0.47000000000E+01 0. -1.
        -11    1    6    6    0    0  0.19658046737E+02  0.47287021889E+01 -0.13794120790E+02  0.24476053487E+02  0.00000000000E+00 0.  1.
         12    1    6    6    0    0  0.59141009449E+02 -0.40143459967E+02 -0.38461026159E+03  0.39119587126E+03  0.00000000000E+00 0. -1.
         -5    1    3    3    0  503 -0.98949285985E+02  0.61349011874E+00 -0.23866990353E+03  0.25841197808E+03  0.47000000000E+01 0.  1.
         11    1    4    4    0    0 -0.41293348685E+01  0.74190464159E+02 -0.14404989494E+03  0.16208531276E+03  0.00000000000E+00 0. -1.
        -12    1    4    4    0    0 -0.27568257535E+02  0.19742456383E+02 -0.60831698712E+01  0.34449649682E+02  0.00000000000E+00 0.  1.
</event>
<event>
12    1  0.8691829E-002  0.1801585E+03  0.7818608E-02  0.1168111E+00
         21   -1    0    0  503  502  0.00000000000E+00  0.00000000000E+00  0.16002347356E+03  0.16002347356E+03  0.00000000000E+00 0. -1.
         21   -1    0    0  501  503 -0.00000000000E+00 -0.00000000000E+00 -0.34333620022E+03  0.34333620022E+03  0.00000000000E+00 0. -1.
          6    2    1    2  501    0 -0.64178866671E+01 -0.48233437368E+02 -0.25416004504E+03  0.31153557415E+03  0.17346305576E+03 0.  0.
         24    2    3    3    0    0  0.88604748168E+01  0.16592349814E+02 -0.48954103328E+02  0.95740811635E+02  0.80099842031E+02 0.  0.
         -6    2    1    2    0  502  0.64178866671E+01  0.48233437368E+02  0.70847318387E+02  0.19182409963E+03  0.17149195004E+03 0.  0.
        -24    2    5    5    0    0  0.19046472698E+02 -0.29844539818E+02  0.31558716490E+01  0.87613382006E+02  0.80079213916E+02 0.  0.
          5    1    3    3  501    0 -0.15278361484E+02 -0.64825787182E+02 -0.20520594172E+03  0.21579476252E+03  0.47000000000E+01 0. -1.
        -13    1    4    4    0    0 -0.23882009011E+02 -0.17533552745E+02 -0.29674505619E+01  0.29775519963E+02  0.00000000000E+00 0.  1.
         14    1    4    4    0    0  0.32742483828E+02  0.34125902559E+02 -0.45986652766E+02  0.65965291671E+02  0.00000000000E+00 0. -1.
         -5    1    5    5    0  502 -0.12628586031E+02  0.78077977185E+02  0.67691446738E+02  0.10421071763E+03  0.47000000000E+01 0.  1.
         11    1    6    6    0    0  0.16843899389E+02  0.15502860732E+02  0.27754126043E+02  0.35977036424E+02  0.00000000000E+00 0. -1.
        -12    1    6    6    0    0  0.22025733092E+01 -0.45347400550E+02 -0.24598254394E+02  0.51636345581E+02  0.00000000000E+00 0.  1.
</event>
<event>
12    1  0.8691829E-002  0.2116482E+03  0.7818608E-02  0.1144176E+00
         21   -1    0    0  503  502  0.00000000000E+00  0.00000000000E+00  0.19991881355E+03  0.19991881355E+03  0.00000000000E+00 0. -1.
         21   -1    0    0  501  503 -0.00000000000E+00 -0.00000000000E+00 -0.36553394466E+03  0.36553394466E+03  0.00000000000E+00 0. -1.
          6    2    1    2  501    0 -0.72111420411E+02 -0.51719842071E+02 -0.27256029655E+03  0.34508563477E+03  0.19214572868E+03 0.  0.
         24    2    3    3    0    0 -0.13251227401E+02 -0.34610004664E+02 -0.30839746502E+02  0.95669951276E+02  0.82632936305E+02 0.  0.
         -6    2    1    2    0  502  0.72111420411E+02  0.51719842071E+02  0.10694516544E+03  0.22036712344E+03  0.17102456451E+03 0.  0.
        -24    2    5    5    0    0  0.31448302133E+02 -0.29121957113E+02  0.18397144391E+02  0.93671710286E+02  0.81233307780E+02 0.  0.
          5    1    3    3  501    0 -0.58860193011E+02 -0.17109837407E+02 -0.24172055005E+03  0.24941568350E+03  0.47000000000E+01 0. -1.
        -11    1    4    4    0    0 -0.39272820650E+02  0.85080119957E+01 -0.14623351865E+02  0.42761935523E+02  0.00000000000E+00 0.  1.
         12    1    4    4    0    0  0.26021593249E+02 -0.43118016659E+02 -0.16216394638E+02  0.52908015753E+02  0.00000000000E+00 0. -1.
         -5    1    5    5    0  502  0.40663118278E+02  0.80841799184E+02  0.88548021050E+02  0.12669541316E+03  0.47000000000E+01 0.  1.
         11    1    6    6    0    0  0.37434096613E+02 -0.35530752399E+02  0.43237257734E+02  0.67329090381E+02  0.00000000000E+00 0. -1.
        -12    1    6    6    0    0 -0.59857944793E+01  0.64087952860E+01 -0.24840113342E+02  0.26342619904E+02  0.00000000000E+00 0.  1.
</event>
<event>
12    1  0.8691829E-002  0.1882818E+03  0.7818608E-02  0.1160399E+00
         21   -1    0    0  503  502  0.00000000000E+00  0.00000000000E+00  0.66302758348E+02  0.66302758348E+02  0.00000000000E+00 0. -1.
         21   -1    0    0  501  503 -0.00000000000E+00 -0.00000000000E+00 -0.93116994526E+03  0.93116994526E+03  0.00000000000E+00 0. -1.
          6    2    1    2  501    0  0.40298424324E+02 -0.69165965048E+02 -0.75870832126E+03  0.78132521013E+03  0.16859084647E+03 0.  0.
         24    2    3    3    0    0  0.28913701877E+02  0.27052786776E+02 -0.35976635270E+03  0.37075920522E+03  0.80390946594E+02 0.  0.
         -6    2    1    2    0  502 -0.40298424324E+02  0.69165965048E+02 -0.10615886566E+03  0.21614749348E+03  0.17041754739E+03 0.  0.
        -24    2    5    5    0    0 -0.13470419280E+02 -0.29177966547E+02 -0.41534002832E+02  0.95359523753E+02  0.79596227622E+02 0.  0.
          5    1    3    3  501    0  0.11384722446E+02 -0.96218751824E+02 -0.39894196856E+03  0.41056600491E+03  0.47000000000E+01 0. -1.
        -13    1    4    4    0    0 -0.30557797018E+01  0.49485228972E+02 -0.22792114615E+03  0.23325131197E+03  0.00000000000E+00 0.  1.
         14    1    4    4    0    0  0.31969481579E+02 -0.22432442196E+02 -0.13184520656E+03  0.13750789325E+03  0.00000000000E+00 0. -1.
         -5    1    5    5    0  502 -0.26828005044E+02  0.98343931594E+02 -0.64624862826E+02  0.12078796973E+03  0.47000000000E+01 0.  1.
         13    1    6    6    0    0  0.24764736238E+02 -0.18344959220E+02  0.80133055383E+01  0.31844037988E+02  0.00000000000E+00 0. -1.
        -14    1    6    6    0    0 -0.38235155518E+02 -0.10833007327E+02 -0.49547308370E+02  0.63515485765E+02  0.00000000000E+00 0.  1.
</event>
<event>
12    1  0.8691829E-002  0.2172299E+03  0.7818608E-02  0.1136097E+00
         21   -1    0    0  501  502  0.00000000000E+00  0.00000000000E+00  0.38774057782E+03  0.38774057782E+03  0.00000000000E+00 0. -1.
         21   -1    0    0  502  503 -0.00000000000E+00 -0.00000000000E+00 -0.27691587439E+03  0.27691587439E+03  0.00000000000E+00 0.  1.
         -6    2    1    2    0  503  0.25231494320E+02 -0.12988704845E+03 -0.19374223263E+03  0.29055773125E+03  0.17140731847E+03 0.  0.
        -24    2    3    3    0    0  0.72310835090E+02 -0.73186352615E+02 -0.16545004266E+03  0.21147567735E+03  0.82238351237E+02 0.  0.
          6    2    1    2  501    0 -0.25231494320E+02  0.12988704845E+03  0.30456693606E+03  0.37409872096E+03  0.17228337360E+03 0.  0.
         24    2    5    5    0    0 -0.36456243399E+02  0.13663203482E+03  0.15930014479E+03  0.22816716002E+03  0.81770081064E+02 0.  0.
          5    1    5    5  501    0  0.11224749080E+02 -0.67449863672E+01  0.14526679127E+03  0.14593156094E+03  0.47000000000E+01 0. -1.
        -11    1    6    6    0    0  0.22346520677E+02  0.71124991729E+02  0.84140986206E+02  0.11241813463E+03  0.00000000000E+00 0.  1.
         12    1    6    6    0    0 -0.58802764077E+02  0.65507043091E+02  0.75159158586E+02  0.11574902538E+03  0.00000000000E+00 0. -1.
         -5    1    3    3    0  503 -0.47079340770E+02 -0.56700695837E+02 -0.28292189962E+02  0.79082053897E+02  0.47000000000E+01 0.  1.
         11    1    4    4    0    0  0.70698056065E+02 -0.27405703308E+02 -0.60633485201E+02  0.97086081561E+02  0.00000000000E+00 0. -1.
        -12    1    4    4    0    0  0.16127790242E+01 -0.45780649307E+02 -0.10481655746E+03  0.11438959579E+03  0.00000000000E+00 0.  1.
</event>
<event>
12    1  0.8691829E-002  0.2343512E+03  0.7818608E-02  0.1124071E+00
         21   -1    0    0  501  502  0.00000000000E+00  0.00000000000E+00  0.92122626586E+02  0.92122626586E+02  0.00000000000E+00 0.  1.
         21   -1    0    0  502  503 -0.00000000000E+00 -0.00000000000E+00 -0.59862001157E+03  0.59862001157E+03  0.00000000000E+00 0.  1.
         -6    2    1    2    0  503 -0.14837734609E+03  0.42464603053E+02 -0.29738447709E+03  0.37862647748E+03  0.17635589837E+03 0.  0.
        -24    2    3    3    0    0 -0.85014868069E+02  0.96576673067E+02 -0.19487215095E+03  0.24643802581E+03  0.78752547764E+02 0.  0.
          6    2    1    2  501    0  0.14837734609E+03 -0.42464603053E+02 -0.20911290790E+03  0.31211616068E+03  0.17282711062E+03 0.  0.
         24    2    5    5    0    0  0.11608419765E+03  0.23691730274E+02 -0.18636739897E+03  0.23492188595E+03  0.80116453181E+02 0.  0.
          5    1    5    5  501    0  0.32293148439E+02 -0.66156333327E+02 -0.22745508925E+02  0.77194274733E+02  0.47000000000E+01 0. -1.
        -13    1    6    6    0    0  0.66165723245E+02  0.39559839687E+02 -0.15691607521E+03  0.17483002747E+03  0.00000000000E+00 0.  1.
         14    1    6    6    0    0  0.49918474405E+02 -0.15868109414E+02 -0.29451323768E+02  0.60091858475E+02  0.00000000000E+00 0. -1.
         -5    1    3    3    0  503 -0.63362478021E+02 -0.54112070013E+02 -0.10251232614E+03  0.13218845166E+03  0.47000000000E+01 0.  1.
         13    1    4    4    0    0 -0.48403300730E+01 -0.46388272467E+01  0.50846746946E+01  0.84143585727E+01  0.00000000000E+00 0. -1.
        -14    1    4    4    0    0 -0.80174537996E+02  0.10121550031E+03 -0.19995682564E+03  0.23802366724E+03  0.00000000000E+00 0.  1.
</event>
<event>
12    1  0.8691829E-002  0.2035088E+03  0.7818608E-02  0.1147108E+00
         21   -1    0    0  503  502  0.00000000000E+00  0.00000000000E+00  0.20356930167E+03  0.20356930167E+03  0.00000000000E+00 0.  1.
         21   -1    0    0  501  503 -0.00000000000E+00 -0.00000000000E+00 -0.20561342502E+03  0.20561342502E+03  0.00000000000E+00 0.  1.
          6    2    1    2  501    0  0.89211007619E+02  0.54372736254E+02  0.26026038886E+02  0.20516622454E+03  0.17464485868E+03 0.  0.
         24    2    3    3    0    0  0.18051231529E+02 -0.35606691582E+02  0.13051116224E+02  0.89622078063E+02  0.79171344542E+02 0.  0.
         -6    2    1    2    0  502 -0.89211007619E+02 -0.54372736254E+02 -0.28070162234E+02  0.20401650216E+03  0.17297341072E+03 0.  0.
        -24    2    5    5    0    0  0.11767145435E+02  0.10951423449E+02 -0.42678587351E+01  0.81327982372E+02  0.79609212477E+02 0.  0.
          5    1    3    3  501    0  0.71159776090E+02  0.89979427836E+02  0.12974922662E+02  0.11554414648E+03  0.47000000000E+01 0. -1.
        -11    1    4    4    0    0  0.42473639420E+02  0.32908211753E+01  0.37944763280E+01  0.42769587328E+02  0.00000000000E+00 0.  1.
         12    1    4    4    0    0 -0.24422407891E+02 -0.38897512757E+02  0.92566398960E+01  0.46852490735E+02  0.00000000000E+00 0. -1.
         -5    1    5    5    0  502 -0.10097815305E+03 -0.65324159702E+02 -0.23802303499E+02  0.12268851978E+03  0.47000000000E+01 0.  1.
         11    1    6    6    0    0 -0.27189003361E+02  0.35841851650E+01 -0.24538512030E+02  0.36799821463E+02  0.00000000000E+00 0. -1.
        -12    1    6    6    0    0  0.38956148795E+02  0.73672382837E+01  0.20270653295E+02  0.44528160909E+02  0.00000000000E+00 0.  1.
</event>
<event>
12    1  0.8691829E-002  0.1753621E+03  0.7818608E-02  0.1172371E+00
         21   -1    0    0  501  502  0.00000000000E+00  0.00000000000E+00  0.10100992127E+04  0.10100992127E+04  0.00000000000E+00 0. -1.
         21   -1    0    0  502  503 -0.00000000000E+00 -0.00000000000E+00 -0.47626615361E+02  0.47626615361E+02  0.00000000000E+00 0. -1.
         -6    2    1    2    0  503 -0.27830108669E+02 -0.14874239573E+02  0.16355638496E+03  0.23979003166E+03  0.17249002949E+03 0.  0.
        -24    2    3    3    0    0  0.20942511999E+02  0.22231083798E+02  0.15650771535E+03  0.17792447345E+03  0.78928090022E+02 0.  0.
          6    2    1    2  501    0  0.27830108669E+02  0.14874239573E+02  0.79891621241E+03  0.81793579643E+03  0.17249954979E+03 0.  0.
         24    2    5    5    0    0 -0.50996135554E+02  0.16181781827E+02  0.43630839613E+03  0.44682691096E+03  0.80167424317E+02 0.  0.
          5    1    5    5  501    0  0.78826244223E+02 -0.13075422546E+01  0.36260781628E+03  0.37110888547E+03  0.47000000000E+01 0. -1.
        -13    1    6    6    0    0  0.14824401752E+02  0.25752342458E+02  0.12333639056E+03  0.12686532728E+03  0.00000000000E+00 0.  1.
         14    1    6    6    0    0 -0.65820537306E+02 -0.95705606302E+01  0.31297200557E+03  0.31996158368E+03  0.00000000000E+00 0. -1.
         -5    1    3    3    0  503 -0.48772620668E+02 -0.37105323370E+02  0.70486696110E+01  0.61865558209E+02  0.47000000000E+01 0.  1.
         11    1    4    4    0    0  0.12885973869E+02  0.48031897634E+02  0.13338532876E+03  0.14235433762E+03  0.00000000000E+00 0. -1.
        -12    1    4    4    0    0  0.80565381302E+01 -0.25800813836E+02  0.23122386594E+02  0.35570135831E+02  0.00000000000E+00 0.  1.
</event>
<event>
12    1  0.8691829E-002  0.2503511E+03  0.7818608E-02  0.1113253E+00
         21   -1    0    0  503  502  0.00000000000E+00  0.00000000000E+00  0.15593847777E+04  0.15593847777E+04  0.00000000000E+00 0. -1.
         21   -1    0    0  501  503 -0.00000000000E+00 -0.00000000000E+00 -0.40020447331E+02  0.40020447331E+02  0.00000000000E+00 0.  1.
          6    2    1    2  501    0 -0.11138747534E+03  0.13447938664E+03  0.76181546912E+03  0.80189678929E+03  0.17939837397E+03 0.  0.
         24    2    3    3    0    0 -0.48075772361E+02  0.40690672205E+02  0.16133601749E+03  0.19083021638E+03  0.80123968028E+02 0.  0.
         -6    2    1    2    0  502  0.11138747534E+03 -0.13447938664E+03  0.75754886125E+03  0.79750843574E+03  0.17789759079E+03 0.  0.
        -24    2    5    5    0    0  0.10129592172E+03 -0.10863843709E+03  0.75011583599E+03  0.76840630536E+03  0.75573202572E+02 0.  0.
          5    1    3    3  501    0 -0.63311702980E+02  0.93788714436E+02  0.60047945163E+03  0.61106657291E+03  0.47000000000E+01 0. -1.
        -11    1    4    4    0    0 -0.65915359223E+02  0.48093601715E+02  0.11889313020E+03  0.14419918695E+03  0.00000000000E+00 0.  1.
         12    1    4    4    0    0  0.17839586863E+02 -0.74029295091E+01  0.42442887287E+02  0.46631029434E+02  0.00000000000E+00 0. -1.
         -5    1    5    5    0  502  0.10091553624E+02 -0.25840949551E+02  0.74330252567E+01  0.29102130381E+02  0.47000000000E+01 0.  1.
         13    1    6    6    0    0  0.14148873536E+02 -0.69268616314E+02  0.29515418671E+03  0.30350341968E+03  0.00000000000E+00 0. -1.
        -14    1    6    6    0    0  0.87147048180E+02 -0.39369820776E+02  0.45496164928E+03  0.46490288568E+03  0.00000000000E+00 0.  1.
</event>
<event>
12    1  0.8691829E-002  0.1737966E+03  0.7818608E-02  0.1175091E+00
         21   -1    0    0  503  502  0.00000000000E+00  0.00000000000E+00  0.34471833565E+02  0.34471833565E+02  0.00000000000E+00 0. -1.
         21   -1    0    0  501  503 -0.00000000000E+00 -0.00000000000E+00 -0.11498818816E+04  0.11498818816E+04  0.00000000000E+00 0. -1.
          6    2    1    2  501    0 -0.22714881084E+02  0.10423011168E+02 -0.85274776389E+03  0.86939859328E+03  0.16748301465E+03 0.  0.
         24    2    3    3    0    0 -0.40591039636E+02  0.32449073456E+02 -0.34018120742E+03  0.35602614634E+03  0.91273151205E+02 0.  0.
         -6    2    1    2    0  502  0.22714881084E+02 -0.10423011168E+02 -0.26266228414E+03  0.31495512188E+03  0.17199025642E+03 0.  0.
        -24    2    5    5    0    0 -0.22388088815E+02 -0.62185680706E+02 -0.14305312616E+03  0.17696203320E+03  0.80517568786E+02 0.  0.
          5    1    3    3  501    0  0.17876158552E+02 -0.22026062288E+02 -0.51256655647E+03  0.51337244693E+03  0.47000000000E+01 0. -1.
        -13    1    4    4    0    0 -0.57244412238E+02 -0.71417246544E+01 -0.24339092667E+03  0.25013410433E+03  0.00000000000E+00 0.  1.
         14    1    4    4    0    0  0.16653372602E+02  0.39590798110E+02 -0.96790280752E+02  0.10589204202E+03  0.00000000000E+00 0. -1.
         -5    1    5    5    0  502  0.45102969899E+02  0.51762669539E+02 -0.11960915798E+03  0.13799308868E+03  0.47000000000E+01 0.  1.
         11    1    6    6    0    0 -0.48224157547E+02 -0.20961141658E+02 -0.53306759561E+02  0.74876895272E+02  0.00000000000E+00 0. -1.
        -12    1    6    6    0    0  0.25836068731E+02 -0.41224539049E+02 -0.89746366602E+02  0.10208513793E+03  0.00000000000E+00 0.  1.
</event>
<event>
12    1  0.8691829E-002  0.2767422E+03  0.7818608E-02  0.1097769E+00
         21   -1    0    0  503  502  0.00000000000E+00  0.00000000000E+00  0.45520559728E+02  0.45520559728E+02  0.00000000000E+00 0.  1.
         21   -1    0    0  501  503 -0.00000000000E+00 -0.00000000000E+00 -0.25393469374E+04  0.25393469374E+04  0.00000000000E+00 0.  1.
          6    2    1    2  501    0  0.19803640732E+03  0.83451651181E+02 -0.20062279113E+04  0.20252250883E+04  0.17436636562E+03 0.  0.
         24    2    3    3    0    0  0.11270248891E+03  0.67079047682E+02 -0.16974065224E+04  0.17043782713E+04  0.80715175223E+02 0.  0.
         -6    2    1    2    0  502 -0.19803640732E+03 -0.83451651181E+02 -0.48759846636E+03  0.55964240883E+03  0.17106947316E+03 0.  0.
        -24    2    5    5    0    0 -0.37081817792E+02  0.65235690650E+01 -0.15315016696E+03  0.17770043009E+03  0.81883154855E+02 0.  0.
          5    1    3    3  501    0  0.85333918410E+02  0.16372603499E+02 -0.30882138889E+03  0.32084681705E+03  0.47000000000E+01 0. -1.
        -11    1    4    4    0    0  0.78779719711E+02  0.51400130207E+02 -0.70244546187E+03  0.70871563023E+03  0.00000000000E+00 0.  1.
         12    1    4    4    0    0  0.33922769202E+02  0.15678917475E+02 -0.99496106055E+03  0.99566264102E+03  0.00000000000E+00 0. -1.
         -5    1    5    5    0  502 -0.16095458953E+03 -0.89975220246E+02 -0.33444829940E+03  0.38194197874E+03  0.47000000000E+01 0.  1.
         11    1    6    6    0    0 -0.58579267727E+02  0.22642515002E+02 -0.11510744491E+03  0.13112565717E+03  0.00000000000E+00 0. -1.
        -12    1    6    6    0    0  0.21497449935E+02 -0.16118945937E+02 -0.38042722048E+02  0.46574772921E+02  0.00000000000E+00 0.  1.
</event>
<event>
12    1  0.8691829E-002  0.1843557E+03  0.7818608E-02  0.1164283E+00
         21   -1    0    0  501  502  0.00000000000E+00  0.00000000000E+00  0.32182624713E+03  0.32182624713E+03  0.00000000000E+00 0. -1.
         21   -1    0    0  502  503 -0.00000000000E+00 -0.00000000000E+00 -0.21880668231E+03  0.21880668231E+03  0.00000000000E+00 0. -1.
         -6    2    1    2    0  503  0.57436685172E+02  0.10376838390E+02 -0.14440035065E+03  0.23208208928E+03  0.17205808124E+03 0.  0.
        -24    2    3    3    0    0 -0.15094193415E+02  0.37342582251E+02 -0.29941100012E+02  0.93839947564E+02  0.79291633637E+02 0.  0.
          6    2    1    2  501    0 -0.57436685172E+02 -0.10376838390E+02  0.24741991548E+03  0.30855084015E+03  0.17487239578E+03 0.  0.
         24    2    5    5    0    0 -0.56467095015E+02  0.45151802658E+02  0.22276201558E+03  0.24760437094E+03  0.80360380930E+02 0.  0.
          5    1    5    5  501    0 -0.96959015662E+00 -0.55528641048E+02  0.24657899904E+02  0.60946469211E+02  0.47000000000E+01 0. -1.
        -11    1    6    6    0    0  0.16235730596E+02  0.19360918085E+02  0.25974754795E+02  0.36237163020E+02  0.00000000000E+00 0.  1.
         12    1    6    6    0    0 -0.72702825612E+02  0.25790884573E+02  0.19678726078E+03  0.21136720792E+03  0.00000000000E+00 0. -1.
         -5    1    3    3    0  503  0.72530878587E+02 -0.26965743861E+02 -0.11445925064E+03  0.13824214172E+03  0.47000000000E+01 0.  1.
         11    1    4    4    0    0  0.56471000821E+00  0.14018017787E+02 -0.54652737857E+02  0.56424688526E+02  0.00000000000E+00 0. -1.
        -12    1    4    4    0    0 -0.15658903423E+02  0.23324564464E+02  0.24711637845E+02  0.37415259037E+02  0.00000000000E+00 0.  1.
</event>
<event>
12    1  0.8691829E-002  0.2280312E+03  0.7818608E-02  0.1128096E+00
         21   -1    0    0  501  502  0.00000000000E+00  0.00000000000E+00  0.77305637257E+03  0.77305637257E+03  0.00000000000E+00 0.  1.
         21   -1    0    0  502  503 -0.00000000000E+00 -0.00000000000E+00 -0.77270992398E+02  0.77270992398E+02  0.00000000000E+00 0.  1.
         -6    2    1    2    0  503 -0.32220635833E+02  0.14473784753E+03  0.19432162662E+03  0.29959829024E+03  0.17323691022E+03 0.  0.
        -24    2    3    3    0    0 -0.23242416514E+02  0.10615095175E+02  0.11635210899E+03  0.14412849639E+03  0.81131498410E+02 0.  0.
          6    2    1    2  501    0  0.32220635833E+02 -0.14473784753E+03  0.50146375356E+03  0.55072907473E+03  0.17276979985E+03 0.  0.
         24    2    5    5    0    0  0.20013775503E+02 -0.78767554667E+02  0.13030715145E+03  0.17352833207E+03  0.80791394544E+02 0.  0.
          5    1    5    5  501    0  0.12206860330E+02 -0.65970292860E+02  0.37115660210E+03  0.37720074266E+03  0.47000000000E+01 0. -1.
        -11    1    6    6    0    0 -0.26802619598E+01 -0.69442101089E+02  0.13174582715E+03  0.14895083813E+03  0.00000000000E+00 0.  1.
         12    1    6    6    0    0  0.22694037462E+02 -0.93254535779E+01 -0.14386756921E+01  0.24577493943E+02  0.00000000000E+00 0. -1.
         -5    1    3    3    0  503 -0.89782193184E+01  0.13412275235E+03  0.77969517622E+02  0.15546979385E+03  0.47000000000E+01 0.  1.
         13    1    4    4    0    0 -0.49478496105E+02 -0.90220951381E+01  0.54698392459E+02  0.74306351782E+02  0.00000000000E+00 0. -1.
        -14    1    4    4    0    0  0.26236079590E+02  0.19637190313E+02  0.61653716535E+02  0.69822144612E+02  0.00000000000E+00 0.  1.
</event>
<event>
12    1  0.8691829E-002  0.1945261E+03  0.7818608E-02  0.1154448E+00
         21   -1    0    0  501  502  0.00000000000E+00  0.00000000000E+00  0.29977332933E+03  0.29977332933E+03  0.00000000000E+00 0. -1.
         21   -1    0    0  502  503 -0.00000000000E+00 -0.00000000000E+00 -0.15096835899E+03  0.15096835899E+03  0.00000000000E+00 0. -1.
         -6    2    1    2    0  503 -0.44878481027E+02 -0.79512766113E+02  0.16567339286E+03  0.25551534575E+03  0.17176746135E+03 0.  0.
        -24    2    3    3    0    0 -0.83855251165E+02 -0.34172183343E+02  0.14093546595E+03  0.19063844629E+03  0.90998738337E+02 0.  0.
          6    2    1    2  501    0  0.44878481027E+02  0.79512766113E+02 -0.16868422515E+02  0.19522634257E+03  0.17173358181E+03 0.  0.
         24    2    5    5    0    0  0.56907004821E+02  0.46701594014E+02 -0.70854727169E+02  0.13074479878E+03  0.81574284952E+02 0.  0.
          5    1    5    5  501    0 -0.12028523793E+02  0.32811172099E+02  0.53986304653E+02  0.64481543788E+02  0.47000000000E+01 0. -1.
        -13    1    6    6    0    0  0.49895926810E+02  0.16159238958E+02  0.89007927249E+00  0.52454902126E+02  0.00000000000E+00 0.  1.
         14    1    6    6    0    0  0.70110780110E+01  0.30542355056E+02 -0.71744806441E+02  0.78289896657E+02  0.00000000000E+00 0. -1.
         -5    1    3    3    0  503  0.38976770137E+02 -0.45340582770E+02  0.24737926908E+02  0.64876899463E+02  0.47000000000E+01 0.  1.
         11    1    4    4    0    0 -0.78371176760E+02 -0.55177915196E+02  0.13900063304E+03  0.16884258840E+03  0.00000000000E+00 0. -1.
        -12    1    4    4    0    0 -0.54840744041E+01  0.21005731853E+02  0.19348329107E+01  0.21795857890E+02  0.00000000000E+00 0.  1.
</event>
<event>
12    1  0.8691829E-002  0.2265619E+03  0.7818608E-02  0.1129165E+00
         21   -1    0    0  501  502  0.00000000000E+00  0.00000000000E+00  0.52025014405E+03  0.52025014405E+03  0.00000000000E+00 0. -1.
         21   -1    0    0  502  503 -0.00000000000E+00 -0.00000000000E+00 -0.10909474646E+03  0.10909474646E+03  0.00000000000E+00 0. -1.
         -6    2    1    2    0  503 -0.10285353786E+03  0.10487948695E+03  0.10754756240E+03  0.25079230156E+03  0.17248693664E+03 0.  0.
        -24    2    3    3    0    0 -0.52251987583E+02  0.13384539722E+03  0.58150631766E+02  0.17423064273E+03  0.79561047803E+02 0.  0.
          6    2    1    2  501    0  0.10285353786E+03 -0.10487948695E+03  0.30360783519E+03  0.37855258894E+03  0.17188888264E+03 0.  0.
         24    2    5    5    0    0  0.99157710362E+01 -0.40281595091E+02  0.21983439532E+03  0.23766115783E+03  0.80216800949E+02 0.  0.
          5    1    5    5  501    0  0.92937766825E+02 -0.64597891861E+02  0.83773439867E+02  0.14089143112E+03  0.47000000000E+01 0. -1.
        -11    1    6    6    0    0 -0.10134153887E+02  0.11738247376E+02  0.13662294619E+03  0.13750024346E+03  0.00000000000E+00 0.  1.
         12    1    6    6    0    0  0.20049924923E+02 -0.52019842467E+02  0.83211449135E+02  0.10016091437E+03  0.00000000000E+00 0. -1.
         -5    1    3    3    0  503 -0.50601550278E+02 -0.28965910264E+02  0.49396930633E+02  0.76561658837E+02  0.47000000000E+01 0.  1.
         13    1    4    4    0    0  0.94877891715E+00  0.33362098643E+02  0.50164168143E+02  0.60252581462E+02  0.00000000000E+00 0. -1.
        -14    1    4    4    0    0 -0.53200766500E+02  0.10048329857E+03  0.79864636227E+01  0.11397806126E+03  0.00000000000E+00 0.  1.
</event>
<event>
12    1  0.8691829E-002  0.2047423E+03  0.7818608E-02  0.1145973E+00
         21   -1    0    0  501  502  0.00000000000E+00  0.00000000000E+00  0.85869094085E+02  0.85869094085E+02  0.00000000000E+00 0.  1.
         21   -1    0    0  502  503 -0.00000000000E+00 -0.00000000000E+00 -0.61083407458E+03  0.61083407458E+03  0.00000000000E+00 0.  1.
         -6    2    1    2    0  503  0.10395143055E+03  0.36512724974E+02 -0.41942890071E+03  0.46636152791E+03  0.17156163023E+03 0.  0.
        -24    2    3    3    0    0  0.10383185970E+03  0.40490612484E+02 -0.20981059123E+03  0.25665276902E+03  0.97106204055E+02 0.  0.
          6    2    1    2  501    0 -0.10395143055E+03 -0.36512724974E+02 -0.10553607979E+03  0.23034164075E+03  0.17256977815E+03 0.  0.
         24    2    5    5    0    0 -0.47569196874E+02 -0.77636791256E+02 -0.25254253759E+02  0.12386438171E+03  0.80089374306E+02 0.  0.
          5    1    5    5  501    0 -0.56382233679E+02  0.41124066282E+02 -0.80281826028E+02  0.10647725904E+03  0.47000000000E+01 0. -1.
        -13    1    6    6    0    0 -0.74382064512E+01 -0.50876243214E+02 -0.48175765525E+02  0.70460083896E+02  0.00000000000E+00 0.  1.
         14    1    6    6    0    0 -0.40130990423E+02 -0.26760548042E+02  0.22921511765E+02  0.53404297819E+02  0.00000000000E+00 0. -1.
         -5    1    3    3    0  503  0.11957085188E+00 -0.39778875102E+01 -0.20961830948E+03  0.20970875889E+03  0.47000000000E+01 0.  1.
         11    1    4    4    0    0 -0.13262983236E+02  0.15894857111E+02 -0.68145048650E+02  0.71220087492E+02  0.00000000000E+00 0. -1.
        -12    1    4    4    0    0  0.11709484294E+03  0.24595755373E+02 -0.14166554258E+03  0.18543268153E+03  0.00000000000E+00 0.  1.
</event>
<event>
12    1  0.8691829E-002  0.2254596E+03  0.7818608E-02  0.1129904E+00
         21   -1    0    0  501  502  0.00000000000E+00  0.00000000000E+00  0.46249153072E+03  0.46249153072E+03  0.00000000000E+00 0.  1.
         21   -1    0    0  502  503 -0.00000000000E+00 -0.00000000000E+00 -0.11044024326E+03  0.11044024326E+03  0.00000000000E+00 0.  1.
         -6    2    1    2    0  503 -0.34715082339E+01 -0.14455026360E+03  0.19714645931E+03  0.29938551864E+03  0.17279505861E+03 0.  0.
        -24    2    3    3    0    0  0.28705814471E+02 -0.35547724902E+02  0.28997814168E+02  0.96375690307E+02  0.79747952484E+02 0.  0.
          6    2    1    2  501    0  0.34715082339E+01  0.14455026360E+03  0.15490482815E+03  0.27354625534E+03  0.17298906886E+03 0.  0.
         24    2    5    5    0    0  0.58215337785E+02  0.93912922027E+02  0.48801521321E+02  0.14377326525E+03  0.77977566256E+02 0.  0.
          5    1    5    5  501    0 -0.54743829551E+02  0.50637341576E+02  0.10610330683E+03  0.12977299009E+03  0.47000000000E+01 0. -1.
        -13    1    6    6    0    0 -0.33462915561E+01  0.49931853188E+02  0.46139962782E+02  0.68068228972E+02  0.00000000000E+00 0.  1.
         14    1    6    6    0    0  0.61561629341E+02  0.43981068839E+02  0.26615585393E+01  0.75705036273E+02  0.00000000000E+00 0. -1.
         -5    1    3    3    0  503 -0.32177322705E+02 -0.10900253870E+03  0.16814864514E+03  0.20300982834E+03  0.47000000000E+01 0.  1.
         13    1    4    4    0    0 -0.19776593521E+02 -0.13492906022E+01  0.31245479981E+02  0.37002895233E+02  0.00000000000E+00 0. -1.
        -14    1    4    4    0    0  0.48482407992E+02 -0.34198434299E+02 -0.22476658130E+01  0.59372795073E+02  0.00000000000E+00 0.  1.
</event>
<event>
12    1  0.8691829E-002  0.2449246E+03  0.7818608E-02  0.1116681E+00
         21   -1    0    0  501  502  0.00000000000E+00  0.00000000000E+00  0.16370935956E+03  0.16370935956E+03  0.00000000000E+00 0.  1.
         21   -1    0    0  502  503 -0.00000000000E+00 -0.00000000000E+00 -0.36932853807E+03  0.36932853807E+03  0.00000000000E+00 0. -1.
         -6    2    1    2    0  503  0.26647851269E+02  0.17254556309E+03 -0.13089160942E+03  0.27770607562E+03  0.17177302379E+03 0.  0.
        -24    2    3    3    0    0  0.69005863247E+02  0.80999501519E+02 -0.35454724198E+02  0.13876302388E+03  0.81703187934E+02 0.  0.
          6    2    1    2  501    0 -0.26647851269E+02 -0.17254556309E+03 -0.74727569095E+02  0.25533182201E+03  0.17066941855E+03 0.  0.
         24    2    5    5    0    0 -0.68528522994E+02 -0.91484926217E+02  0.74015440492E+01  0.13248191871E+03  0.66565950321E+02 0.  0.
          5    1    5    5  501    0  0.41880671725E+02 -0.81060636870E+02 -0.82129113145E+02  0.12284990330E+03  0.47000000000E+01 0. -1.
        -13    1    6    6    0    0 -0.22515194255E+02 -0.82212782543E+02  0.71948784063E+01  0.85543216335E+02  0.00000000000E+00 0.  1.
         14    1    6    6    0    0 -0.46013328739E+02 -0.92721436748E+01  0.20666564290E+00  0.46938702375E+02  0.00000000000E+00 0. -1.
         -5    1    3    3    0  503 -0.42358011978E+02  0.91546061568E+02 -0.95436885224E+02  0.13894305175E+03  0.47000000000E+01 0.  1.
         11    1    4    4    0    0 -0.10505357458E+02  0.18754623054E+02 -0.30952801140E+02  0.37685200273E+02  0.00000000000E+00 0. -1.
        -12    1    4    4    0    0  0.79511220705E+02  0.62244878465E+02 -0.45019230580E+01  0.10107782360E+03  0.00000000000E+00 0.  1.
</event>
<event>
12    1  0.8691829E-002  0.1728843E+03  0.7818608E-02  0.1175373E+00
         21   -1    0    0  501  502  0.00000000000E+00  0.00000000000E+00  0.18996390000E+04  0.18996390000E+04  0.00000000000E+00 0.  1.
         21   -1    0    0  502  503 -0.00000000000E+00 -0.00000000000E+00 -0.18568155580E+02  0.18568155580E+02  0.00000000000E+00 0. -1.
         -6    2    1    2    0  503 -0.27320989607E+02 -0.65133718556E+01  0.13312275812E+04  0.13424067436E+04  0.17058760725E+03 0.  0.
        -24    2    3    3    0    0 -0.59851335680E+01  0.56380084857E+02  0.98908073574E+03  0.99384203005E+03  0.78909714857E+02 0.  0.
          6    2    1    2  501    0  0.27320989607E+02  0.65133718556E+01  0.54984326322E+03  0.57580041201E+03  0.16861091268E+03 0.  0.
         24    2    5    5    0    0  0.27738521283E+02 -0.20948305728E+02  0.53880774661E+03  0.54583058226E+03  0.80056103130E+02 0.  0.
          5    1    5    5  501    0 -0.41753167565E+00  0.27461677583E+02  0.11035516611E+02  0.29969829750E+02  0.47000000000E+01 0. -1.
        -11    1    6    6    0    0 -0.27845481368E+02 -0.10884677318E+02  0.22522929321E+03  0.22720493294E+03  0.00000000000E+00 0.  1.
         12    1    6    6    0    0  0.55584002651E+02 -0.10063628409E+02  0.31357845339E+03  0.31862564931E+03  0.00000000000E+00 0. -1.
         -5    1    3    3    0  503 -0.21335856039E+02 -0.62893456712E+02  0.34214684551E+03  0.34856471357E+03  0.47000000000E+01 0.  1.
         13    1    4    4    0    0  0.29207361349E+02  0.43843271393E+02  0.38234882018E+03  0.38596103780E+03  0.00000000000E+00 0. -1.
        -14    1    4    4    0    0 -0.35192494917E+02  0.12536813463E+02  0.60673191555E+03  0.60788099225E+03  0.00000000000E+00 0.  1.
</event>
<event>
12    1  0.8691829E-002  0.1789872E+03  0.7818608E-02  0.1169877E+00
         21   -1    0    0  501  502  0.00000000000E+00  0.00000000000E+00  0.57031788803E+03  0.57031788803E+03  0.00000000000E+00 0. -1.
         21   -1    0    0  502  503 -0.00000000000E+00 -0.00000000000E+00 -0.11460818869E+03  0.11460818869E+03  0.00000000000E+00 0. -1.
         -6    2    1    2    0  503  0.69213001245E+01 -0.35141117408E+02 -0.18175878697E+02  0.17990772656E+03  0.17536711488E+03 0.  0.
        -24    2    3    3    0    0 -0.21627273494E+02 -0.41910968558E+02 -0.72381457481E+02  0.11809197848E+03  0.80513177487E+02 0.  0.
          6    2    1    2  501    0 -0.69213001245E+01  0.35141117408E+02  0.47388557804E+03  0.50501835016E+03  0.17086014866E+03 0.  0.
         24    2    5    5    0    0  0.25290267134E+02 -0.94561915655E+01  0.11855345821E+03  0.14542203425E+03  0.79772353746E+02 0.  0.
          5    1    5    5  501    0 -0.32211567259E+02  0.44597308973E+02  0.35533211983E+03  0.35959631591E+03  0.47000000000E+01 0. -1.
        -11    1    6    6    0    0 -0.18323054786E+02 -0.24088297474E+01 -0.44630487239E+00  0.18486102496E+02  0.00000000000E+00 0.  1.
         12    1    6    6    0    0  0.43613321921E+02 -0.70473618181E+01  0.11899976308E+03  0.12693593175E+03  0.00000000000E+00 0. -1.
         -5    1    3    3    0  503  0.28548573619E+02  0.67698511502E+01  0.54205578784E+02  0.61815748087E+02  0.47000000000E+01 0.  1.
         11    1    4    4    0    0  0.27190091699E+02 -0.33619650628E+02 -0.27358772295E+02  0.51167220136E+02  0.00000000000E+00 0. -1.
        -12    1    4    4    0    0 -0.48817365194E+02 -0.82913179297E+01 -0.45022685186E+02  0.66924758340E+02  0.00000000000E+00 0.  1.
</event>
<event>
12    1  0.8691829E-002  0.1904422E+03  0.7818608E-02  0.1161708E+00
         21   -1    0    0  503  502  0.00000000000E+00  0.00000000000E+00  0.65462978793E+03  0.65462978793E+03  0.00000000000E+00 0. -1.
         21   -1    0    0  501  503 -0.00000000000E+00 -0.00000000000E+00 -0.55388308892E+02  0.55388308892E+02  0.00000000000E+00 0. -1.
          6    2    1    2  501    0  0.26333895595E+02  0.25360437973E+02  0.21131659252E+03  0.28446957534E+03  0.18690000307E+03 0.  0.
         24    2    3    3    0    0 -0.82715423848E+00 -0.60215295909E+02  0.98197159159E+02  0.13997381394E+03  0.79519937604E+02 0.  0.
         -6    2    1    2    0  502 -0.26333895595E+02 -0.25360437973E+02  0.38792488652E+03  0.42554852149E+03  0.17108243828E+03 0.  0.
        -24    2    5    5    0    0  0.29764607226E+02 -0.43501003521E+02  0.31875651895E+03  0.33454041630E+03  0.86794600152E+02 0.  0.
          5    1    3    3  501    0  0.27161049834E+02  0.85575733882E+02  0.11311943336E+03  0.14449576140E+03  0.47000000000E+01 0. -1.
        -11    1    4    4    0    0  0.11644538991E+02 -0.38784530072E+02  0.10640891976E+03  0.11385382411E+03  0.00000000000E+00 0.  1.
         12    1    4    4    0    0 -0.12471693229E+02 -0.21430765837E+02 -0.82117606000E+01  0.26119989826E+02  0.00000000000E+00 0. -1.
         -5    1    5    5    0  502 -0.56098502821E+02  0.18140565548E+02  0.69168367565E+02  0.91008105182E+02  0.47000000000E+01 0.  1.
         13    1    6    6    0    0  0.43325178252E+01 -0.59900215337E+02  0.12788212598E+03  0.14128214556E+03  0.00000000000E+00 0. -1.
        -14    1    6    6    0    0  0.25432089401E+02  0.16399211816E+02  0.19087439297E+03  0.19325827075E+03  0.00000000000E+00 0.  1.
</event>
<event>
12    1  0.8691829E-002  0.1817314E+03  0.7818608E-02  0.1166228E+00
         21   -1    0    0  503  502  0.00000000000E+00  0.00000000000E+00  0.70816190806E+02  0.70816190806E+02  0.00000000000E+00 0.  1.
         21   -1    0    0  501  503 -0.00000000000E+00 -0.00000000000E+00 -0.10941593468E+04  0.10941593468E+04  0.00000000000E+00 0.  1.
          6    2    1    2  501    0 -0.45805708855E+02 -0.38392788255E+02 -0.70338239626E+02  0.19486860271E+03  0.17162207089E+03 0.  0.
         24    2    3    3    0    0 -0.15585923587E+02 -0.91712489217E+02 -0.44918746055E+02  0.12835193874E+03  0.76173648586E+02 0.  0.
         -6    2    1    2    0  502  0.45805708855E+02  0.38392788255E+02 -0.95300491638E+03  0.97010693490E+03  0.17122186004E+03 0.  0.
        -24    2    5    5    0    0  0.21940891763E+02 -0.12184459257E+02 -0.22293806670E+03  0.23788614685E+03  0.79111146499E+02 0.  0.
          5    1    3    3  501    0 -0.30219785268E+02  0.53319700962E+02 -0.25419493571E+02  0.66516663970E+02  0.47000000000E+01 0. -1.
        -11    1    4    4    0    0 -0.34820861953E+02 -0.13786294681E+02 -0.26841970608E+02  0.46076520423E+02  0.00000000000E+00 0.  1.
         12    1    4    4    0    0  0.19234938366E+02 -0.77926194536E+02 -0.18076775447E+02  0.82275418318E+02  0.00000000000E+00 0. -1.
         -5    1    5    5    0  502  0.23864817092E+02  0.50577247512E+02 -0.73006684967E+03  0.73222078805E+03  0.47000000000E+01 0.  1.
         13    1    6    6    0    0  0.50155734822E+02 -0.17812692400E+02 -0.12631652159E+03  0.13707207365E+03  0.00000000000E+00 0. -1.
        -14    1    6    6    0    0 -0.28214843060E+02  0.56282331430E+01 -0.96621545110E+02  0.10081407321E+03  0.00000000000E+00 0.  1.
</event>
<event>
12    1  0.8691829E-002  0.3178976E+03  0.7818608E-02  0.1076659E+00
         21   -1    0    0  503  502  0.00000000000E+00  0.00000000000E+00  0.31905392745E+03  0.31905392745E+03  0.00000000000E+00 0. -1.
         21   -1    0    0  501  503 -0.00000000000E+00 -0.00000000000E+00 -0.31656569456E+03  0.31656569456E+03  0.00000000000E+00 0.  1.
          6    2    1    2  501    0 -0.25593135788E+03  0.76924684035E+02 -0.55561706191E+01  0.31762026013E+03  0.17156191785E+03 0.  0.
         24    2    3    3    0    0 -0.12295385562E+03  0.16128216138E+02 -0.64855408288E+02  0.15976679580E+03  0.77080705021E+02 0.  0.
         -6    2    1    2    0  502  0.25593135788E+03 -0.76924684035E+02  0.80444035116E+01  0.31799936187E+03  0.17216449914E+03 0.  0.
        -24    2    5    5    0    0  0.50426161322E+02 -0.27788096098E+02  0.42944292051E+02  0.10378712528E+03  0.74917148396E+02 0.  0.
          5    1    3    3  501    0 -0.13297750226E+03  0.60796467897E+02  0.59299237669E+02  0.15785346434E+03  0.47000000000E+01 0. -1.
        -13    1    4    4    0    0 -0.27686729680E+02  0.28667168373E+02  0.61011463760E+01  0.40318550693E+02  0.00000000000E+00 0.  1.
         14    1    4    4    0    0 -0.95267125943E+02 -0.12538952235E+02 -0.70956554664E+02  0.11944824510E+03  0.00000000000E+00 0. -1.
         -5    1    5    5    0  502  0.20550519656E+03 -0.49136587937E+02 -0.34899888539E+02  0.21421223659E+03  0.47000000000E+01 0.  1.
         11    1    6    6    0    0  0.60602073819E+02 -0.31977939156E+02  0.54705257426E+02  0.87680471793E+02  0.00000000000E+00 0. -1.
        -12    1    6    6    0    0 -0.10175912497E+02  0.41898430583E+01 -0.11760965375E+02  0.16106653487E+02  0.00000000000E+00 0.  1.
</event>
<event>
12    1  0.8691829E-002  0.2496012E+03  0.7818608E-02  0.1113701E+00
         21   -1    0    0  501  502  0.00000000000E+00  0.00000000000E+00  0.14114508730E+03  0.14114508730E+03  0.00000000000E+00 0.  1.
         21   -1    0    0  502  503 -0.00000000000E+00 -0.00000000000E+00 -0.45090308475E+03  0.45090308475E+03  0.00000000000E+00 0.  1.
         -6    2    1    2    0  503  0.75343819217E+02 -0.16488420237E+03 -0.10868848109E+03  0.27223872829E+03  0.17157286491E+03 0.  0.
        -24    2    3    3    0    0  0.62326111986E+02 -0.15259495693E+03 -0.23072508346E+02  0.18464494401E+03  0.79947792909E+02 0.  0.
          6    2    1    2  501    0 -0.75343819217E+02  0.16488420237E+03 -0.20106951636E+03  0.31980944377E+03  0.17025169200E+03 0.  0.
         24    2    5    5    0    0  0.57738616321E+01  0.14243578977E+03 -0.12049773484E+03  0.20319936122E+03  0.80305570250E+02 0.  0.
          5    1    5    5  501    0 -0.81117680849E+02  0.22448412604E+02 -0.80571781522E+02  0.11661008255E+03  0.47000000000E+01 0. -1.
        -11    1    6    6    0    0  0.19350166300E+02  0.72392596563E+02 -0.10693253257E+03  0.13057443660E+03  0.00000000000E+00 0.  1.
         12    1    6    6    0    0 -0.13576304667E+02  0.70043193203E+02 -0.13565202271E+02  0.72624924614E+02  0.00000000000E+00 0. -1.
         -5    1    3    3    0  503  0.13017707231E+02 -0.12289245438E+02 -0.85615972741E+02  0.87593784274E+02  0.47000000000E+01 0.  1.
         11    1    4    4    0    0  0.21277500699E+02 -0.11134080558E+02 -0.28475259703E+02  0.37249700684E+02  0.00000000000E+00 0. -1.
        -12    1    4    4    0    0  0.41048611287E+02 -0.14146087637E+03  0.54027513576E+01  0.14739524333E+03  0.00000000000E+00 0.  1.
</event>
<event>
12    1  0.8691829E-002  0.1864922E+03  0.7818608E-02  0.1161730E+00
         21   -1    0    0  503  502  0.00000000000E+00  0.00000000000E+00  0.10285773893E+04  0.10285773893E+04  0.00000000000E+00 0. -1.
         21   -1    0    0  501  503 -0.00000000000E+00 -0.00000000000E+00 -0.12824686136E+03  0.12824686136E+03  0.00000000000E+00 0. -1.
          6    2    1    2  501    0 -0.19179381980E+02 -0.70497875681E+02 -0.46218300552E+02  0.19213394646E+03  0.17158532253E+03 0.  0.
         24    2    3    3    0    0  0.42276947519E+02 -0.61573677075E+02  0.63997570905E+01  0.11060314402E+03  0.81323063009E+02 0.  0.
         -6    2    1    2    0  502  0.19179381980E+02  0.70497875681E+02  0.94654882848E+03  0.96469030419E+03  0.17127433882E+03 0.  0.
        -24    2    5    5    0    0  0.17233189156E+02  0.31008721761E+02  0.89582646836E+03  0.90020752541E+03  0.81301929555E+02 0.  0.
          5    1    3    3  501    0 -0.61456329499E+02 -0.89241986057E+01 -0.52618057643E+02  0.81530802439E+02  0.47000000000E+01 0. -1.
        -11    1    4    4    0    0  0.40019432726E+02  0.10180611174E+01 -0.17334832299E+02  0.43624395182E+02  0.00000000000E+00 0.  1.
         12    1    4    4    0    0  0.22575147926E+01 -0.62591738192E+02  0.23734589389E+02  0.66978748842E+02  0.00000000000E+00 0. -1.
         -5    1    5    5    0  502  0.19461928241E+01  0.39489153919E+02  0.50722360114E+02  0.64482778781E+02  0.47000000000E+01 0.  1.
         13    1    6    6    0    0  0.92344314939E+01 -0.26343342438E+02  0.40849847456E+03  0.40945115720E+03  0.00000000000E+00 0. -1.
        -14    1    6    6    0    0  0.79987576616E+01  0.57352064199E+02  0.48732799381E+03  0.49075636821E+03  0.00000000000E+00 0.  1.
</event>
<event>
12    1  0.8691829E-002  0.3243757E+03  0.7818608E-02  0.1074307E+00
         21   -1    0    0  501  502  0.00000000000E+00  0.00000000000E+00  0.28071367474E+03  0.28071367474E+03  0.00000000000E+00 0. -1.
         21   -1    0    0  502  503 -0.00000000000E+00 -0.00000000000E+00 -0.77937505361E+03  0.77937505361E+03  0.00000000000E+00 0.  1.
         -6    2    1    2    0  503 -0.13359792073E+03  0.23971050139E+03 -0.63324934039E+03  0.70889999012E+03  0.16194116211E+03 0.  0.
        -24    2    3    3    0    0 -0.81134314411E+02  0.56817255502E+02 -0.23688084965E+03  0.26920414089E+03  0.80915728030E+02 0.  0.
          6    2    1    2  501    0  0.13359792073E+03 -0.23971050139E+03  0.13458796152E+03  0.35118873823E+03  0.17294531382E+03 0.  0.
         24    2    5    5    0    0  0.12935718384E+03 -0.26096804815E+03  0.12072671782E+03  0.32503360067E+03  0.78957570887E+02 0.  0.
          5    1    5    5  501    0  0.42407368930E+01  0.21257546765E+02  0.13861243706E+02  0.26155137563E+02  0.47000000000E+01 0. -1.
        -11    1    6    6    0    0 -0.15270912537E+01 -0.70215802994E+02  0.33300778470E+02  0.77727297936E+02  0.00000000000E+00 0.  1.
         12    1    6    6    0    0  0.13088427509E+03 -0.19075224516E+03  0.87425939347E+02  0.24730630273E+03  0.00000000000E+00 0. -1.
         -5    1    3    3    0  503 -0.52463606321E+02  0.18289324588E+03 -0.39636849074E+03  0.43969584923E+03  0.47000000000E+01 0.  1.
         13    1    4    4    0    0 -0.51020897205E+02  0.22184570189E+02 -0.20722265134E+03  0.21456121349E+03  0.00000000000E+00 0. -1.
        -14    1    4    4    0    0 -0.30113417206E+02  0.34632685313E+02 -0.29658198315E+02  0.54642927402E+02  0.00000000000E+00 0.  1.
</event>
<event>
12    1  0.8691829E-002  0.1789008E+03  0.7818608E-02  0.1168903E+00
         21   -1    0    0  503  502  0.00000000000E+00  0.00000000000E+00  0.15779087258E+03  0.15779087258E+03  0.00000000000E+00 0. -1.
         21   -1    0    0  501  503 -0.00000000000E+00 -0.00000000000E+00 -0.33703208736E+03  0.33703208736E+03  0.00000000000E+00 0. -1.
          6    2    1    2  501    0 -0.56150237618E+00 -0.45997095910E+02 -0.24580695437E+03  0.30393950133E+03  0.17274870054E+03 0.  0.
         24    2    3    3    0    0  0.75546892586E+01 -0.64820851204E+02 -0.68266277211E+02  0.12515754370E+03  0.82129836599E+02 0.  0.
         -6    2    1    2    0  502  0.56150237618E+00  0.45997095910E+02  0.66565739591E+02  0.19088345860E+03  0.17288565286E+03 0.  0.
        -24    2    5    5    0    0 -0.93337993231E+01 -0.31382315878E+02 -0.24208240280E+01  0.86639867315E+02  0.80178779360E+02 0.  0.
          5    1    3    3  501    0 -0.81161916348E+01  0.18823755294E+02 -0.17754067716E+03  0.17878195763E+03  0.47000000000E+01 0. -1.
        -11    1    4    4    0    0  0.24595136305E+02 -0.78941028402E+02 -0.55892956927E+02  0.99802952507E+02  0.00000000000E+00 0.  1.
         12    1    4    4    0    0 -0.17040447046E+02  0.14120177198E+02 -0.12373320284E+02  0.25354591191E+02  0.00000000000E+00 0. -1.
         -5    1    5    5    0  502  0.98953016993E+01  0.77379411788E+02  0.68986563619E+02  0.10424359129E+03  0.47000000000E+01 0.  1.
         11    1    6    6    0    0  0.21111971945E+02 -0.47288856451E+02  0.29520223707E+01  0.51871627504E+02  0.00000000000E+00 0. -1.
        -12    1    6    6    0    0 -0.30445771268E+02  0.15906540573E+02 -0.53728463987E+01  0.34768239811E+02  0.00000000000E+00 0.  1.
</event>
<event>
12    1  0.8691829E-002  0.2120581E+03  0.7818608E-02  0.1140462E+00
         21   -1    0    0  501  502  0.00000000000E+00  0.00000000000E+00  0.50662397907E+03  0.50662397907E+03  0.00000000000E+00 0.  1.
         21   -1    0    0  502  503 -0.00000000000E+00 -0.00000000000E+00 -0.12129259972E+03  0.12129259972E+03  0.00000000000E+00 0.  1.
         -6    2    1    2    0  503 -0.44598053317E+02  0.11454472702E+03  0.26496263663E+02  0.21110571970E+03  0.16957031596E+03 0.  0.
        -24    2    3    3    0    0  0.15466782760E+02  0.12039595538E+02 -0.15746524452E+02  0.84924779539E+02  0.81117765734E+02 0.  0.
          6    2    1    2  501    0  0.44598053317E+02 -0.11454472702E+03  0.35883511569E+03  0.41681085908E+03  0.17279806466E+03 0.  0.
         24    2    5    5    0    0  0.58753798940E+02 -0.78845302497E+02  0.14124594921E+03  0.19580866584E+03  0.93391781422E+02 0.  0.
          5    1    5    5  501    0 -0.14155745623E+02 -0.35699424521E+02  0.21758916648E+03  0.22100219324E+03  0.47000000000E+01 0. -1.
        -13    1    6    6    0    0  0.23285549620E+02  0.15489175591E+01 -0.62165620844E+01  0.24150809735E+02  0.00000000000E+00 0.  1.
         14    1    6    6    0    0  0.35468249320E+02 -0.80394220056E+02  0.14746251129E+03  0.17165785611E+03  0.00000000000E+00 0. -1.
         -5    1    3    3    0  503 -0.60064836077E+02  0.10250513148E+03  0.42242788115E+02  0.12618094016E+03  0.47000000000E+01 0.  1.
         11    1    4    4    0    0 -0.24679289631E+02 -0.93522365441E+01  0.14677555926E+02  0.30198713765E+02  0.00000000000E+00 0. -1.
        -12    1    4    4    0    0  0.40146072391E+02  0.21391832082E+02 -0.30424080378E+02  0.54726065774E+02  0.00000000000E+00 0.  1.
</event>
<event>
12    1  0.8691829E-002  0.2547997E+03  0.7818608E-02  0.1110529E+00
         21   -1    0    0  503  502  0.00000000000E+00  0.00000000000E+00  0.10105376508E+03  0.10105376508E+03  0.00000000000E+00 0.  1.
         21   -1    0    0  501  503 -0.00000000000E+00 -0.00000000000E+00 -0.63943609653E+03  0.63943609653E+03  0.00000000000E+00 0. -1.
          6    2    1    2  501    0  0.33350349989E+02 -0.18529932321E+03 -0.27946638665E+03  0.37722637461E+03  0.16955881401E+03 0.  0.
         24    2    3    3    0    0  0.61242490011E+02 -0.18827035694E+03 -0.19980968671E+03  0.29264458956E+03  0.80750077479E+02 0.  0.
         -6    2    1    2    0  502 -0.33350349989E+02  0.18529932321E+03 -0.25891594480E+03  0.36326348700E+03  0.17168229230E+03 0.  0.
        -24    2    5    5    0    0  0.36601138923E+02  0.16541071694E+03 -0.20249097136E+03  0.27109714234E+03  0.61568810714E+02 0.  0.
          5    1    3    3  501    0 -0.27892140022E+02  0.29710337295E+01 -0.79656699941E+02  0.84581785048E+02  0.47000000000E+01 0. -1.
        -13    1    4    4    0    0  0.70046601189E+02 -0.14998194730E+03 -0.19030369077E+03  0.25222332480E+03  0.00000000000E+00 0.  1.
         14    1    4    4    0    0 -0.88041111782E+01 -0.38288409634E+02 -0.95059959447E+01  0.40421264761E+02  0.00000000000E+00 0. -1.
         -5    1    5    5    0  502 -0.69951488912E+02  0.19888606263E+02 -0.56424973439E+02  0.92166344659E+02  0.47000000000E+01 0.  1.
         13    1    6    6    0    0  0.32843575053E+02  0.51780096440E+02 -0.10373494420E+03  0.12050235457E+03  0.00000000000E+00 0. -1.
        -14    1    6    6    0    0  0.37575638697E+01  0.11363062050E+03 -0.98756027162E+02  0.15059478777E+03  0.00000000000E+00 0.  1.
</event>
<event>
12    1  0.8691829E-002  0.1980036E+03  0.7818608E-02  0.1151581E+00
         21   -1    0    0  503  502  0.00000000000E+00  0.00000000000E+00  0.69692642626E+02  0.69692642626E+02  0.00000000000E+00 0. -1.
         21   -1    0    0  501  503 -0.00000000000E+00 -0.00000000000E+00 -0.95569990697E+03  0.95569990697E+03  0.00000000000E+00 0. -1.
          6    2    1    2  501    0 -0.88092042124E+02  0.35096882711E+02 -0.77310090313E+03  0.79805414264E+03  0.17382004803E+03 0.  0.
         24    2    3    3    0    0 -0.38832501992E+02  0.53825259363E+02 -0.22277066293E+03  0.24518642096E+03  0.78003147418E+02 0.  0.
         -6    2    1    2    0  502  0.88092042124E+02 -0.35096882711E+02 -0.11290636122E+03  0.22733840696E+03  0.17304018555E+03 0.  0.
        -24    2    5    5    0    0  0.10961815053E+03 -0.43616831375E+01 -0.12817177748E+03  0.18655668594E+03  0.79625556948E+02 0.  0.
          5    1    3    3  501    0 -0.49259540133E+02 -0.18728376652E+02 -0.55033024020E+03  0.55286772167E+03  0.47000000000E+01 0. -1.
        -13    1    4    4    0    0 -0.22303079592E+02  0.43666897974E+02 -0.45609419948E+02  0.66965995295E+02  0.00000000000E+00 0.  1.
         14    1    4    4    0    0 -0.16529422399E+02  0.10158361389E+02 -0.17716124298E+03  0.17822042567E+03  0.00000000000E+00 0. -1.
         -5    1    5    5    0  502 -0.21526108409E+02 -0.30735199573E+02  0.15265416264E+02  0.40781721025E+02  0.47000000000E+01 0.  1.
         13    1    6    6    0    0  0.21290680684E+01  0.13786030861E+02 -0.51313795858E+02  0.53176058740E+02  0.00000000000E+00 0. -1.
        -14    1    6    6    0    0  0.10748908247E+03 -0.18147713998E+02 -0.76857981622E+02  0.13338062720E+03  0.00000000000E+00 0.  1.
</event>
<event>
12    1  0.8691829E-002  0.2398608E+03  0.7818608E-02  0.1121840E+00
         21   -1    0    0  501  502  0.00000000000E+00  0.00000000000E+00  0.14456258106E+03  0.14456258106E+03  0.00000000000E+00 0.  1.
         21   -1    0    0  502  503 -0.00000000000E+00 -0.00000000000E+00 -0.43729157564E+03  0.43729157564E+03  0.00000000000E+00 0.  1.
         -6    2    1    2    0  503 -0.74872211657E+02 -0.12848379043E+03 -0.43497867889E+02  0.24377296222E+03  0.18820005344E+03 0.  0.
        -24    2    3    3    0    0 -0.74725422171E+02 -0.16591512736E+03 -0.52015437359E+02  0.20509783428E+03  0.79043011708E+02 0.  0.
          6    2    1    2  501    0  0.74872211657E+02  0.12848379043E+03 -0.24923112669E+03  0.33808119448E+03  0.17340359590E+03 0.  0.
         24    2    5    5    0    0  0.11225093578E+03  0.62353561010E+02 -0.19276362095E+03  0.24331281650E+03  0.74532368527E+02 0.  0.
          5    1    5    5  501    0 -0.37378724124E+02  0.66130229424E+02 -0.56467505738E+02  0.94768377980E+02  0.47000000000E+01 0. -1.
        -11    1    6    6    0    0  0.57088520685E+02 -0.26353742509E+01 -0.11271805318E+03  0.12637801987E+03  0.00000000000E+00 0.  1.
         12    1    6    6    0    0  0.55162415096E+02  0.64988935261E+02 -0.80045567765E+02  0.11693479664E+03  0.00000000000E+00 0. -1.
         -5    1    3    3    0  503 -0.14678948654E+00  0.37431336923E+02  0.85175694694E+01  0.38675127934E+02  0.47000000000E+01 0.  1.
         11    1    4    4    0    0  0.13679428032E+02 -0.46893576101E+02 -0.23134067487E+02  0.54049230423E+02  0.00000000000E+00 0. -1.
        -12    1    4    4    0    0 -0.88404850202E+02 -0.11902155126E+03 -0.28881369871E+02  0.15104860386E+03  0.00000000000E+00 0.  1.
</event>
<event>
12    1  0.8691829E-002  0.1859181E+03  0.7818608E-02  0.1163804E+00
         21   -1    0    0  503  502  0.00000000000E+00  0.00000000000E+00  0.34890769930E+02  0.34890769930E+02  0.00000000000E+00 0.  1.
         21   -1    0    0  501  503 -0.00000000000E+00 -0.00000000000E+00 -0.10447259679E+04  0.10447259679E+04  0.00000000000E+00 0.  1.
          6    2    1    2  501    0 -0.39592024616E+02 -0.32097046690E+02 -0.65468869702E+03  0.67874943370E+03  0.17171416637E+03 0.  0.
         24    2    3    3    0    0 -0.52113204913E+02  0.83524723484E+01 -0.60777913625E+03  0.61538114165E+03  0.80702671068E+02 0.  0.
         -6    2    1    2    0  502  0.39592024616E+02  0.32097046690E+02 -0.35514650097E+03  0.40086730414E+03  0.17879544054E+03 0.  0.
        -24    2    5    5    0    0  0.90884191662E+02 -0.43763499934E+01 -0.20479119958E+03  0.23780289441E+03  0.79571932426E+02 0.  0.
          5    1    3    3  501    0  0.12521180297E+02 -0.40449519039E+02 -0.46909560765E+02  0.63368292053E+02  0.47000000000E+01 0. -1.
        -11    1    4    4    0    0 -0.45661181701E+02  0.28488291077E+02 -0.20185236841E+03  0.20890405663E+03  0.00000000000E+00 0.  1.
         12    1    4    4    0    0 -0.64520232122E+01 -0.20135818729E+02 -0.40592676784E+03  0.40647708502E+03  0.00000000000E+00 0. -1.
         -5    1    5    5    0  502 -0.51292167046E+02  0.36473396684E+02 -0.15035530139E+03  0.16306440973E+03  0.47000000000E+01 0.  1.
         11    1    6    6    0    0  0.64940577919E+01 -0.21865831883E+02 -0.97763895835E+02  0.10038957475E+03  0.00000000000E+00 0. -1.
        -12    1    6    6    0    0  0.84390133870E+02  0.17489481889E+02 -0.10702730375E+03  0.13741331966E+03  0.00000000000E+00 0.  1.
</event>
<event>
12    1  0.8691829E-002  0.1772333E+03  0.7818608E-02  0.1170820E+00
         21   -1    0    0  503  502  0.00000000000E+00  0.00000000000E+00  0.48701367603E+03  0.48701367603E+03  0.00000000000E+00 0. -1.
         21   -1    0    0  501  503 -0.00000000000E+00 -0.00000000000E+00 -0.70670903761E+02  0.70670903761E+02  0.00000000000E+00 0. -1.
          6    2    1    2  501    0 -0.23161882577E+01  0.38575405607E+02  0.12343478458E+03  0.21598095279E+03  0.17296878122E+03 0.  0.
         24    2    3    3    0    0  0.19127738557E+02  0.11808696510E+02  0.15082390740E+03  0.17183853824E+03  0.79216895207E+02 0.  0.
         -6    2    1    2    0  502  0.23161882577E+01 -0.38575405607E+02  0.29290798769E+03  0.34170362701E+03  0.17167659366E+03 0.  0.
        -24    2    5    5    0    0  0.47098544563E+02 -0.43741637302E+02  0.27304380147E+03  0.29221802021E+03  0.81895360532E+02 0.  0.
          5    1    3    3  501    0 -0.21443926815E+02  0.26766709096E+02 -0.27389122819E+02  0.44142414545E+02  0.47000000000E+01 0. -1.
        -11    1    4    4    0    0 -0.27517844928E+02  0.16263987744E+02  0.86805113083E+02  0.92503387745E+02  0.00000000000E+00 0.  1.
         12    1    4    4    0    0  0.46645583485E+02 -0.44552912340E+01  0.64018794314E+02  0.79335150495E+02  0.00000000000E+00 0. -1.
         -5    1    5    5    0  502 -0.44782356305E+02  0.51662316951E+01  0.19864186215E+02  0.49485606798E+02  0.47000000000E+01 0.  1.
         11    1    6    6    0    0 -0.20437548960E+02 -0.23880656044E+02  0.11474539279E+03  0.11897261999E+03  0.00000000000E+00 0. -1.
        -12    1    6    6    0    0  0.67536093523E+02 -0.19860981258E+02  0.15829840869E+03  0.17324540022E+03  0.00000000000E+00 0.  1.
</event>
<event>
12    1  0.8691829E-002  0.1847708E+03  0.7818608E-02  0.1165577E+00
         21   -1    0    0  501  502  0.00000000000E+00  0.00000000000E+00  0.62518291695E+03  0.62518291695E+03  0.00000000000E+00 0.  1.
         21   -1    0    0  502  503 -0.00000000000E+00 -0.00000000000E+00 -0.18470910819E+03  0.18470910819E+03  0.00000000000E+00 0.  1.
         -6    2    1    2    0  503  0.65737400319E+02 -0.14989492368E+02 -0.12157594948E+03  0.22118085321E+03  0.17202955459E+03 0.  0.
        -24    2    3    3    0    0 -0.45090090278E+00 -0.50366208429E+02 -0.10849131024E+03  0.14485457306E+03  0.81703884091E+02 0.  0.
          6    2    1    2  501    0 -0.65737400319E+02  0.14989492368E+02  0.56204975825E+03  0.58871117193E+03  0.16166268131E+03 0.  0.
         24    2    5    5    0    0 -0.14344387893E+02 -0.23826076072E+02  0.46328249121E+03  0.47070713336E+03  0.78492645356E+02 0.  0.
          5    1    5    5  501    0 -0.51393012426E+02  0.38815568440E+02  0.98767267040E+02  0.11800403857E+03  0.47000000000E+01 0. -1.
        -11    1    6    6    0    0 -0.30414646906E+02  0.17852518848E+02  0.14099520472E+03  0.14533895187E+03  0.00000000000E+00 0.  1.
         12    1    6    6    0    0  0.16070259013E+02 -0.41678594920E+02  0.32228728648E+03  0.32536818149E+03  0.00000000000E+00 0. -1.
         -5    1    3    3    0  503  0.66188301222E+02  0.35376716061E+02 -0.13084639243E+02  0.76326280153E+02  0.47000000000E+01 0.  1.
         13    1    4    4    0    0 -0.38831504013E+02 -0.21554525198E+02 -0.32722223047E+02  0.55165452428E+02  0.00000000000E+00 0. -1.
        -14    1    4    4    0    0  0.38380603110E+02 -0.28811683232E+02 -0.75769087191E+02  0.89689120630E+02  0.00000000000E+00 0.  1.
</event>
<event>
12    1  0.8691829E-002  0.1972887E+03  0.7818608E-02  0.1152473E+00
         21   -1    0    0  503  502  0.00000000000E+00  0.00000000000E+00  0.25947196513E+02  0.25947196513E+02  0.00000000000E+00 0. -1.
         21   -1    0    0  501  503 -0.00000000000E+00 -0.00000000000E+00 -0.14855372740E+04  0.14855372740E+04  0.00000000000E+00 0. -1.
          6    2    1    2  501    0  0.41121010296E+01 -0.95560479527E+02 -0.73893716877E+03  0.76431417106E+03  0.17029180269E+03 0.  0.
         24    2    3    3    0    0 -0.16486177628E+01 -0.12241522275E+03 -0.70753960890E+03  0.72233489187E+03  0.78531478762E+02 0.  0.
         -6    2    1    2    0  502 -0.41121010296E+01  0.95560479527E+02 -0.72065290873E+03  0.74717029947E+03  0.17255180940E+03 0.  0.
        -24    2    5    5    0    0 -0.32238155007E+02  0.21479188121E+01 -0.45818973817E+03  0.46712389740E+03  0.84988158974E+02 0.  0.
          5    1    3    3  501    0  0.57607187925E+01  0.26854743226E+02 -0.31397559875E+02  0.41979279185E+02  0.47000000000E+01 0. -1.
        -11    1    4    4    0    0 -0.77460807116E+00  0.11500736216E+02 -0.54763153004E+02  0.55963111762E+02  0.00000000000E+00 0.  1.
         12    1    4    4    0    0 -0.87400969168E+00 -0.13391595897E+03 -0.65277645589E+03  0.66637178011E+03  0.00000000000E+00 0. -1.
         -5    1    5    5    0  502  0.28126053978E+02  0.93412560715E+02 -0.26246317056E+03  0.28004640207E+03  0.47000000000E+01 0.  1.
         11    1    6    6    0    0 -0.82493982974E+01  0.77153469295E+01 -0.35817564152E+01  0.11849393636E+02  0.00000000000E+00 0. -1.
        -12    1    6    6    0    0 -0.23988756710E+02 -0.55674281174E+01 -0.45460798175E+03  0.45527450376E+03  0.00000000000E+00 0.  1.
</event>
<event>
12    1  0.8691829E-002  0.2085268E+03  0.7818608E-02  0.1143217E+00
         21   -1    0    0  503  502  0.00000000000E+00  0.00000000000E+00  0.11561337528E+03  0.11561337528E+03  0.00000000000E+00 0.  1.
         21   -1    0    0  501  503 -0.00000000000E+00 -0.00000000000E+00 -0.45090659018E+03  0.45090659018E+03  0.00000000000E+00 0.  1.
          6    2    1    2  501    0 -0.69142243752E+02  0.90114164982E+02 -0.49815873383E+02  0.21439458712E+03  0.17487768624E+03 0.  0.
         24    2    3    3    0    0 -0.47808924559E+01  0.42700449839E+02  0.35072106969E+02  0.97696244662E+02  0.80425855200E+02 0.  0.
         -6    2    1    2    0  502  0.69142243752E+02 -0.90114164982E+02 -0.28547734152E+03  0.35212537834E+03  0.17202836089E+03 0.  0.
        -24    2    5    5    0    0  0.33914148862E+02  0.23422668746E+02 -0.12747050757E+03  0.15433791449E+03  0.76633352038E+02 0.  0.
          5    1    3    3  501    0 -0.64361351296E+02  0.47413715142E+02 -0.84887980352E+02  0.11669834246E+03  0.47000000000E+01 0. -1.
        -13    1    4    4    0    0 -0.74272571488E+01 -0.16268483236E+02  0.34277839353E+02  0.38662617168E+02  0.00000000000E+00 0.  1.
         14    1    4    4    0    0  0.26463646929E+01  0.58968933075E+02  0.79426761611E+00  0.59033627494E+02  0.00000000000E+00 0. -1.
         -5    1    5    5    0  502  0.35228094890E+02 -0.11353683373E+03 -0.15800683395E+03  0.19778746385E+03  0.47000000000E+01 0.  1.
         11    1    6    6    0    0 -0.71188925076E+01  0.12727609678E+02  0.48660712691E+01  0.15373656958E+02  0.00000000000E+00 0. -1.
        -12    1    6    6    0    0  0.41033041370E+02  0.10695059068E+02 -0.13233657884E+03  0.13896425753E+03  0.00000000000E+00 0.  1.
</event>
<event>
12    1  0.8691829E-002  0.2012249E+03  0.7818608E-02  0.1148903E+00
         21   -1    0    0  503  502  0.00000000000E+00  0.00000000000E+00  0.41632784807E+03  0.41632784807E+03  0.00000000000E+00 0.  1.
         21   -1    0    0  501  503 -0.00000000000E+00 -0.00000000000E+00 -0.98556236783E+02  0.98556236783E+02  0.00000000000E+00 0. -1.
          6    2    1    2  501    0  0.27617665616E+02 -0.10179985563E+03  0.19275742425E+03  0.27798746405E+03  0.17028111905E+03 0.  0.
         24    2    3    3    0    0  0.39429576470E+02 -0.15383972776E+01  0.13422277636E+03  0.16119587072E+03  0.80070574347E+02 0.  0.
         -6    2    1    2    0  502 -0.27617665616E+02  0.10179985563E+03  0.12501418704E+03  0.23689662080E+03  0.17136369489E+03 0.  0.
        -24    2    5    5    0    0  0.51422665324E+02  0.51187427708E+02  0.70807363071E+02  0.12840947161E+03  0.78809050680E+02 0.  0.
          5    1    3    3  501    0 -0.11811910854E+02 -0.10026145835E+03  0.58534647883E+02  0.11679159333E+03  0.47000000000E+01 0. -1.
        -13    1    4    4    0    0 -0.44765716863E+01  0.61276290434E+01  0.11039587559E+03  0.11065639105E+03  0.00000000000E+00 0.  1.
         14    1    4    4    0    0  0.43906148157E+02 -0.76660263209E+01  0.23826900772E+02  0.50539479676E+02  0.00000000000E+00 0. -1.
         -5    1    5    5    0  502 -0.79040330940E+02  0.50612427922E+02  0.54206823964E+02  0.10848714919E+03  0.47000000000E+01 0.  1.
         13    1    6    6    0    0 -0.66368914093E+01  0.48448827925E+02  0.29630355995E+02  0.57177751366E+02  0.00000000000E+00 0. -1.
        -14    1    6    6    0    0  0.58059556733E+02  0.27385997827E+01  0.41177007077E+02  0.71231720242E+02  0.00000000000E+00 0.  1.
</event>
<event>
12    1  0.8691829E-002  0.1880031E+03  0.7818608E-02  0.1160979E+00
         21   -1    0    0  503  502  0.00000000000E+00  0.00000000000E+00  0.13937726695E+04  0.13937726695E+04  0.00000000000E+00 0.  1.
         21   -1    0    0  501  503 -0.00000000000E+00 -0.00000000000E+00 -0.24952921871E+02  0.24952921871E+02  0.00000000000E+00 0.  1.
          6    2    1    2  501    0 -0.61732669405E+01  0.69207018176E+02  0.68132438227E+03  0.70678715031E+03  0.17469241936E+03 0.  0.
         24    2    3    3    0    0  0.65851969528E+01 -0.15050385208E+02  0.50001984389E+03  0.50639874231E+03  0.78421699875E+02 0.  0.
         -6    2    1    2    0  502  0.61732669405E+01 -0.69207018176E+02  0.68749536537E+03  0.71193844107E+03  0.17140229251E+03 0.  0.
        -24    2    5    5    0    0 -0.47360141628E+02 -0.46614188011E+01  0.46268041545E+03  0.47194716636E+03  0.79976553748E+02 0.  0.
          5    1    3    3  501    0 -0.12758463893E+02  0.84257403384E+02  0.18130453838E+03  0.20038840800E+03  0.47000000000E+01 0. -1.
        -13    1    4    4    0    0 -0.26219927532E+02 -0.21786209597E+02  0.11556794634E+03  0.12049096958E+03  0.00000000000E+00 0.  1.
         14    1    4    4    0    0  0.32805124485E+02  0.67358243890E+01  0.38445189755E+03  0.38590777273E+03  0.00000000000E+00 0. -1.
         -5    1    5    5    0  502  0.53533408568E+02 -0.64545599375E+02  0.22481494992E+03  0.23999127471E+03  0.47000000000E+01 0.  1.
         13    1    6    6    0    0 -0.42952372269E+02 -0.33841369589E+02  0.19114688343E+03  0.19881467658E+03  0.00000000000E+00 0. -1.
        -14    1    6    6    0    0 -0.44077693591E+01  0.29179950788E+02  0.27153353203E+03  0.27313248978E+03  0.00000000000E+00 0.  1.
</event>
<event>
12    1  0.8691829E-002  0.3217508E+03  0.7818608E-02  0.1074915E+00
         21   -1    0    0  503  502  0.00000000000E+00  0.00000000000E+00  0.71572028567E+02  0.71572028567E+02  0.00000000000E+00 0. -1.
         21   -1    0    0  501  503 -0.00000000000E+00 -0.00000000000E+00 -0.15211118203E+04  0.15211118203E+04  0.00000000000E+00 0.  1.
          6    2    1    2  501    0 -0.13162166880E+03  0.23897323509E+03 -0.90374548336E+03  0.95911063854E+03  0.16942504976E+03 0.  0.
         24    2    3    3    0    0 -0.96575235924E+02  0.25205478136E+03 -0.83178762307E+03  0.87787392906E+03  0.77029841169E+02 0.  0.
         -6    2    1    2    0  502  0.13162166880E+03 -0.23897323509E+03 -0.54579430835E+03  0.63357321030E+03  0.17056117669E+03 0.  0.
        -24    2    5    5    0    0  0.80511438884E+02 -0.86986775635E+02 -0.15764712184E+03  0.21358217723E+03  0.81950841853E+02 0.  0.
          5    1    3    3  501    0 -0.35046432875E+02 -0.13081546272E+02 -0.71957860293E+02  0.81236709485E+02  0.47000000000E+01 0. -1.
        -11    1    4    4    0    0 -0.27733448878E+02  0.17425381798E+03 -0.54492966415E+03  0.57278431904E+03  0.00000000000E+00 0.  1.
         12    1    4    4    0    0 -0.68841787046E+02  0.77800963385E+02 -0.28685795891E+03  0.30508961002E+03  0.00000000000E+00 0. -1.
         -5    1    5    5    0  502  0.51110229914E+02 -0.15198645946E+03 -0.38814718651E+03  0.41999103307E+03  0.47000000000E+01 0.  1.
         11    1    6    6    0    0  0.75751378632E-01 -0.37325463524E+02 -0.10654026136E+02  0.38816288314E+02  0.00000000000E+00 0. -1.
        -12    1    6    6    0    0  0.80435687506E+02 -0.49661312111E+02 -0.14699309570E+03  0.17476588892E+03  0.00000000000E+00 0.  1.
</event>
<event>
12    1  0.8691829E-002  0.2679157E+03  0.7818608E-02  0.1102710E+00
         21   -1    0    0  503  502  0.00000000000E+00  0.00000000000E+00  0.16230448330E+04  0.16230448330E+04  0.00000000000E+00 0. -1.
         21   -1    0    0  501  503 -0.00000000000E+00 -0.00000000000E+00 -0.63371569659E+02  0.63371569659E+02  0.00000000000E+00 0. -1.
          6    2    1    2  501    0  0.19857645087E+03  0.21646013614E+02  0.31155522320E+03  0.40986736371E+03  0.17613472680E+03 0.  0.
         24    2    3    3    0    0  0.27932004895E+02 -0.16781801947E+02  0.14166912545E+03  0.16598296454E+03  0.80114777890E+02 0.  0.
         -6    2    1    2    0  502 -0.19857645087E+03 -0.21646013614E+02  0.12481180402E+04  0.12765490390E+04  0.17854313195E+03 0.  0.
        -24    2    5    5    0    0 -0.10746412817E+03  0.50584020658E+02  0.83692502793E+03  0.84920793808E+03  0.81260923792E+02 0.  0.
          5    1    3    3  501    0  0.17064444598E+03  0.38427815561E+02  0.16988609775E+03  0.24388439917E+03  0.47000000000E+01 0. -1.
        -11    1    4    4    0    0  0.46620639384E+02 -0.36565211385E+02  0.98874299142E+02  0.11526762655E+03  0.00000000000E+00 0.  1.
         12    1    4    4    0    0 -0.18688634489E+02  0.19783409438E+02  0.42794826312E+02  0.50715337987E+02  0.00000000000E+00 0. -1.
         -5    1    5    5    0  502 -0.91112322706E+02 -0.72230034272E+02  0.41119301225E+03  0.42734110090E+03  0.47000000000E+01 0.  1.
         11    1    6    6    0    0  0.11167984091E+01  0.23550464013E+01  0.26785280595E+03  0.26786548702E+03  0.00000000000E+00 0. -1.
        -12    1    6    6    0    0 -0.10858092658E+03  0.48228974257E+02  0.56907222198E+03  0.58134245106E+03  0.00000000000E+00 0.  1.
</event>
<event>
12    1  0.8691829E-002  0.1755355E+03  0.7818608E-02  0.1172254E+00
         21   -1    0    0  503  502  0.00000000000E+00  0.00000000000E+00  0.73184238951E+03  0.73184238951E+03  0.00000000000E+00 0.  1.
         21   -1    0    0  501  503 -0.00000000000E+00 -0.00000000000E+00 -0.54981110271E+02  0.54981110271E+02  0.00000000000E+00 0.  1.
          6    2    1    2  501    0  0.19497676455E+02  0.29836836216E+02  0.14778754631E+03  0.22946430007E+03  0.17187876535E+03 0.  0.
         24    2    3    3    0    0  0.50007394187E+02 -0.35479381346E+02  0.10619600340E+03  0.14610365231E+03  0.79430221625E+02 0.  0.
         -6    2    1    2    0  502 -0.19497676455E+02 -0.29836836216E+02  0.52907373293E+03  0.55735919971E+03  0.17163876731E+03 0.  0.
        -24    2    5    5    0    0  0.53189486880E+02 -0.47982912810E+01  0.32059511967E+03  0.33510759762E+03  0.81631648962E+02 0.  0.
          5    1    3    3  501    0 -0.30509717732E+02  0.65316217562E+02  0.41591542910E+02  0.83360647756E+02  0.47000000000E+01 0. -1.
        -13    1    4    4    0    0  0.24842024013E+02  0.24740953505E+02  0.35900312026E+02  0.50180407940E+02  0.00000000000E+00 0.  1.
         14    1    4    4    0    0  0.25165370174E+02 -0.60220334851E+02  0.70295691372E+02  0.95923244373E+02  0.00000000000E+00 0. -1.
         -5    1    5    5    0  502 -0.72687163335E+02 -0.25038544935E+02  0.20847861326E+03  0.22225160209E+03  0.47000000000E+01 0.  1.
         13    1    6    6    0    0  0.47344487759E+02 -0.22351691554E+02  0.92702753720E+02  0.10646548353E+03  0.00000000000E+00 0. -1.
        -14    1    6    6    0    0  0.58449991213E+01  0.17553400273E+02  0.22789236596E+03  0.22864211409E+03  0.00000000000E+00 0.  1.
</event>
<event>
12    1  0.8691829E-002  0.1970874E+03  0.7818608E-02  0.1152671E+00
         21   -1    0    0  501  502  0.00000000000E+00  0.00000000000E+00  0.83178808316E+03  0.83178808316E+03  0.00000000000E+00 0.  1.
         21   -1    0    0  502  503 -0.00000000000E+00 -0.00000000000E+00 -0.96005029921E+02  0.96005029921E+02  0.00000000000E+00 0. -1.
         -6    2    1    2    0  503 -0.94824465201E+02  0.35738393322E+01  0.32841778348E+02  0.19774524404E+03  0.17035300880E+03 0.  0.
        -24    2    3    3    0    0 -0.37503007801E+02  0.45481365425E+02 -0.29289478301E+02  0.10327634294E+03  0.79580772035E+02 0.  0.
          6    2    1    2  501    0  0.94824465201E+02 -0.35738393322E+01  0.70294127489E+03  0.73004786904E+03  0.17273969902E+03 0.  0.
         24    2    5    5    0    0  0.10244892199E+03  0.58413455824E+02  0.51091986789E+03  0.52807047464E+03  0.62541197166E+02 0.  0.
          5    1    5    5  501    0 -0.76244567925E+01 -0.61987295156E+02  0.19202140700E+03  0.20197739440E+03  0.47000000000E+01 0. -1.
        -13    1    6    6    0    0  0.24382036853E+02  0.39350288944E+02  0.11294921711E+03  0.12206741828E+03  0.00000000000E+00 0.  1.
         14    1    6    6    0    0  0.78066885140E+02  0.19063166880E+02  0.39797065079E+03  0.40600305636E+03  0.00000000000E+00 0. -1.
         -5    1    3    3    0  503 -0.57321457400E+02 -0.41907526092E+02  0.62131256649E+02  0.94468901096E+02  0.47000000000E+01 0.  1.
         13    1    4    4    0    0 -0.29713798624E+02 -0.11573589321E+02  0.10168680763E+02  0.33470283341E+02  0.00000000000E+00 0. -1.
        -14    1    4    4    0    0 -0.77892091770E+01  0.57054954745E+02 -0.39458159064E+02  0.69806059603E+02  0.00000000000E+00 0.  1.
</event>
<event>
12    1  0.8691829E-002  0.2623826E+03  0.7818608E-02  0.1105827E+00
         21   -1    0    0  501  502  0.00000000000E+00  0.00000000000E+00  0.41214030067E+03  0.41214030067E+03  0.00000000000E+00 0. -1.
         21   -1    0    0  502  503 -0.00000000000E+00 -0.00000000000E+00 -0.17159837559E+03  0.17159837559E+03  0.00000000000E+00 0.  1.
         -6    2    1    2    0  503  0.16693846733E+03 -0.10503773496E+03  0.17033075106E+03  0.31282133128E+03  0.17304115957E+03 0.  0.
        -24    2    3    3    0    0  0.15251844009E+03 -0.19374443881E+02  0.93185787517E+02  0.19654763682E+03  0.79436382717E+02 0.  0.
          6    2    1    2  501    0 -0.16693846733E+03  0.10503773496E+03  0.70211174024E+02  0.27091734499E+03  0.17194540185E+03 0.  0.
         24    2    5    5    0    0 -0.13630307806E+03  0.54742682692E+02 -0.14453894919E+02  0.16767789876E+03  0.79571805671E+02 0.  0.
          5    1    5    5  501    0 -0.30635389268E+02  0.50295052265E+02  0.84665068943E+02  0.10323944623E+03  0.47000000000E+01 0. -1.
        -13    1    6    6    0    0 -0.16933822262E+02  0.37163512873E+02 -0.22727595553E+02  0.46737828630E+02  0.00000000000E+00 0.  1.
         14    1    6    6    0    0 -0.11936925580E+03  0.17579169819E+02  0.82737006342E+01  0.12094007013E+03  0.00000000000E+00 0. -1.
         -5    1    3    3    0  503  0.14420027236E+02 -0.85663291075E+02  0.77144963545E+02  0.11627369446E+03  0.47000000000E+01 0.  1.
         13    1    4    4    0    0  0.13501598684E+03 -0.42402446611E+02  0.89364762211E+02  0.16737187609E+03  0.00000000000E+00 0. -1.
        -14    1    4    4    0    0  0.17502453255E+02  0.23028002730E+02  0.38210253055E+01  0.29175760728E+02  0.00000000000E+00 0.  1.
</event>
<event>
12    1  0.8691829E-002  0.2102945E+03  0.7818608E-02  0.1141566E+00
         21   -1    0    0  503  502  0.00000000000E+00  0.00000000000E+00  0.58485997635E+02  0.58485997635E+02  0.00000000000E+00 0.  1.
         21   -1    0    0  501  503 -0.00000000000E+00 -0.00000000000E+00 -0.95704468170E+03  0.95704468170E+03  0.00000000000E+00 0.  1.
          6    2    1    2  501    0 -0.10770439841E+03 -0.54129811895E+02 -0.68533734582E+03  0.71687589449E+03  0.17231800998E+03 0.  0.
         24    2    3    3    0    0  0.16014834862E+01  0.26822147388E+01 -0.18213355928E+03  0.19879141975E+03  0.79596709256E+02 0.  0.
         -6    2    1    2    0  502  0.10770439841E+03  0.54129811895E+02 -0.21322133825E+03  0.29865478484E+03  0.17088319828E+03 0.  0.
        -24    2    5    5    0    0  0.10588185724E+02 -0.16565277096E+02 -0.47587821899E+02  0.93994319409E+02  0.78637225319E+02 0.  0.
          5    1    3    3  501    0 -0.10930588189E+03 -0.56812026634E+02 -0.50320378653E+03  0.51808447474E+03  0.47000000000E+01 0. -1.
        -11    1    4    4    0    0  0.28611951451E+02 -0.25421110231E+02 -0.11452471898E+03  0.12075093320E+03  0.00000000000E+00 0.  1.
         12    1    4    4    0    0 -0.27010467965E+02  0.28103324970E+02 -0.67608840301E+02  0.78040486549E+02  0.00000000000E+00 0. -1.
         -5    1    5    5    0  502  0.97116212682E+02  0.70695088991E+02 -0.16563351635E+03  0.20466046543E+03  0.47000000000E+01 0.  1.
         11    1    6    6    0    0 -0.26479444455E+02  0.37899562377E+01  0.42610428191E+01  0.27086550774E+02  0.00000000000E+00 0. -1.
        -12    1    6    6    0    0  0.37067630179E+02 -0.20355233333E+02 -0.51848864718E+02  0.66907768635E+02  0.00000000000E+00 0.  1.
</event>
<event>
12    1  0.8691829E-002  0.2062590E+03  0.7818608E-02  0.1144879E+00
         21   -1    0    0  501  502  0.00000000000E+00  0.00000000000E+00  0.56063924827E+03  0.56063924827E+03  0.00000000000E+00 0.  1.
         21   -1    0    0  502  503 -0.00000000000E+00 -0.00000000000E+00 -0.10336353579E+03  0.10336353579E+03  0.00000000000E+00 0.  1.
         -6    2    1    2    0  503 -0.11259186945E+03  0.19759140115E+02  0.40096038631E+03  0.45019399829E+03  0.16981770233E+03 0.  0.
        -24    2    3    3    0    0 -0.70143469034E+02  0.73654004328E+02  0.20392499552E+03  0.24150389716E+03  0.79960677489E+02 0.  0.
          6    2    1    2  501    0  0.11259186945E+03 -0.19759140115E+02  0.56315326170E+02  0.21380878577E+03  0.17168409428E+03 0.  0.
         24    2    5    5    0    0  0.12830494871E+02 -0.27511886342E+02 -0.18633809624E+02  0.88701232490E+02  0.81235240478E+02 0.  0.
          5    1    5    5  501    0  0.99761374577E+02  0.77527462264E+01  0.74949135794E+02  0.12510755328E+03  0.47000000000E+01 0. -1.
        -13    1    6    6    0    0  0.32315539818E+02  0.14558434302E+02 -0.22811547547E+02  0.42149837776E+02  0.00000000000E+00 0.  1.
         14    1    6    6    0    0 -0.19485044947E+02 -0.42070320644E+02  0.41777379228E+01  0.46551394714E+02  0.00000000000E+00 0. -1.
         -5    1    3    3    0  503 -0.42448400414E+02 -0.53894864213E+02  0.19703539080E+03  0.20869010114E+03  0.47000000000E+01 0.  1.
         11    1    4    4    0    0 -0.53458953674E+02  0.17902311556E+02  0.44605991411E+02  0.71889129614E+02  0.00000000000E+00 0. -1.
        -12    1    4    4    0    0 -0.16684515360E+02  0.55751692772E+02  0.15931900411E+03  0.16961476754E+03  0.00000000000E+00 0.  1.
</event>
<event>
12    1  0.8691829E-002  0.1914074E+03  0.7818608E-02  0.1157276E+00
         21   -1    0    0  501  502  0.00000000000E+00  0.00000000000E+00  0.23651132514E+03  0.23651132514E+03  0.00000000000E+00 0. -1.
         21   -1    0    0  502  503 -0.00000000000E+00 -0.00000000000E+00 -0.17393746191E+03  0.17393746191E+03  0.00000000000E+00 0. -1.
         -6    2    1    2    0  503  0.83757156513E+02 -0.99986635488E+01  0.99650380319E+02  0.21548348961E+03  0.17142841496E+03 0.  0.
        -24    2    3    3    0    0  0.70404877650E+02  0.35227530327E+02  0.79421254795E+01  0.11225468564E+03  0.79625444432E+02 0.  0.
          6    2    1    2  501    0 -0.83757156513E+02  0.99986635488E+01 -0.37076517086E+02  0.19496529744E+03  0.17181840573E+03 0.  0.
         24    2    5    5    0    0 -0.80420854445E+02 -0.46975975327E+02 -0.44052989120E+02  0.13727646361E+03  0.90718826731E+02 0.  0.
          5    1    5    5  501    0 -0.33363020680E+01  0.56974638876E+02  0.69764720337E+01  0.57688833829E+02  0.47000000000E+01 0. -1.
        -13    1    6    6    0    0  0.20122473029E+02 -0.12155351679E+02 -0.58707655936E+01  0.24230814759E+02  0.00000000000E+00 0.  1.
         14    1    6    6    0    0 -0.10054332747E+03 -0.34820623648E+02 -0.38182223526E+02  0.11304564885E+03  0.00000000000E+00 0. -1.
         -5    1    3    3    0  503  0.13352278863E+02 -0.45226193876E+02  0.91708254839E+02  0.10322880397E+03  0.47000000000E+01 0.  1.
         13    1    4    4    0    0  0.11083735272E+02 -0.11436975784E+02  0.29704036384E+02  0.33704352541E+02  0.00000000000E+00 0. -1.
        -14    1    4    4    0    0  0.59321142378E+02  0.46664506111E+02 -0.21761910905E+02  0.78550333098E+02  0.00000000000E+00 0.  1.
</event>
<event>
12    1  0.8691829E-002  0.1906583E+03  0.7818608E-02  0.1159199E+00
         21   -1    0    0  503  502  0.00000000000E+00  0.00000000000E+00  0.20443395527E+03  0.20443395527E+03  0.00000000000E+00 0.  1.
         21   -1    0    0  501  503 -0.00000000000E+00 -0.00000000000E+00 -0.23933048884E+03  0.23933048884E+03  0.00000000000E+00 0.  1.
          6    2    1    2  501    0  0.47998766673E+02 -0.46532429380E+02 -0.13495649432E+03  0.23358905378E+03  0.17855375129E+03 0.  0.
         24    2    3    3    0    0  0.24146486495E+02 -0.93856076505E+02 -0.12765431772E+03  0.17988737196E+03  0.81681245408E+02 0.  0.
         -6    2    1    2    0  502 -0.47998766673E+02  0.46532429380E+02  0.10005996075E+03  0.21017539033E+03  0.17231526447E+03 0.  0.
        -24    2    5    5    0    0 -0.47693356826E+02 -0.36117369301E+02  0.70013841476E+02  0.12210756544E+03  0.80182285384E+02 0.  0.
          5    1    3    3  501    0  0.23852280179E+02  0.47323647125E+02 -0.73021765956E+01  0.53701681817E+02  0.47000000000E+01 0. -1.
        -13    1    4    4    0    0  0.70026541989E+01  0.10324727036E+02 -0.42355010085E+02  0.44154094187E+02  0.00000000000E+00 0.  1.
         14    1    4    4    0    0  0.17143832296E+02 -0.10418080354E+03 -0.85299307638E+02  0.13573327778E+03  0.00000000000E+00 0. -1.
         -5    1    5    5    0  502 -0.30540984697E+00  0.82649798681E+02  0.30046119273E+02  0.88067824888E+02  0.47000000000E+01 0.  1.
         11    1    6    6    0    0  0.16361776443E+02 -0.24740708354E+02  0.49020985841E+01  0.30063947658E+02  0.00000000000E+00 0. -1.
        -12    1    6    6    0    0 -0.64055133269E+02 -0.11376660946E+02  0.65111742892E+02  0.92043617785E+02  0.00000000000E+00 0.  1.
</event>
<event>
12    1  0.8691829E-002  0.2701191E+03  0.7818608E-02  0.1101418E+00
         21   -1    0    0  501  502  0.00000000000E+00  0.00000000000E+00  0.28922020582E+03  0.28922020582E+03  0.00000000000E+00 0.  1.
         21   -1    0    0  502  503 -0.00000000000E+00 -0.00000000000E+00 -0.53735023822E+03  0.53735023822E+03  0.00000000000E+00 0.  1.
         -6    2    1    2    0  503 -0.46384658758E+02 -0.20236344529E+03 -0.42563990300E+03  0.50334592612E+03  0.17054411088E+03 0.  0.
        -24    2    3    3    0    0 -0.15368640314E+02 -0.12718413758E+03 -0.14042016534E+03  0.20672106125E+03  0.81263610384E+02 0.  0.
          6    2    1    2  501    0  0.46384658758E+02  0.20236344529E+03  0.17750987060E+03  0.32322451792E+03  0.17280577035E+03 0.  0.
         24    2    5    5    0    0  0.13828728564E+02  0.20217886427E+03  0.10039988136E+03  0.23939157033E+03  0.78489877545E+02 0.  0.
          5    1    5    5  501    0  0.32555930193E+02  0.18458102117E+00  0.77109989240E+02  0.83832947589E+02  0.47000000000E+01 0. -1.
        -13    1    6    6    0    0  0.23429813658E+02  0.20295062182E+03  0.10382702996E+03  0.22916798035E+03  0.00000000000E+00 0.  1.
         14    1    6    6    0    0 -0.96010850940E+01 -0.77175754678E+00 -0.34271486012E+01  0.10223589987E+02  0.00000000000E+00 0. -1.
         -5    1    3    3    0  503 -0.31016018444E+02 -0.75179307711E+02 -0.28521973765E+03  0.29662486486E+03  0.47000000000E+01 0.  1.
         13    1    4    4    0    0 -0.58798322347E+01  0.61755737016E+01 -0.36231591690E+02  0.37221477322E+02  0.00000000000E+00 0. -1.
        -14    1    4    4    0    0 -0.94888080788E+01 -0.13335971129E+03 -0.10418857365E+03  0.16949958393E+03  0.00000000000E+00 0.  1.
</event>
<event>
12    1  0.8691829E-002  0.2485037E+03  0.7818608E-02  0.1114265E+00
         21   -1    0    0  501  502  0.00000000000E+00  0.00000000000E+00  0.69703468262E+02  0.69703468262E+02  0.00000000000E+00 0. -1.
         21   -1    0    0  502  503 -0.00000000000E+00 -0.00000000000E+00 -0.88583845912E+03  0.88583845912E+03  0.00000000000E+00 0. -1.
         -6    2    1    2    0  503 -0.17544400064E+03 -0.39104407890E+02 -0.41381623520E+03  0.48269862153E+03  0.17159350406E+03 0.  0.
        -24    2    3    3    0    0 -0.13382765442E+03 -0.18542616432E+02 -0.16431036505E+03  0.22886801506E+03  0.84433420778E+02 0.  0.
          6    2    1    2  501    0  0.17544400064E+03  0.39104407890E+02 -0.40231875566E+03  0.47284330585E+03  0.17149536045E+03 0.  0.
         24    2    5    5    0    0  0.15836447217E+03  0.75896282368E+02 -0.24577568109E+03  0.31106204453E+03  0.74258726142E+02 0.  0.
          5    1    5    5  501    0  0.17079528471E+02 -0.36791874478E+02 -0.15654307457E+03  0.16178126132E+03  0.47000000000E+01 0.  1.
        -13    1    6    6    0    0  0.76170708209E+02  0.68423787858E+02 -0.97618902786E+02  0.14146816502E+03  0.00000000000E+00 0.  1.
         14    1    6    6    0    0  0.82193763956E+02  0.74724945104E+01 -0.14815677831E+03  0.16959387951E+03  0.00000000000E+00 0. -1.
         -5    1    3    3    0  503 -0.41616346215E+02 -0.20561791457E+02 -0.24950587015E+03  0.25383060647E+03  0.47000000000E+01 0.  1.
         11    1    4    4    0    0 -0.62324401071E+02  0.26032998694E+02 -0.10848487694E+03  0.12779286566E+03  0.00000000000E+00 0. -1.
        -12    1    4    4    0    0 -0.71503253351E+02 -0.44575615127E+02 -0.55825488111E+02  0.10107514940E+03  0.00000000000E+00 0.  1.
</event>
<event>
12    1  0.8691829E-002  0.2267628E+03  0.7818608E-02  0.1128990E+00
         21   -1    0    0  501  502  0.00000000000E+00  0.00000000000E+00  0.14268754195E+04  0.14268754195E+04  0.00000000000E+00 0. -1.
         21   -1    0    0  502  503 -0.00000000000E+00 -0.00000000000E+00 -0.41673752653E+02  0.41673752653E+02  0.00000000000E+00 0. -1.
         -6    2    1    2    0  503  0.33678356300E+02  0.14424217743E+03  0.42186326255E+03  0.47894671977E+03  0.17170122497E+03 0.  0.
        -24    2    3    3    0    0  0.67739402421E+02  0.84802914467E+02  0.36798202407E+03  0.39166293717E+03  0.78796734532E+02 0.  0.
          6    2    1    2  501    0 -0.33678356300E+02 -0.14424217743E+03  0.96333840426E+03  0.98960245235E+03  0.17132453161E+03 0.  0.
         24    2    5    5    0    0  0.41852958591E+02 -0.10432173196E+03  0.71518500000E+03  0.72711278866E+03  0.67592376084E+02 0.  0.
          5    1    5    5  501    0 -0.75531314892E+02 -0.39920445471E+02  0.24815340426E+03  0.26248966369E+03  0.47000000000E+01 0. -1.
        -13    1    6    6    0    0  0.40511067180E+02 -0.88415181179E+02  0.40485063938E+03  0.41636814363E+03  0.00000000000E+00 0.  1.
         14    1    6    6    0    0  0.13418914115E+01 -0.15906550783E+02  0.31033436062E+03  0.31074464503E+03  0.00000000000E+00 0. -1.
         -5    1    3    3    0  503 -0.34061046120E+02  0.59439262967E+02  0.53881238479E+02  0.87283782600E+02  0.47000000000E+01 0.  1.
         11    1    4    4    0    0  0.53359077880E+02  0.14477213390E+02  0.22475436698E+03  0.23145476097E+03  0.00000000000E+00 0. -1.
        -12    1    4    4    0    0  0.14380324540E+02  0.70325701077E+02  0.14322765709E+03  0.16020817620E+03  0.00000000000E+00 0.  1.
</event>
<event>
12    1  0.8691829E-002  0.1824611E+03  0.7818608E-02  0.1165770E+00
         21   -1    0    0  503  502  0.00000000000E+00  0.00000000000E+00  0.12348790622E+03  0.12348790622E+03  0.00000000000E+00 0.  1.
         21   -1    0    0  501  503 -0.00000000000E+00 -0.00000000000E+00 -0.28796775348E+03  0.28796775348E+03  0.00000000000E+00 0.  1.
          6    2    1    2  501    0  0.56001990396E+02 -0.19820453351E+01 -0.13670109864E+03  0.22689203994E+03  0.17219946571E+03 0.  0.
         24    2    3    3    0    0  0.44759261590E+02 -0.79743594768E+01 -0.57428853080E+01  0.95231679859E+02  0.83481196745E+02 0.  0.
         -6    2    1    2    0  502 -0.56001990396E+02  0.19820453351E+01 -0.27778748621E+02  0.18456361976E+03  0.17364308058E+03 0.  0.
        -24    2    5    5    0    0 -0.46374547928E+02  0.55442199654E+02 -0.59124898379E+02  0.12167207142E+03  0.77999379209E+02 0.  0.
          5    1    3    3  501    0  0.11242728806E+02  0.59923141418E+01 -0.13095821333E+03  0.13166036009E+03  0.47000000000E+01 0. -1.
        -13    1    4    4    0    0  0.43512588285E+02 -0.13102612772E+02 -0.40018783998E+02  0.60551852766E+02  0.00000000000E+00 0.  1.
         14    1    4    4    0    0  0.12466733048E+01  0.51282532948E+01  0.34275898690E+02  0.34679827093E+02  0.00000000000E+00 0. -1.
         -5    1    5    5    0  502 -0.96274424672E+01 -0.53460154319E+02  0.31346149758E+02  0.62891548342E+02  0.47000000000E+01 0.  1.
         13    1    6    6    0    0 -0.42649974892E+02  0.13119552167E+02 -0.64936538816E+02  0.78790209295E+02  0.00000000000E+00 0. -1.
        -14    1    6    6    0    0 -0.37245730363E+01  0.42322647487E+02  0.58116404373E+01  0.42881862123E+02  0.00000000000E+00 0.  1.
</event>
<event>
12    1  0.8691829E-002  0.2272711E+03  0.7818608E-02  0.1129201E+00
         21   -1    0    0  503  502  0.00000000000E+00  0.00000000000E+00  0.41751243623E+03  0.41751243623E+03  0.00000000000E+00 0. -1.
         21   -1    0    0  501  503 -0.00000000000E+00 -0.00000000000E+00 -0.16045451661E+03  0.16045451661E+03  0.00000000000E+00 0. -1.
          6    2    1    2  501    0 -0.91331778164E+02  0.11514892235E+03 -0.14000983164E+02  0.22423670147E+03  0.16877589501E+03 0.  0.
         24    2    3    3    0    0 -0.10878814439E+03  0.13885764478E+03 -0.14318632762E+02  0.19442027743E+03  0.80485496574E+02 0.  0.
         -6    2    1    2    0  502  0.91331778164E+02 -0.11514892235E+03  0.27105890279E+03  0.35373025137E+03  0.17335337877E+03 0.  0.
        -24    2    5    5    0    0  0.18823967182E+02  0.70844825441E+01  0.72727571274E+02  0.10968969124E+03  0.79611538789E+02 0.  0.
          5    1    3    3  501    0  0.17456366230E+02 -0.23708722430E+02  0.31764959754E+00  0.29816424039E+02  0.47000000000E+01 0. -1.
        -13    1    4    4    0    0 -0.21200827468E+02  0.13677266422E+02  0.26185652520E+02  0.36362495789E+02  0.00000000000E+00 0.  1.
         14    1    4    4    0    0 -0.87587316926E+02  0.12518037836E+03 -0.40504285282E+02  0.15805778164E+03  0.00000000000E+00 0. -1.
         -5    1    5    5    0  502  0.72507810982E+02 -0.12223340489E+03  0.19833133151E+03  0.24404056012E+03  0.47000000000E+01 0.  1.
         11    1    6    6    0    0  0.37240682588E+02  0.87719518719E+01  0.80884461560E+02  0.89476878025E+02  0.00000000000E+00 0. -1.
        -12    1    6    6    0    0 -0.18416715406E+02 -0.16874693277E+01 -0.81568902863E+01  0.20212813219E+02  0.00000000000E+00 0.  1.
</event>
<event>
12    1  0.8691829E-002  0.2161214E+03  0.7818608E-02  0.1136842E+00
         21   -1    0    0  501  502  0.00000000000E+00  0.00000000000E+00  0.32087795942E+03  0.32087795942E+03  0.00000000000E+00 0.  1.
         21   -1    0    0  502  503 -0.00000000000E+00 -0.00000000000E+00 -0.18113276901E+03  0.18113276901E+03  0.00000000000E+00 0.  1.
         -6    2    1    2    0  503 -0.10146955430E+03  0.83522711319E+02 -0.41517909061E+02  0.22007320696E+03  0.17157029432E+03 0.  0.
        -24    2    3    3    0    0 -0.69030839463E+02 -0.22402708922E+01 -0.67347267263E+02  0.12469603420E+03  0.79013738856E+02 0.  0.
          6    2    1    2  501    0  0.10146955430E+03 -0.83522711319E+02  0.18126309947E+03  0.28193752148E+03  0.17134859507E+03 0.  0.
         24    2    5    5    0    0  0.32130058566E+02  0.26922752220E+02  0.79249212727E+02  0.11630211109E+03  0.74084870766E+02 0.  0.
          5    1    5    5  501    0  0.69339495729E+02 -0.11044546354E+03  0.10201388675E+03  0.16563541038E+03  0.47000000000E+01 0. -1.
        -13    1    6    6    0    0  0.15822822646E+02 -0.12647253206E+02 -0.58181057431E+01  0.21075224426E+02  0.00000000000E+00 0.  1.
         14    1    6    6    0    0  0.16307235920E+02  0.39570005426E+02  0.85067318471E+02  0.95226886668E+02  0.00000000000E+00 0. -1.
         -5    1    3    3    0  503 -0.32438714832E+02  0.85762982211E+02  0.25829358202E+02  0.95377172755E+02  0.47000000000E+01 0.  1.
         11    1    4    4    0    0 -0.24776588774E+02 -0.39412463625E+02 -0.36689811224E+02  0.59273635690E+02  0.00000000000E+00 0. -1.
        -12    1    4    4    0    0 -0.44254250689E+02  0.37172192733E+02 -0.30657456039E+02  0.65422398515E+02  0.00000000000E+00 0.  1.
</event>
<event>
12    1  0.8691829E-002  0.2292302E+03  0.7818608E-02  0.1127451E+00
         21   -1    0    0  501  502  0.00000000000E+00  0.00000000000E+00  0.41779269397E+02  0.41779269397E+02  0.00000000000E+00 0. -1.
         21   -1    0    0  502  503 -0.00000000000E+00 -0.00000000000E+00 -0.12496299893E+04  0.12496299893E+04  0.00000000000E+00 0. -1.
         -6    2    1    2    0  503  0.10976944580E+03 -0.10113050508E+03 -0.61433577477E+03  0.65570946937E+03  0.17398205013E+03 0.  0.
        -24    2    3    3    0    0  0.95115386133E+02 -0.13948150050E+03 -0.51964211955E+03  0.55239190720E+03  0.81282600022E+02 0.  0.
          6    2    1    2  501    0 -0.10976944580E+03  0.10113050508E+03 -0.59351494515E+03  0.63569978935E+03  0.17198116690E+03 0.  0.
         24    2    5    5    0    0 -0.10416188949E+03  0.62251353755E+02 -0.57299951931E+03  0.59113516444E+03  0.79921231471E+02 0.  0.
          5    1    5    5  501    0 -0.56075563131E+01  0.38879151327E+02 -0.20515425842E+02  0.44564624908E+02  0.47000000000E+01 0. -1.
        -13    1    6    6    0    0 -0.91446945740E+02  0.80764754653E+02 -0.50471080825E+03  0.51924800379E+03  0.00000000000E+00 0.  1.
         14    1    6    6    0    0 -0.12714943749E+02 -0.18513400898E+02 -0.68288711066E+02  0.71887160651E+02  0.00000000000E+00 0. -1.
         -5    1    3    3    0  503  0.14654059670E+02  0.38350995416E+02 -0.94693655213E+02  0.10331756217E+03  0.47000000000E+01 0.  1.
         13    1    4    4    0    0  0.44538448717E+02 -0.12628297885E+03 -0.40034324815E+03  0.42214426503E+03  0.00000000000E+00 0. -1.
        -14    1    4    4    0    0  0.50576937416E+02 -0.13198521649E+02 -0.11929887141E+03  0.13024764217E+03  0.00000000000E+00 0.  1.
</event>
<event>
12    1  0.8691829E-002  0.1818556E+03  0.7818608E-02  0.1166302E+00
         21   -1    0    0  503  502  0.00000000000E+00  0.00000000000E+00  0.36583628173E+03  0.36583628173E+03  0.00000000000E+00 0.  1.
         21   -1    0    0  501  503 -0.00000000000E+00 -0.00000000000E+00 -0.90165745005E+02  0.90165745005E+02  0.00000000000E+00 0.  1.
          6    2    1    2  501    0 -0.13813604536E+02  0.57915173391E+02  0.12404123146E+03  0.22013107364E+03  0.17183270789E+03 0.  0.
         24    2    3    3    0    0  0.32996428758E+02  0.93867486018E+02  0.57608345197E+02  0.13114137549E+03  0.63083038023E+02 0.  0.
         -6    2    1    2    0  502  0.13813604536E+02 -0.57915173391E+02  0.15162930526E+03  0.23587095309E+03  0.17058334420E+03 0.  0.
        -24    2    5    5    0    0 -0.28885667525E+02  0.24064070056E+02  0.71288596820E+02  0.11331262566E+03  0.79650648714E+02 0.  0.
          5    1    3    3  501    0 -0.46810033295E+02 -0.35952312627E+02  0.66432886261E+02  0.88989698153E+02  0.47000000000E+01 0. -1.
        -13    1    4    4    0    0 -0.14431893124E+02  0.47501857326E+02  0.13367713206E+02  0.51414022844E+02  0.00000000000E+00 0.  1.
         14    1    4    4    0    0  0.47428321883E+02  0.46365628692E+02  0.44240631991E+02  0.79727352644E+02  0.00000000000E+00 0. -1.
         -5    1    5    5    0  502  0.42699272061E+02 -0.81979243447E+02  0.80340708444E+02  0.12255832744E+03  0.47000000000E+01 0.  1.
         11    1    6    6    0    0  0.25333951282E+02  0.17025676807E+02  0.12371894379E+02  0.32935490415E+02  0.00000000000E+00 0. -1.
        -12    1    6    6    0    0 -0.54219618807E+02  0.70383932483E+01  0.58916702441E+02  0.80377135242E+02  0.00000000000E+00 0.  1.
</event>
<event>
12    1  0.8691829E-002  0.2326285E+03  0.7818608E-02  0.1125073E+00
         21   -1    0    0  503  502  0.00000000000E+00  0.00000000000E+00  0.11352875421E+04  0.11352875421E+04  0.00000000000E+00 0.  1.
         21   -1    0    0  501  503 -0.00000000000E+00 -0.00000000000E+00 -0.84315143433E+02  0.84315143433E+02  0.00000000000E+00 0. -1.
          6    2    1    2  501    0  0.15150756938E+03 -0.22692368626E+02  0.12073099467E+03  0.26071526056E+03  0.17299418152E+03 0.  0.
         24    2    3    3    0    0  0.12864241529E+03  0.32581108028E+02  0.39423967575E+02  0.15966628655E+03  0.79552964933E+02 0.  0.
         -6    2    1    2    0  502 -0.15150756938E+03  0.22692368626E+02  0.93024140404E+03  0.95888742501E+03  0.17506152315E+03 0.  0.
        -24    2    5    5    0    0 -0.16201721572E+03 -0.22138621285E+02  0.65942886445E+03  0.68414792673E+03  0.80450367492E+02 0.  0.
          5    1    3    3  501    0  0.22865154090E+02 -0.55273476654E+02  0.81307027096E+02  0.10104897401E+03  0.47000000000E+01 0. -1.
        -13    1    4    4    0    0 -0.74153165420E+01  0.14707871892E+02  0.10163523265E+02  0.19354731209E+02  0.00000000000E+00 0.  1.
         14    1    4    4    0    0  0.13605773183E+03  0.17873236136E+02  0.29260444310E+02  0.14031155534E+03  0.00000000000E+00 0. -1.
         -5    1    5    5    0  502  0.10509646334E+02  0.44830989911E+02  0.27081253958E+03  0.27473949828E+03  0.47000000000E+01 0.  1.
         11    1    6    6    0    0 -0.16944697390E+03 -0.15584639906E+02  0.64126733529E+03  0.66345983547E+03  0.00000000000E+00 0. -1.
        -12    1    6    6    0    0  0.74297581810E+01 -0.65539813792E+01  0.18161529162E+02  0.20688091261E+02  0.00000000000E+00 0.  1.
</event>
<event>
12    1  0.8691829E-002  0.1813041E+03  0.7818608E-02  0.1166586E+00
         21   -1    0    0  501  502  0.00000000000E+00  0.00000000000E+00  0.32816965234E+03  0.32816965234E+03  0.00000000000E+00 0.  1.
         21   -1    0    0  502  503 -0.00000000000E+00 -0.00000000000E+00 -0.10937205227E+03  0.10937205227E+03  0.00000000000E+00 0. -1.
         -6    2    1    2    0  503 -0.39302861545E+02 -0.44791449579E+02  0.17313772591E+03  0.25057645496E+03  0.17105817362E+03 0.  0.
        -24    2    3    3    0    0 -0.72368401849E+02 -0.43812440374E+02  0.52421096282E+02  0.12532118328E+03  0.76162406242E+02 0.  0.
          6    2    1    2  501    0  0.39302861545E+02  0.44791449579E+02  0.45659874158E+02  0.18696524965E+03  0.17123139778E+03 0.  0.
         24    2    5    5    0    0  0.74013419762E+02  0.62677180425E+02  0.65972990773E+02  0.14269974472E+03  0.81267252826E+02 0.  0.
          5    1    5    5  501    0 -0.34710558217E+02 -0.17885730846E+02 -0.20313116615E+02  0.44265504925E+02  0.47000000000E+01 0. -1.
        -13    1    6    6    0    0  0.12827565789E+01 -0.17149640614E+02  0.16795788732E+02  0.24038597229E+02  0.00000000000E+00 0.  1.
         14    1    6    6    0    0  0.72730663183E+02  0.79826821038E+02  0.49177202041E+02  0.11866114749E+03  0.00000000000E+00 0. -1.
         -5    1    3    3    0  503  0.33065540304E+02 -0.97900920534E+00  0.12071662963E+03  0.12525527168E+03  0.47000000000E+01 0.  1.
         13    1    4    4    0    0  0.25288700401E+01  0.16227559449E+02  0.10722397259E+01  0.16458388967E+02  0.00000000000E+00 0. -1.
        -14    1    4    4    0    0 -0.74897271889E+02 -0.60039999823E+02  0.51348856556E+02  0.10886279431E+03  0.00000000000E+00 0.  1.
</event>
<event>
12    1  0.8691829E-002  0.1846074E+03  0.7818608E-02  0.1164427E+00
         21   -1    0    0  503  502  0.00000000000E+00  0.00000000000E+00  0.19923110711E+03  0.19923110711E+03  0.00000000000E+00 0.  1.
         21   -1    0    0  501  503 -0.00000000000E+00 -0.00000000000E+00 -0.43118724695E+03  0.43118724695E+03  0.00000000000E+00 0.  1.
          6    2    1    2  501    0 -0.37883929179E+02 -0.40273317040E+02 -0.36316364587E+03  0.40739137500E+03  0.17613280952E+03 0.  0.
         24    2    3    3    0    0 -0.23830269992E+01 -0.57503887809E+02 -0.10317038608E+03  0.14437846323E+03  0.82997808096E+02 0.  0.
         -6    2    1    2    0  502  0.37883929179E+02  0.40273317040E+02  0.13120750603E+03  0.22302697906E+03  0.17166389136E+03 0.  0.
        -24    2    5    5    0    0  0.77457722250E+01 -0.44215485079E+02  0.71711026041E+02  0.11528382467E+03  0.78312724801E+02 0.  0.
          5    1    3    3  501    0 -0.35500902180E+02  0.17230570769E+02 -0.25999325978E+03  0.26301291177E+03  0.47000000000E+01 0. -1.
        -11    1    4    4    0    0  0.34290048456E+02 -0.52746028251E+02 -0.54381241447E+02  0.83158104480E+02  0.00000000000E+00 0.  1.
         12    1    4    4    0    0 -0.36673075455E+02 -0.47578595581E+01 -0.48789144637E+02  0.61220358749E+02  0.00000000000E+00 0. -1.
         -5    1    5    5    0  502  0.30138156954E+02  0.84488802119E+02  0.59496479984E+02  0.10774315439E+03  0.47000000000E+01 0.  1.
         13    1    6    6    0    0  0.27300857215E+02 -0.25669794015E+02 -0.12600800719E+01  0.37494838728E+02  0.00000000000E+00 0. -1.
        -14    1    6    6    0    0 -0.19555084990E+02 -0.18545691064E+02  0.72971106113E+02  0.77788985939E+02  0.00000000000E+00 0.  1.
</event>
<event>
12    1  0.8691829E-002  0.2037676E+03  0.7818608E-02  0.1146900E+00
         21   -1    0    0  501  502  0.00000000000E+00  0.00000000000E+00  0.17555594868E+03  0.17555594868E+03  0.00000000000E+00 0. -1.
         21   -1    0    0  502  503 -0.00000000000E+00 -0.00000000000E+00 -0.32037734622E+03  0.32037734622E+03  0.00000000000E+00 0. -1.
         -6    2    1    2    0  503  0.10171145518E+03  0.34806199036E+02 -0.20035942794E+03  0.28473269087E+03  0.17138294336E+03 0.  0.
        -24    2    3    3    0    0 -0.15285728909E+02  0.15292908487E+02 -0.87667867253E+02  0.12105438612E+03  0.80628672889E+02 0.  0.
          6    2    1    2  501    0 -0.10171145518E+03 -0.34806199036E+02  0.55538030399E+02  0.21120060403E+03  0.17310265947E+03 0.  0.
         24    2    5    5    0    0 -0.90571990302E+00 -0.32074397148E+02 -0.18387006710E+02  0.86075626033E+02  0.77726083784E+02 0.  0.
          5    1    5    5  501    0 -0.10080573528E+03 -0.27318018880E+01  0.73925037109E+02  0.12512497800E+03  0.47000000000E+01 0. -1.
        -11    1    6    6    0    0  0.37767300307E+02 -0.21204467347E+02 -0.43871199740E+01  0.43534414313E+02  0.00000000000E+00 0.  1.
         12    1    6    6    0    0 -0.38673020210E+02 -0.10869929802E+02 -0.13999886736E+02  0.42541211721E+02  0.00000000000E+00 0. -1.
         -5    1    3    3    0  503  0.11699718409E+03  0.19513290550E+02 -0.11269156069E+03  0.16367830475E+03  0.47000000000E+01 0.  1.
         13    1    4    4    0    0  0.30705108338E+02  0.19959861525E+02 -0.31466254502E+02  0.48283795651E+02  0.00000000000E+00 0. -1.
        -14    1    4    4    0    0 -0.45990837247E+02 -0.46669530381E+01 -0.56201612751E+02  0.72770590469E+02  0.00000000000E+00 0.  1.
</event>
<event>
12    1  0.8691829E-002  0.1961346E+03  0.7818608E-02  0.1153398E+00
         21   -1    0    0  503  502  0.00000000000E+00  0.00000000000E+00  0.59427935708E+03  0.59427935708E+03  0.00000000000E+00 0. -1.
         21   -1    0    0  501  503 -0.00000000000E+00 -0.00000000000E+00 -0.70870117891E+02  0.70870117891E+02  0.00000000000E+00 0. -1.
          6    2    1    2  501    0 -0.90488645560E+02 -0.23121861962E+02  0.15861477957E+03  0.25097102795E+03  0.17060185550E+03 0.  0.
         24    2    3    3    0    0 -0.12536445952E+03 -0.36726209821E+02  0.10751869967E+03  0.18745488780E+03  0.80709367370E+02 0.  0.
         -6    2    1    2    0  502  0.90488645560E+02  0.23121861962E+02  0.36479445962E+03  0.41417844702E+03  0.17247020823E+03 0.  0.
        -24    2    5    5    0    0  0.23489940778E+02 -0.42551636742E+02  0.12721074779E+03  0.15869861415E+03  0.81487770082E+02 0.  0.
          5    1    3    3  501    0  0.34875813958E+02  0.13604347859E+02  0.51096079895E+02  0.63516140158E+02  0.47000000000E+01 0. -1.
        -11    1    4    4    0    0 -0.13149197070E+03 -0.31172668226E+02  0.11411775770E+03  0.17687491689E+03  0.00000000000E+00 0.  1.
         12    1    4    4    0    0  0.61275111859E+01 -0.55535415951E+01 -0.65990580217E+01  0.10579970905E+02  0.00000000000E+00 0. -1.
         -5    1    5    5    0  502  0.66998704782E+02  0.65673498703E+02  0.23758371183E+03  0.25547983287E+03  0.47000000000E+01 0.  1.
         11    1    6    6    0    0 -0.27005625408E+02 -0.13104539600E+02  0.73183867115E+02  0.79100639490E+02  0.00000000000E+00 0. -1.
        -12    1    6    6    0    0  0.50495566186E+02 -0.29447097142E+02  0.54026880672E+02  0.79597974658E+02  0.00000000000E+00 0.  1.
</event>
<event>
12    1  0.8691829E-002  0.1887516E+03  0.7818608E-02  0.1159667E+00
         21   -1    0    0  501  502  0.00000000000E+00  0.00000000000E+00  0.40389264225E+03  0.40389264225E+03  0.00000000000E+00 0.  1.
         21   -1    0    0  502  503 -0.00000000000E+00 -0.00000000000E+00 -0.11595481438E+03  0.11595481438E+03  0.00000000000E+00 0.  1.
         -6    2    1    2    0  503  0.77692811709E+02 -0.36623955854E+01  0.16568664560E+02  0.18947739706E+03  0.17198132811E+03 0.  0.
        -24    2    3    3    0    0  0.12757315432E+02 -0.56713306221E+02  0.34468016780E+02  0.10360834207E+03  0.78533407958E+02 0.  0.
          6    2    1    2  501    0 -0.77692811709E+02  0.36623955854E+01  0.27136916332E+03  0.33037005957E+03  0.17162041640E+03 0.  0.
         24    2    5    5    0    0 -0.44760182500E+02 -0.64800507499E+02  0.18075826563E+03  0.21203092004E+03  0.77980643417E+02 0.  0.
          5    1    5    5  501    0 -0.32932629208E+02  0.68462903085E+02  0.90610897684E+02  0.11833913953E+03  0.47000000000E+01 0. -1.
        -13    1    6    6    0    0 -0.56464940314E+02 -0.40782882233E+02  0.72552287733E+02  0.10057518294E+03  0.00000000000E+00 0.  1.
         14    1    6    6    0    0  0.11704757814E+02 -0.24017625267E+02  0.10820597790E+03  0.11145573710E+03  0.00000000000E+00 0. -1.
         -5    1    3    3    0  503  0.64935496277E+02  0.53050910636E+02 -0.17899352220E+02  0.85869054996E+02  0.47000000000E+01 0.  1.
         11    1    4    4    0    0 -0.68705271450E+01 -0.54294967410E+02 -0.93623547805E+01  0.55522980074E+02  0.00000000000E+00 0. -1.
        -12    1    4    4    0    0  0.19627842577E+02 -0.24183388114E+01  0.43830371560E+02  0.48085361993E+02  0.00000000000E+00 0.  1.
</event>
<event>
12    1  0.8691829E-002  0.1814194E+03  0.7818608E-02  0.1166678E+00
         21   -1    0    0  503  502  0.00000000000E+00  0.00000000000E+00  0.49851030899E+02  0.49851030899E+02  0.00000000000E+00 0. -1.
         21   -1    0    0  501  503 -0.00000000000E+00 -0.00000000000E+00 -0.23472486043E+04  0.23472486043E+04  0.00000000000E+00 0. -1.
          6    2    1    2  501    0  0.38184835319E+02 -0.39383332052E+02 -0.21667908039E+04  0.21743724105E+04  0.17292733518E+03 0.  0.
         24    2    3    3    0    0  0.20817383899E+02 -0.87337602456E+02 -0.11335977445E+04  0.11399106043E+04  0.79316576471E+02 0.  0.
         -6    2    1    2    0  502 -0.38184835319E+02  0.39383332052E+02 -0.13060676955E+03  0.22272722473E+03  0.17187251058E+03 0.  0.
        -24    2    5    5    0    0  0.28504015405E+02  0.13604174834E+02 -0.11921680381E+03  0.15017524972E+03  0.85687845411E+02 0.  0.
          5    1    3    3  501    0  0.17367451420E+02  0.47954270404E+02 -0.10331930594E+04  0.10344618062E+04  0.47000000000E+01 0. -1.
        -11    1    4    4    0    0  0.28878285144E+02 -0.10844379042E+02 -0.60058731323E+03  0.60137897928E+03  0.00000000000E+00 0.  1.
         12    1    4    4    0    0 -0.80609012456E+01 -0.76493223415E+02 -0.53301043123E+03  0.53853162502E+03  0.00000000000E+00 0. -1.
         -5    1    5    5    0  502 -0.66688850724E+02  0.25779157218E+02 -0.11389965735E+02  0.72551975006E+02  0.47000000000E+01 0.  1.
         11    1    6    6    0    0  0.46206152498E+01  0.23031588639E+02  0.44179478025E+01  0.23902351836E+02  0.00000000000E+00 0. -1.
        -12    1    6    6    0    0  0.23883400155E+02 -0.94274138052E+01 -0.12363475162E+03  0.12627289789E+03  0.00000000000E+00 0.  1.
</event>
<event>
12    1  0.8691829E-002  0.1742420E+03  0.7818608E-02  0.1173713E+00
         21   -1    0    0  503  502  0.00000000000E+00  0.00000000000E+00  0.19524490653E+03  0.19524490653E+03  0.00000000000E+00 0. -1.
         21   -1    0    0  501  503 -0.00000000000E+00 -0.00000000000E+00 -0.29280143452E+03  0.29280143452E+03  0.00000000000E+00 0. -1.
          6    2    1    2  501    0 -0.24574626639E+02  0.81302380325E+01 -0.21641040986E+03  0.27783759553E+03  0.17230859220E+03 0.  0.
         24    2    3    3    0    0 -0.77849911033E+02 -0.18394463748E+02 -0.86260537361E+02  0.13464927532E+03  0.65502535021E+02 0.  0.
         -6    2    1    2    0  502  0.24574626639E+02 -0.81302380325E+01  0.11885388187E+03  0.21020874552E+03  0.17143937241E+03 0.  0.
        -24    2    5    5    0    0 -0.48370442573E+02 -0.22964229389E+02  0.85461639613E+02  0.12848872187E+03  0.79615351893E+02 0.  0.
          5    1    3    3  501    0  0.53275284394E+02  0.26524701781E+02 -0.13014987250E+03  0.14318832021E+03  0.47000000000E+01 0. -1.
        -11    1    4    4    0    0 -0.27485446775E+02 -0.35628528091E+02 -0.18929520413E+02  0.48817707252E+02  0.00000000000E+00 0.  1.
         12    1    4    4    0    0 -0.50364464258E+02  0.17234064343E+02 -0.67331016949E+02  0.85831568068E+02  0.00000000000E+00 0. -1.
         -5    1    5    5    0  502  0.72945069212E+02  0.14833991357E+02  0.33392242260E+02  0.81720023648E+02  0.47000000000E+01 0.  1.
         11    1    6    6    0    0  0.20596434427E+02  0.41890303204E+01  0.12349631545E+02  0.24377745700E+02  0.00000000000E+00 0. -1.
        -12    1    6    6    0    0 -0.68966877000E+02 -0.27153259710E+02  0.73112008068E+02  0.10411097617E+03  0.00000000000E+00 0.  1.
</event>
<event>
12    1  0.8691829E-002  0.1781234E+03  0.7818608E-02  0.1170072E+00
         21   -1    0    0  503  502  0.00000000000E+00  0.00000000000E+00  0.89243754773E+02  0.89243754773E+02  0.00000000000E+00 0. -1.
         21   -1    0    0  501  503 -0.00000000000E+00 -0.00000000000E+00 -0.60594569126E+03  0.60594569126E+03  0.00000000000E+00 0. -1.
          6    2    1    2  501    0 -0.33966632480E+02 -0.19602101307E+02 -0.48263095509E+03  0.51383677600E+03  0.17192329411E+03 0.  0.
         24    2    3    3    0    0  0.44600489000E+02 -0.87194937947E+01 -0.20619768705E+03  0.22621086373E+03  0.81170410476E+02 0.  0.
         -6    2    1    2    0  502  0.33966632480E+02  0.19602101307E+02 -0.34070981394E+02  0.18135267003E+03  0.17375265367E+03 0.  0.
        -24    2    5    5    0    0  0.15617744847E+02  0.69575115781E+02  0.15060295922E+02  0.10875820562E+03  0.80727467976E+02 0.  0.
          5    1    3    3  501    0 -0.78567121479E+02 -0.10882607512E+02 -0.27643326805E+03  0.28762591227E+03  0.47000000000E+01 0. -1.
        -11    1    4    4    0    0 -0.21686464812E+02  0.24991858291E+01 -0.26408704021E+02  0.34263221301E+02  0.00000000000E+00 0.  1.
         12    1    4    4    0    0  0.66286953812E+02 -0.11218679624E+02 -0.17978898303E+03  0.19194764243E+03  0.00000000000E+00 0. -1.
         -5    1    5    5    0  502  0.18348887633E+02 -0.49973014474E+02 -0.49131277316E+02  0.72594464415E+02  0.47000000000E+01 0.  1.
         11    1    6    6    0    0  0.14226773565E+02  0.33703497527E+02  0.47786029197E+02  0.60181653500E+02  0.00000000000E+00 0. -1.
        -12    1    6    6    0    0  0.13909712824E+01  0.35871618254E+02 -0.32725733274E+02  0.48576552117E+02  0.00000000000E+00 0.  1.
</event>
<event>
12    1  0.8691829E-002  0.2357646E+03  0.7818608E-02  0.1122674E+00
         21   -1    0    0  503  502  0.00000000000E+00  0.00000000000E+00  0.11609012425E+04  0.11609012425E+04  0.00000000000E+00 0.  1.
         21   -1    0    0  501  503 -0.00000000000E+00 -0.00000000000E+00 -0.97251983318E+02  0.97251983318E+02  0.00000000000E+00 0.  1.
          6    2    1    2  501    0  0.15991080775E+03 -0.20375513150E+02  0.83368157060E+02  0.24991913853E+03  0.17182170474E+03 0.  0.
         24    2    3    3    0    0  0.70929707826E+02  0.29566852144E+02 -0.11150670093E+02  0.11075098599E+03  0.78969748993E+02 0.  0.
         -6    2    1    2    0  502 -0.15991080775E+03  0.20375513150E+02  0.98028110212E+03  0.10082340873E+04  0.17204158690E+03 0.  0.
        -24    2    5    5    0    0 -0.11489940135E+03 -0.44385492653E+02  0.75647417970E+03  0.77089120641E+03  0.82753387741E+02 0.  0.
          5    1    3    3  501    0  0.88981099925E+02 -0.49942365294E+02  0.94518827153E+02  0.13916815254E+03  0.47000000000E+01 0. -1.
        -11    1    4    4    0    0  0.59482466228E+02  0.55685913219E+02 -0.11102421670E+02  0.82233499783E+02  0.00000000000E+00 0.  1.
         12    1    4    4    0    0  0.11447241599E+02 -0.26119061075E+02 -0.48248423222E-01  0.28517486207E+02  0.00000000000E+00 0. -1.
         -5    1    5    5    0  502 -0.45011406402E+02  0.64761005803E+02  0.22380692242E+03  0.23734288088E+03  0.47000000000E+01 0.  1.
         11    1    6    6    0    0  0.90734949706E+01  0.34426621328E+01  0.17016205081E+02  0.19589065034E+02  0.00000000000E+00 0. -1.
        -12    1    6    6    0    0 -0.12397289632E+03 -0.47828154786E+02  0.73945797462E+03  0.75130214137E+03  0.00000000000E+00 0.  1.
</event>
<event>
12    1  0.8691829E-002  0.1723124E+03  0.7818608E-02  0.1177570E+00
         21   -1    0    0  503  502  0.00000000000E+00  0.00000000000E+00  0.53597582604E+03  0.53597582604E+03  0.00000000000E+00 0.  1.
         21   -1    0    0  501  503 -0.00000000000E+00 -0.00000000000E+00 -0.63168732448E+02  0.63168732448E+02  0.00000000000E+00 0.  1.
          6    2    1    2  501    0  0.39536437672E+01 -0.10345433727E+02  0.11059435514E+03  0.19803404869E+03  0.16390153676E+03 0.  0.
         24    2    3    3    0    0 -0.21704268579E+01 -0.34306833125E+02  0.16683227972E+02  0.10080728947E+03  0.93285100429E+02 0.  0.
         -6    2    1    2    0  502 -0.39536437672E+01  0.10345433727E+02  0.36221273845E+03  0.40111050981E+03  0.17195613941E+03 0.  0.
        -24    2    5    5    0    0  0.29672343376E+02  0.19988949188E+02  0.85134868045E+02  0.12179359182E+03  0.79408609111E+02 0.  0.
          5    1    3    3  501    0  0.61240706250E+01  0.23961399398E+02  0.93911127170E+02  0.97226759220E+02  0.47000000000E+01 0. -1.
        -13    1    4    4    0    0 -0.41868178333E+02 -0.38179731568E+02  0.21556612140E+02  0.60624448752E+02  0.00000000000E+00 0.  1.
         14    1    4    4    0    0  0.39697751475E+02  0.38728984437E+01 -0.48733841676E+01  0.40182840713E+02  0.00000000000E+00 0. -1.
         -5    1    5    5    0  502 -0.33625987143E+02 -0.96435154610E+01  0.27707787041E+03  0.27931691799E+03  0.47000000000E+01 0.  1.
         11    1    6    6    0    0  0.36900322169E+02 -0.22459278049E+02  0.34201965827E+02  0.55098343107E+02  0.00000000000E+00 0. -1.
        -12    1    6    6    0    0 -0.72279787933E+01  0.42448227237E+02  0.50932902217E+02  0.66695248716E+02  0.00000000000E+00 0.  1.
</event>
<event>
12    1  0.8691829E-002  0.1871453E+03  0.7818608E-02  0.1161168E+00
         21   -1    0    0  503  502  0.00000000000E+00  0.00000000000E+00  0.33989490001E+02  0.33989490001E+02  0.00000000000E+00 0. -1.
         21   -1    0    0  501  503 -0.00000000000E+00 -0.00000000000E+00 -0.11941023050E+04  0.11941023050E+04  0.00000000000E+00 0. -1.
          6    2    1    2  501    0 -0.60592546895E+02 -0.38083113410E+02 -0.35157267301E+03  0.39827967753E+03  0.17292072422E+03 0.  0.
         24    2    3    3    0    0 -0.76562855890E+02  0.31555964203E+02 -0.21687400828E+03  0.24573305456E+03  0.80577595265E+02 0.  0.
         -6    2    1    2    0  502  0.60592546895E+02  0.38083113410E+02 -0.80854014200E+03  0.82981211748E+03  0.17242160195E+03 0.  0.
        -24    2    5    5    0    0  0.10022415529E+03  0.18122188020E+02 -0.70737568419E+03  0.71924340377E+03  0.80977899949E+02 0.  0.
          5    1    3    3  501    0  0.15970308995E+02 -0.69639077613E+02 -0.13469866473E+03  0.15254662298E+03  0.47000000000E+01 0. -1.
        -11    1    4    4    0    0 -0.46979848924E+01  0.23170666927E+02 -0.13246659609E+03  0.13455983779E+03  0.00000000000E+00 0.  1.
         12    1    4    4    0    0 -0.71864870998E+02  0.83852972755E+01 -0.84407412189E+02  0.11117321677E+03  0.00000000000E+00 0. -1.
         -5    1    5    5    0  502 -0.39631608398E+02  0.19960925390E+02 -0.10116445781E+03  0.11056871371E+03  0.47000000000E+01 0.  1.
         11    1    6    6    0    0  0.68993356027E+02  0.23198288845E+02 -0.64697820704E+03  0.65105993900E+03  0.00000000000E+00 0. -1.
        -12    1    6    6    0    0  0.31230799266E+02 -0.50761008247E+01 -0.60397477148E+02  0.68183464771E+02  0.00000000000E+00 0.  1.
</event>
<event>
12    1  0.8691829E-002  0.1916631E+03  0.7818608E-02  0.1157068E+00
         21   -1    0    0  501  502  0.00000000000E+00  0.00000000000E+00  0.60957564494E+03  0.60957564494E+03  0.00000000000E+00 0. -1.
         21   -1    0    0  502  503 -0.00000000000E+00 -0.00000000000E+00 -0.76496692550E+02  0.76496692550E+02  0.00000000000E+00 0. -1.
         -6    2    1    2    0  503  0.75354483837E+02 -0.37421426408E+02  0.10808206757E+03  0.22003748705E+03  0.17220946835E+03 0.  0.
        -24    2    3    3    0    0  0.89579681654E+02 -0.30962764828E+01  0.12968604223E+03  0.17680099909E+03  0.80037600151E+02 0.  0.
          6    2    1    2  501    0 -0.75354483837E+02  0.37421426408E+02  0.42499688482E+03  0.46603485044E+03  0.17171915539E+03 0.  0.
         24    2    5    5    0    0 -0.69761417418E+02 -0.37420431403E+02  0.22122913175E+03  0.24883454366E+03  0.81910666817E+02 0.  0.
          5    1    5    5  501    0 -0.55930664194E+01  0.74841857811E+02  0.20376775308E+03  0.21720030678E+03  0.47000000000E+01 0. -1.
        -11    1    6    6    0    0 -0.58605837606E+01 -0.69596648370E+01 -0.59569333375E+01  0.10875129031E+02  0.00000000000E+00 0.  1.
         12    1    6    6    0    0 -0.63900833657E+02 -0.30460766566E+02  0.22718606508E+03  0.23795941463E+03  0.00000000000E+00 0. -1.
         -5    1    3    3    0  503 -0.14225197816E+02 -0.34325149925E+02 -0.21603974656E+02  0.43236487961E+02  0.47000000000E+01 0.  1.
         11    1    4    4    0    0  0.14137047325E+02 -0.31501113907E+02  0.64380575087E+02  0.73055011689E+02  0.00000000000E+00 0. -1.
        -12    1    4    4    0    0  0.75442634329E+02  0.28404837424E+02  0.65305467140E+02  0.10374598740E+03  0.00000000000E+00 0.  1.
</event>
<event>
12    1  0.8691829E-002  0.2182180E+03  0.7818608E-02  0.1135340E+00
         21   -1    0    0  501  502  0.00000000000E+00  0.00000000000E+00  0.10108886613E+03  0.10108886613E+03  0.00000000000E+00 0.  1.
         21   -1    0    0  502  503 -0.00000000000E+00 -0.00000000000E+00 -0.10937322028E+04  0.10937322028E+04  0.00000000000E+00 0.  1.
         -6    2    1    2    0  503 -0.71558234423E+02  0.11325691578E+03 -0.94790084802E+03  0.97269476805E+03  0.17225383660E+03 0.  0.
        -24    2    3    3    0    0 -0.97301586475E+02  0.53289829394E+02 -0.47193943667E+03  0.49225733537E+03  0.85340773914E+02 0.  0.
          6    2    1    2  501    0  0.71558234423E+02 -0.11325691578E+03 -0.44742488632E+02  0.22212630086E+03  0.17143655783E+03 0.  0.
         24    2    5    5    0    0  0.73080720831E+02 -0.98278769619E+02  0.27673524874E+02  0.14801265948E+03  0.78373561052E+02 0.  0.
          5    1    5    5  501    0 -0.15224864086E+01 -0.14978146156E+02 -0.72416013506E+02  0.74113641384E+02  0.47000000000E+01 0. -1.
        -11    1    6    6    0    0  0.66968271514E+01  0.81611691090E+01  0.19656860365E+02  0.22312425563E+02  0.00000000000E+00 0.  1.
         12    1    6    6    0    0  0.66383893680E+02 -0.10643993873E+03  0.80166645096E+01  0.12570023392E+03  0.00000000000E+00 0. -1.
         -5    1    3    3    0  503  0.25743352053E+02  0.59967086381E+02 -0.47596141135E+03  0.48043743268E+03  0.47000000000E+01 0.  1.
         13    1    4    4    0    0 -0.18033185899E+02  0.17391442211E+02 -0.20113139405E+02  0.32127814003E+02  0.00000000000E+00 0. -1.
        -14    1    4    4    0    0 -0.79268400576E+02  0.35898387182E+02 -0.45182629727E+03  0.46012952137E+03  0.00000000000E+00 0.  1.
</event>
<event>
12    1  0.8691829E-002  0.1841337E+03  0.7818608E-02  0.1163964E+00
         21   -1    0    0  503  502  0.00000000000E+00  0.00000000000E+00  0.10293889940E+03  0.10293889940E+03  0.00000000000E+00 0.  1.
         21   -1    0    0  501  503 -0.00000000000E+00 -0.00000000000E+00 -0.39312412779E+03  0.39312412779E+03  0.00000000000E+00 0.  1.
          6    2    1    2  501    0  0.27554093570E+02 -0.59861001410E+02 -0.24572850065E+03  0.30706303824E+03  0.17193791280E+03 0.  0.
         24    2    3    3    0    0  0.77434089187E+01 -0.83002663634E+02 -0.25078576138E+03  0.27582739125E+03  0.78980055095E+02 0.  0.
         -6    2    1    2    0  502 -0.27554093570E+02  0.59861001410E+02 -0.44456727732E+02  0.18899998895E+03  0.17147019456E+03 0.  0.
        -24    2    5    5    0    0  0.43143158737E+02  0.26331958549E+01 -0.29317153054E+02  0.96672203678E+02  0.81349576733E+02 0.  0.
          5    1    3    3  501    0  0.19810684651E+02  0.23141662224E+02  0.50572607226E+01  0.31235646989E+02  0.47000000000E+01 0. -1.
        -11    1    4    4    0    0  0.25351585906E+02 -0.32612073515E+01 -0.11127932279E+03  0.11417716962E+03  0.00000000000E+00 0.  1.
         12    1    4    4    0    0 -0.17608176987E+02 -0.79741456283E+02 -0.13950643859E+03  0.16165022163E+03  0.00000000000E+00 0. -1.
         -5    1    5    5    0  502 -0.70697252306E+02  0.57227805556E+02 -0.15139574677E+02  0.92327785275E+02  0.47000000000E+01 0.  1.
         11    1    6    6    0    0  0.32261586378E+02 -0.66170603685E+01  0.24465031656E+02  0.41026006599E+02  0.00000000000E+00 0. -1.
        -12    1    6    6    0    0  0.10881572359E+02  0.92502562234E+01 -0.53782184710E+02  0.55646197079E+02  0.00000000000E+00 0.  1.
</event>
<event>
12    1  0.8691829E-002  0.2125065E+03  0.7818608E-02  0.1139780E+00
         21   -1    0    0  503  502  0.00000000000E+00  0.00000000000E+00  0.12890130372E+04  0.12890130372E+04  0.00000000000E+00 0. -1.
         21   -1    0    0  501  503 -0.00000000000E+00 -0.00000000000E+00 -0.44751202085E+03  0.44751202085E+03  0.00000000000E+00 0. -1.
          6    2    1    2  501    0  0.11934953256E+03  0.28437370964E+02 -0.41306259655E+03  0.46409083339E+03  0.17235602099E+03 0.  0.
         24    2    3    3    0    0  0.14605763336E+03  0.19019330990E+02 -0.39790038301E+03  0.43162539261E+03  0.79254006448E+02 0.  0.
         -6    2    1    2    0  502 -0.11934953256E+03 -0.28437370964E+02  0.12545636129E+04  0.12724342247E+04  0.17351081323E+03 0.  0.
        -24    2    5    5    0    0  0.15850984183E+01  0.15514291012E+02  0.41464321142E+03  0.42270173477E+03  0.80650840305E+02 0.  0.
          5    1    3    3  501    0 -0.26708100795E+02  0.94180399736E+01 -0.15162213545E+02  0.32465440774E+02  0.47000000000E+01 0. -1.
        -13    1    4    4    0    0  0.39403222551E+02 -0.24674388531E+02 -0.16993225954E+03  0.17617721825E+03  0.00000000000E+00 0.  1.
         14    1    4    4    0    0  0.10665441081E+03  0.43693719521E+02 -0.22796812347E+03  0.25544817437E+03  0.00000000000E+00 0. -1.
         -5    1    5    5    0  502 -0.12093463098E+03 -0.43951661976E+02  0.83992040150E+03  0.84973248991E+03  0.47000000000E+01 0.  1.
         13    1    6    6    0    0  0.15779053343E+02 -0.26896370076E+02  0.25543210771E+03  0.25732849609E+03  0.00000000000E+00 0. -1.
        -14    1    6    6    0    0 -0.14193954925E+02  0.42410661088E+02  0.15921110370E+03  0.16537323868E+03  0.00000000000E+00 0.  1.
</event>
<event>
12    1  0.8691829E-002  0.1821644E+03  0.7818608E-02  0.1166564E+00
         21   -1    0    0  503  502  0.00000000000E+00  0.00000000000E+00  0.46076798071E+03  0.46076798071E+03  0.00000000000E+00 0. -1.
         21   -1    0    0  501  503 -0.00000000000E+00 -0.00000000000E+00 -0.70788743949E+02  0.70788743949E+02  0.00000000000E+00 0. -1.
          6    2    1    2  501    0 -0.75506239575E+01 -0.49041268095E+02  0.18498308347E+03  0.25962014397E+03  0.17527641052E+03 0.  0.
         24    2    3    3    0    0 -0.34339512587E+02 -0.84158502269E+02  0.17603640677E+03  0.21431012615E+03  0.81719997772E+02 0.  0.
         -6    2    1    2    0  502  0.75506239575E+01  0.49041268095E+02  0.20499615329E+03  0.27193658069E+03  0.17165087578E+03 0.  0.
        -24    2    5    5    0    0 -0.58154661185E+02  0.45018515000E+02  0.15395322532E+03  0.18850494679E+03  0.80149161383E+02 0.  0.
          5    1    3    3  501    0  0.26788888629E+02  0.35117234174E+02  0.89466766981E+01  0.45310017810E+02  0.47000000000E+01 0. -1.
        -11    1    4    4    0    0 -0.40307021657E+02 -0.10503405277E+02  0.32367269879E+02  0.52750522999E+02  0.00000000000E+00 0.  1.
         12    1    4    4    0    0  0.59675090701E+01 -0.73655096992E+02  0.14366913689E+03  0.16155960316E+03  0.00000000000E+00 0. -1.
         -5    1    5    5    0  502  0.65705285143E+02  0.40227530953E+01  0.51042927975E+02  0.83431633895E+02  0.47000000000E+01 0.  1.
         13    1    6    6    0    0 -0.44171515741E+02  0.51774085637E+02  0.52720282743E+02  0.86087786351E+02  0.00000000000E+00 0. -1.
        -14    1    6    6    0    0 -0.13983145444E+02 -0.67555706369E+01  0.10123294257E+03  0.10241716044E+03  0.00000000000E+00 0.  1.
</event>
<event>
12    1  0.8691829E-002  0.2844768E+03  0.7818608E-02  0.1093366E+00
         21   -1    0    0  503  502  0.00000000000E+00  0.00000000000E+00  0.16076352125E+03  0.16076352125E+03  0.00000000000E+00 0. -1.
         21   -1    0    0  501  503 -0.00000000000E+00 -0.00000000000E+00 -0.76888645518E+03  0.76888645518E+03  0.00000000000E+00 0.  1.
          6    2    1    2  501    0 -0.93480475620E+02  0.20540203453E+03 -0.57811719775E+03  0.64431865399E+03  0.17320057287E+03 0.  0.
         24    2    3    3    0    0 -0.27672005932E+02  0.20249639567E+03 -0.45731085719E+03  0.50663982723E+03  0.76027391516E+02 0.  0.
         -6    2    1    2    0  502  0.93480475620E+02 -0.20540203453E+03 -0.30005736178E+02  0.28533132244E+03  0.17200297744E+03 0.  0.
        -24    2    5    5    0    0 -0.10172526298E+02 -0.11024813432E+03  0.18998453629E+02  0.13626184149E+03  0.77124683422E+02 0.  0.
          5    1    3    3  501    0 -0.65808469688E+02  0.29056388578E+01 -0.12080634056E+03  0.13767882677E+03  0.47000000000E+01 0. -1.
        -11    1    4    4    0    0 -0.23179912528E+02  0.79138734185E+02 -0.10616568330E+03  0.13442990703E+03  0.00000000000E+00 0.  1.
         12    1    4    4    0    0 -0.44920934043E+01  0.12335766149E+03 -0.35114517389E+03  0.37220992020E+03  0.00000000000E+00 0. -1.
         -5    1    5    5    0  502  0.10365300192E+03 -0.95153900213E+02 -0.49004189806E+02  0.14906948095E+03  0.47000000000E+01 0.  1.
         13    1    6    6    0    0 -0.35350612556E+01 -0.95937978811E+02 -0.16505172003E+02  0.97411565736E+02  0.00000000000E+00 0. -1.
        -14    1    6    6    0    0 -0.66374650419E+01 -0.14310155508E+02  0.35503625632E+02  0.38850275750E+02  0.00000000000E+00 0.  1.
</event>
<event>
12    1  0.8691829E-002  0.2393327E+03  0.7818608E-02  0.1123064E+00
         21   -1    0    0  503  502  0.00000000000E+00  0.00000000000E+00  0.18025161895E+03  0.18025161895E+03  0.00000000000E+00 0.  1.
         21   -1    0    0  501  503 -0.00000000000E+00 -0.00000000000E+00 -0.53628618053E+03  0.53628618053E+03  0.00000000000E+00 0.  1.
          6    2    1    2  501    0 -0.14176403993E+02 -0.14098345136E+03 -0.42095398130E+03  0.48423382699E+03  0.19288037963E+03 0.  0.
         24    2    3    3    0    0 -0.99311975413E+01 -0.14023258922E+03 -0.17413843282E+03  0.23733589152E+03  0.78995720473E+02 0.  0.
         -6    2    1    2    0  502  0.14176403993E+02  0.14098345136E+03  0.64919419717E+02  0.23230397250E+03  0.17225939915E+03 0.  0.
        -24    2    5    5    0    0  0.11508092172E+01  0.16904640244E+03  0.71443148995E+02  0.20033767170E+03  0.80330869695E+02 0.  0.
          5    1    3    3  501    0 -0.42452064521E+01 -0.75086213809E+00 -0.24681554847E+03  0.24689793547E+03  0.47000000000E+01 0. -1.
        -11    1    4    4    0    0  0.33961691046E+02 -0.57663490405E+02 -0.60955478048E+02  0.90520963806E+02  0.00000000000E+00 0.  1.
         12    1    4    4    0    0 -0.43892888587E+02 -0.82569098813E+02 -0.11318295477E+03  0.14681492771E+03  0.00000000000E+00 0. -1.
         -5    1    5    5    0  502  0.13025594776E+02 -0.28062951083E+02 -0.65237292781E+01  0.31966300794E+02  0.47000000000E+01 0.  1.
         13    1    6    6    0    0  0.41962245686E+01  0.48739754028E+02 -0.16120521296E+02  0.51507699717E+02  0.00000000000E+00 0. -1.
        -14    1    6    6    0    0 -0.30454153514E+01  0.12030664841E+03  0.87563670291E+02  0.14882997199E+03  0.00000000000E+00 0.  1.
</event>
<event>
12    1  0.8691829E-002  0.1837203E+03  0.7818608E-02  0.1164608E+00
         21   -1    0    0  501  502  0.00000000000E+00  0.00000000000E+00  0.49213551979E+03  0.49213551979E+03  0.00000000000E+00 0. -1.
         21   -1    0    0  502  503 -0.00000000000E+00 -0.00000000000E+00 -0.17952796111E+03  0.17952796111E+03  0.00000000000E+00 0. -1.
         -6    2    1    2    0  503  0.50633733394E+02 -0.39790961296E+02 -0.10861069037E+03  0.21212246291E+03  0.17044812011E+03 0.  0.
        -24    2    3    3    0    0  0.51566238082E+02 -0.67708123798E+02 -0.13206823675E+03  0.17534496966E+03  0.77848392985E+02 0.  0.
          6    2    1    2  501    0 -0.50633733394E+02  0.39790961296E+02  0.42121824904E+03  0.45954101799E+03  0.17206405299E+03 0.  0.
         24    2    5    5    0    0 -0.86098958417E+02 -0.14044741878E+02  0.24468703291E+03  0.27154786548E+03  0.79096230993E+02 0.  0.
          5    1    5    5  501    0  0.35465225023E+02  0.53835703174E+02  0.17653121613E+03  0.18799315251E+03  0.47000000000E+01 0. -1.
        -13    1    6    6    0    0 -0.60994537438E+02 -0.23348920133E+02  0.73686975788E+02  0.98464592973E+02  0.00000000000E+00 0.  1.
         14    1    6    6    0    0 -0.25104420979E+02  0.93041782548E+01  0.17100005712E+03  0.17308327251E+03  0.00000000000E+00 0. -1.
         -5    1    3    3    0  503 -0.93250468738E+00  0.27917162501E+02  0.23457546382E+02  0.36777493245E+02  0.47000000000E+01 0.  1.
         11    1    4    4    0    0 -0.17086648856E+02 -0.23074716058E+02 -0.58926220255E+02  0.65549184006E+02  0.00000000000E+00 0. -1.
        -12    1    4    4    0    0  0.68652886938E+02 -0.44633407740E+02 -0.73142016492E+02  0.10979578566E+03  0.00000000000E+00 0.  1.
</event>
<event>
12    1  0.8691829E-002  0.2562941E+03  0.7818608E-02  0.1109904E+00
         21   -1    0    0  503  502  0.00000000000E+00  0.00000000000E+00  0.44131045151E+03  0.44131045151E+03  0.00000000000E+00 0. -1.
         21   -1    0    0  501  503 -0.00000000000E+00 -0.00000000000E+00 -0.24826991541E+03  0.24826991541E+03  0.00000000000E+00 0.  1.
          6    2    1    2  501    0  0.10798029533E+03 -0.15373654595E+03 -0.12340457546E+03  0.28445623236E+03  0.17433298352E+03 0.  0.
         24    2    3    3    0    0  0.28159276720E+02 -0.50589939888E+01 -0.35526906522E+02  0.94138119279E+02  0.82348564826E+02 0.  0.
         -6    2    1    2    0  502 -0.10798029533E+03  0.15373654595E+03  0.31644511155E+03  0.40512413456E+03  0.16939122183E+03 0.  0.
        -24    2    5    5    0    0 -0.97971203387E+02  0.16761697572E+03  0.20994544598E+03  0.29715600491E+03  0.80813326398E+02 0.  0.
          5    1    3    3  501    0  0.79821018607E+02 -0.14867755196E+03 -0.87877668936E+02  0.19031811308E+03  0.47000000000E+01 0. -1.
        -13    1    4    4    0    0 -0.31662154192E+00 -0.34570165549E+02 -0.40018129305E+02  0.52883336396E+02  0.00000000000E+00 0.  1.
         14    1    4    4    0    0  0.28475898261E+02  0.29511171560E+02  0.44912227830E+01  0.41254782883E+02  0.00000000000E+00 0. -1.
         -5    1    5    5    0  502 -0.10009091940E+02 -0.13880429769E+02  0.10649966558E+03  0.10796812965E+03  0.47000000000E+01 0.  1.
         11    1    6    6    0    0 -0.37581462500E+02  0.27813577909E+02  0.96588836545E+02  0.10730966771E+03  0.00000000000E+00 0. -1.
        -12    1    6    6    0    0 -0.60389740887E+02  0.13980339781E+03  0.11335660943E+03  0.18984633719E+03  0.00000000000E+00 0.  1.
</event>
<event>
12    1  0.8691829E-002  0.2624509E+03  0.7818608E-02  0.1105771E+00
         21   -1    0    0  503  502  0.00000000000E+00  0.00000000000E+00  0.15252211925E+03  0.15252211925E+03  0.00000000000E+00 0.  1.
         21   -1    0    0  501  503 -0.00000000000E+00 -0.00000000000E+00 -0.11564258300E+04  0.11564258300E+04  0.00000000000E+00 0. -1.
          6    2    1    2  501    0 -0.61353530195E+01  0.19790796908E+03  0.91429172091E+01  0.26261014326E+03  0.17226516661E+03 0.  0.
         24    2    3    3    0    0  0.32893965073E+02  0.15921690381E+03 -0.43888773190E+02  0.18609389408E+03  0.79200237394E+02 0.  0.
         -6    2    1    2    0  502  0.61353530195E+01 -0.19790796908E+03 -0.10130466280E+04  0.10463378060E+04  0.17133046150E+03 0.  0.
        -24    2    5    5    0    0 -0.10495620183E+02 -0.21911746118E+03 -0.93666758272E+03  0.96520655198E+03  0.78453219374E+02 0.  0.
          5    1    3    3  501    0 -0.39029318093E+02  0.38691065262E+02  0.53031690399E+02  0.76516249179E+02  0.47000000000E+01 0. -1.
        -13    1    4    4    0    0  0.50242484554E+02  0.61406104162E+02 -0.52776046350E+01  0.79516476237E+02  0.00000000000E+00 0.  1.
         14    1    4    4    0    0 -0.17348519481E+02  0.97810799652E+02 -0.38611168555E+02  0.10657741784E+03  0.00000000000E+00 0. -1.
         -5    1    5    5    0  502  0.16630973203E+02  0.21209492107E+02 -0.76379045282E+02  0.81131254047E+02  0.47000000000E+01 0.  1.
         11    1    6    6    0    0  0.16412950923E+02 -0.16018179840E+03 -0.76400734560E+03  0.78079114853E+03  0.00000000000E+00 0. -1.
        -12    1    6    6    0    0 -0.26908571106E+02 -0.58935662780E+02 -0.17266023711E+03  0.18441540344E+03  0.00000000000E+00 0.  1.
</event>
<event>
12    1  0.8691829E-002  0.1852431E+03  0.7818608E-02  0.1162907E+00
         21   -1    0    0  501  502  0.00000000000E+00  0.00000000000E+00  0.94662387965E+03  0.94662387965E+03  0.00000000000E+00 0. -1.
         21   -1    0    0  502  503 -0.00000000000E+00 -0.00000000000E+00 -0.70951133657E+02  0.70951133657E+02  0.00000000000E+00 0. -1.
         -6    2    1    2    0  503 -0.64379405444E+02  0.27951625443E+02  0.81874034083E+02  0.20252990992E+03  0.17143221910E+03 0.  0.
        -24    2    3    3    0    0 -0.20760675096E+02  0.62169370763E+02  0.92400741047E+01  0.11103548455E+03  0.89148547766E+02 0.  0.
          6    2    1    2  501    0  0.64379405444E+02 -0.27951625443E+02  0.79379871191E+03  0.81504510338E+03  0.17104421741E+03 0.  0.
         24    2    5    5    0    0  0.19971327155E+02 -0.76558634724E+02  0.42851289388E+03  0.44384362491E+03  0.84343255159E+02 0.  0.
          5    1    5    5  501    0  0.44408078290E+02  0.48607009281E+02  0.36528581803E+03  0.37120147847E+03  0.47000000000E+01 0. -1.
        -11    1    6    6    0    0 -0.13514229002E+02 -0.31105007095E+02  0.45802162943E+02  0.56991174599E+02  0.00000000000E+00 0.  1.
         12    1    6    6    0    0  0.33485556156E+02 -0.45453627628E+02  0.38271073094E+03  0.38685245031E+03  0.00000000000E+00 0. -1.
         -5    1    3    3    0  503 -0.43618730348E+02 -0.34217745320E+02  0.72633959978E+02  0.91494425372E+02  0.47000000000E+01 0.  1.
         13    1    4    4    0    0 -0.12070582809E+02 -0.19610524124E+02 -0.12181421518E+02  0.26051077827E+02  0.00000000000E+00 0. -1.
        -14    1    4    4    0    0 -0.86900922868E+01  0.81779894887E+02  0.21421495622E+02  0.84984406725E+02  0.00000000000E+00 0.  1.
</event>
<event>
12    1  0.8691829E-002  0.1795201E+03  0.7818608E-02  0.1169109E+00
         21   -1    0    0  503  502  0.00000000000E+00  0.00000000000E+00  0.12472023187E+03  0.12472023187E+03  0.00000000000E+00 0. -1.
         21   -1    0    0  501  503 -0.00000000000E+00 -0.00000000000E+00 -0.26906571717E+03  0.26906571717E+03  0.00000000000E+00 0.  1.
          6    2    1    2  501    0 -0.31444339050E+02 -0.43735305023E+02 -0.11889031290E+03  0.21247015567E+03  0.16765183323E+03 0.  0.
         24    2    3    3    0    0 -0.68485509501E+02  0.10926136412E+02 -0.46566730445E+02  0.11442571642E+03  0.78199352467E+02 0.  0.
         -6    2    1    2    0  502  0.31444339050E+02  0.43735305023E+02 -0.25455172401E+02  0.18131579336E+03  0.17124814673E+03 0.  0.
        -24    2    5    5    0    0 -0.15220829850E+02 -0.24772682309E+02 -0.43283066833E+02  0.96398738914E+02  0.81079797358E+02 0.  0.
          5    1    3    3  501    0  0.37041170451E+02 -0.54661441435E+02 -0.72323582454E+02  0.98044439246E+02  0.47000000000E+01 0. -1.
        -11    1    4    4    0    0 -0.57298225928E+02 -0.13894875906E+02 -0.59953659283E+02  0.84086833288E+02  0.00000000000E+00 0.  1.
         12    1    4    4    0    0 -0.11187283573E+02  0.24821012318E+02  0.13386928838E+02  0.30338883136E+02  0.00000000000E+00 0. -1.
         -5    1    5    5    0  502  0.46665168900E+02  0.68507987332E+02  0.17827894432E+02  0.84917054451E+02  0.47000000000E+01 0.  1.
         13    1    6    6    0    0 -0.11537159282E+02 -0.18640477584E+02  0.21804402553E+02  0.30919337307E+02  0.00000000000E+00 0. -1.
        -14    1    6    6    0    0 -0.36836705678E+01 -0.61322047259E+01 -0.65087469386E+02  0.65479401606E+02  0.00000000000E+00 0.  1.
</event>
<event>
12    1  0.8691829E-002  0.2260390E+03  0.7818608E-02  0.1129511E+00
         21   -1    0    0  501  502  0.00000000000E+00  0.00000000000E+00  0.21296166464E+04  0.21296166464E+04  0.00000000000E+00 0.  1.
         21   -1    0    0  502  503 -0.00000000000E+00 -0.00000000000E+00 -0.25848519650E+02  0.25848519650E+02  0.00000000000E+00 0. -1.
         -6    2    1    2    0  503  0.12897370086E+03  0.67377978017E+02  0.76129336778E+03  0.79414180755E+03  0.17297286274E+03 0.  0.
        -24    2    3    3    0    0  0.11544446875E+03  0.11014288385E+03  0.65171540505E+03  0.67564582784E+03  0.79406770911E+02 0.  0.
          6    2    1    2  501    0 -0.12897370086E+03 -0.67377978017E+02  0.13424747590E+04  0.13613233585E+04  0.17259432344E+03 0.  0.
         24    2    5    5    0    0 -0.13352541458E+03 -0.34645878653E+02  0.12852568278E+04  0.12950806979E+04  0.79495456481E+02 0.  0.
          5    1    5    5  501    0  0.45517137215E+01 -0.32732099364E+02  0.57217931184E+02  0.66242660540E+02  0.47000000000E+01 0. -1.
        -11    1    6    6    0    0 -0.71722929877E+02 -0.58773496369E+02  0.72224491328E+03  0.72817320557E+03  0.00000000000E+00 0.  1.
         12    1    6    6    0    0 -0.61802484700E+02  0.24127617715E+02  0.56301191449E+03  0.56690749237E+03  0.00000000000E+00 0. -1.
         -5    1    3    3    0  503  0.13529232106E+02 -0.42764905836E+02  0.10957796272E+03  0.11849597971E+03  0.47000000000E+01 0.  1.
         13    1    4    4    0    0  0.41310617599E+02 -0.46321192781E+01  0.15644537710E+03  0.16187396230E+03  0.00000000000E+00 0. -1.
        -14    1    4    4    0    0  0.74133851150E+02  0.11477500313E+03  0.49527002795E+03  0.51377186554E+03  0.00000000000E+00 0.  1.
</event>
<event>
12    1  0.8691829E-002  0.1964491E+03  0.7818608E-02  0.1153028E+00
         21   -1    0    0  503  502  0.00000000000E+00  0.00000000000E+00  0.96336632279E+02  0.96336632279E+02  0.00000000000E+00 0.  1.
         21   -1    0    0  501  503 -0.00000000000E+00 -0.00000000000E+00 -0.12729026722E+04  0.12729026722E+04  0.00000000000E+00 0.  1.
          6    2    1    2  501    0 -0.49903995229E+02  0.78173344277E+02 -0.11563744319E+04  0.11729424835E+04  0.17317841195E+03 0.  0.
         24    2    3    3    0    0 -0.24880339058E+02  0.99942537713E+02 -0.54263101580E+03  0.55828554508E+03  0.81405088405E+02 0.  0.
         -6    2    1    2    0  502  0.49903995229E+02 -0.78173344277E+02 -0.20191608009E+02  0.19629682096E+03  0.17182334065E+03 0.  0.
        -24    2    5    5    0    0 -0.21444525482E+02  0.13524479274E+02 -0.25676631725E+02  0.79886865474E+02  0.71273014850E+02 0.  0.
          5    1    3    3  501    0 -0.25023656171E+02 -0.21769193436E+02 -0.61374341612E+03  0.61465693845E+03  0.47000000000E+01 0. -1.
        -13    1    4    4    0    0 -0.42410661411E+02  0.64832719214E+02 -0.46381013078E+03  0.47023588027E+03  0.00000000000E+00 0.  1.
         14    1    4    4    0    0  0.17530322353E+02  0.35109818499E+02 -0.78820885019E+02  0.88049664804E+02  0.00000000000E+00 0. -1.
         -5    1    5    5    0  502  0.71348520711E+02 -0.91697823551E+02  0.54850237160E+01  0.11640995549E+03  0.47000000000E+01 0.  1.
         11    1    6    6    0    0 -0.18111055560E+02 -0.24548225184E+02 -0.28255990031E+02  0.41581566418E+02  0.00000000000E+00 0. -1.
        -12    1    6    6    0    0 -0.33334699225E+01  0.38072704458E+02  0.25793583056E+01  0.38305299056E+02  0.00000000000E+00 0.  1.
</event>
<event>
12    1  0.8691829E-002  0.1788664E+03  0.7818608E-02  0.1168911E+00
         21   -1    0    0  501  502  0.00000000000E+00  0.00000000000E+00  0.57156645377E+03  0.57156645377E+03  0.00000000000E+00 0. -1.
         21   -1    0    0  502  503 -0.00000000000E+00 -0.00000000000E+00 -0.26756898850E+03  0.26756898850E+03  0.00000000000E+00 0. -1.
         -6    2    1    2    0  503 -0.42908543902E+02 -0.26287413416E+02 -0.22111545073E+03  0.28440326942E+03  0.17164208650E+03 0.  0.
        -24    2    3    3    0    0 -0.39042963110E+00 -0.34921626650E+02 -0.22429468301E+03  0.24064784464E+03  0.79897483455E+02 0.  0.
          6    2    1    2  501    0  0.42908543902E+02  0.26287413416E+02  0.52511291600E+03  0.55473217286E+03  0.17161596024E+03 0.  0.
         24    2    5    5    0    0 -0.37178293817E+02 -0.12869191494E+02  0.23787745297E+03  0.25394413701E+03  0.79712611745E+02 0.  0.
          5    1    5    5  501    0  0.80086837719E+02  0.39156604911E+02  0.28723546304E+03  0.30078803585E+03  0.47000000000E+01 0. -1.
        -11    1    6    6    0    0 -0.19442198500E+02  0.46384099532E+01  0.61960158315E+01  0.20926168822E+02  0.00000000000E+00 0.  1.
         12    1    6    6    0    0 -0.17736095318E+02 -0.17507601448E+02  0.23168143713E+03  0.23301796819E+03  0.00000000000E+00 0. -1.
         -5    1    3    3    0  503 -0.42518114271E+02  0.86342132342E+01  0.31792322733E+01  0.43755424774E+02  0.47000000000E+01 0.  1.
         13    1    4    4    0    0 -0.23947030029E+02 -0.19235627080E+02 -0.25707887398E+02  0.40054526221E+02  0.00000000000E+00 0. -1.
        -14    1    4    4    0    0  0.23556600397E+02 -0.15685999571E+02 -0.19858679561E+03  0.20059331842E+03  0.00000000000E+00 0.  1.
</event>
<event>
12    1  0.8691829E-002  0.2187128E+03  0.7818608E-02  0.1134863E+00
         21   -1    0    0  503  502  0.00000000000E+00  0.00000000000E+00  0.35200685326E+03  0.35200685326E+03  0.00000000000E+00 0.  1.
         21   -1    0    0  501  503 -0.00000000000E+00 -0.00000000000E+00 -0.30527019288E+03  0.30527019288E+03  0.00000000000E+00 0.  1.
          6    2    1    2  501    0  0.38012399103E+02  0.12909222617E+03 -0.22146928251E+03  0.31119941770E+03  0.17229825634E+03 0.  0.
         24    2    3    3    0    0 -0.43199110118E+02  0.79260646381E+02 -0.14858848478E+03  0.19114861074E+03  0.79440798071E+02 0.  0.
         -6    2    1    2    0  502 -0.38012399103E+02 -0.12909222617E+03  0.26820594289E+03  0.34607762844E+03  0.17241099664E+03 0.  0.
        -24    2    5    5    0    0  0.35440557012E+02 -0.40253941527E+02  0.76130229596E+02  0.12201793278E+03  0.78842572083E+02 0.  0.
          5    1    3    3  501    0  0.81211509221E+02  0.49831579786E+02 -0.72880797731E+02  0.12005080696E+03  0.47000000000E+01 0. -1.
        -13    1    4    4    0    0  0.14272676661E+02  0.28965077842E+02 -0.87762334893E+02  0.93514236666E+02  0.00000000000E+00 0.  1.
         14    1    4    4    0    0 -0.57471786778E+02  0.50295568539E+02 -0.60826149884E+02  0.97634374069E+02  0.00000000000E+00 0. -1.
         -5    1    5    5    0  502 -0.73452956115E+02 -0.88838284640E+02  0.19207571330E+03  0.22405969566E+03  0.47000000000E+01 0.  1.
         11    1    6    6    0    0 -0.18377599358E+02 -0.25535235938E+02  0.53849228806E+01  0.31918361910E+02  0.00000000000E+00 0. -1.
        -12    1    6    6    0    0  0.53818156370E+02 -0.14718705588E+02  0.70745306716E+02  0.90099570874E+02  0.00000000000E+00 0.  1.
</event>
<event>
12    1  0.8691829E-002  0.1969495E+03  0.7818608E-02  0.1153167E+00
         21   -1    0    0  503  502  0.00000000000E+00  0.00000000000E+00  0.10023533799E+04  0.10023533799E+04  0.00000000000E+00 0.  1.
         21   -1    0    0  501  503 -0.00000000000E+00 -0.00000000000E+00 -0.10906257672E+03  0.10906257672E+03  0.00000000000E+00 0.  1.
          6    2    1    2  501    0  0.30701317142E+02 -0.81263686565E+02 -0.35806154240E+01  0.19317445972E+03  0.17250273462E+03 0.  0.
         24    2    3    3    0    0  0.48863410819E+02 -0.32849548711E+02 -0.69115916116E+02  0.10956371862E+03  0.61322694080E+02 0.  0.
         -6    2    1    2    0  502 -0.30701317142E+02  0.81263686565E+02  0.89687141861E+03  0.91824149690E+03  0.17675618088E+03 0.  0.
        -24    2    5    5    0    0 -0.20771932792E+02  0.29955167978E+02  0.19010384230E+03  0.20952882333E+03  0.80212665264E+02 0.  0.
          5    1    3    3  501    0 -0.18162093677E+02 -0.48414137854E+02  0.65535300693E+02  0.83610741103E+02  0.47000000000E+01 0. -1.
        -13    1    4    4    0    0 -0.18450395639E+01  0.30337009828E+01 -0.41380888195E+02  0.41532943797E+02  0.00000000000E+00 0.  1.
         14    1    4    4    0    0  0.50708450383E+02 -0.35883249694E+02 -0.27735027922E+02  0.68030774820E+02  0.00000000000E+00 0. -1.
         -5    1    5    5    0  502 -0.99293843499E+01  0.51308518587E+02  0.70676757630E+03  0.70871267356E+03  0.47000000000E+01 0.  1.
         11    1    6    6    0    0 -0.45208736637E+02 -0.48117090327E+01  0.10429867207E+03  0.11377695464E+03  0.00000000000E+00 0. -1.
        -12    1    6    6    0    0  0.24436803844E+02  0.34766877011E+02  0.85805170234E+02  0.95751868692E+02  0.00000000000E+00 0.  1.
</event>
<event>
12    1  0.8691829E-002  0.1747660E+03  0.7818608E-02  0.1173741E+00
         21   -1    0    0  501  502  0.00000000000E+00  0.00000000000E+00  0.25371291808E+03  0.25371291808E+03  0.00000000000E+00 0. -1.
         21   -1    0    0  502  503 -0.00000000000E+00 -0.00000000000E+00 -0.42437439849E+03  0.42437439849E+03  0.00000000000E+00 0. -1.
         -6    2    1    2    0  503 -0.33761205158E+02 -0.16005764198E+02 -0.37347507627E+03  0.41234306517E+03  0.17072541504E+03 0.  0.
        -24    2    3    3    0    0 -0.44166981774E+02  0.32689459362E+02 -0.18042394344E+03  0.21291805452E+03  0.98802710210E+02 0.  0.
          6    2    1    2  501    0  0.33761205158E+02  0.16005764198E+02  0.20281359586E+03  0.26574425140E+03  0.16760265221E+03 0.  0.
         24    2    5    5    0    0  0.80966822387E+01 -0.38644849410E+02  0.50801641481E+02  0.10211332041E+03  0.79292766249E+02 0.  0.
          5    1    5    5  501    0  0.25664522919E+02  0.54650613608E+02  0.15201195437E+03  0.16363093099E+03  0.47000000000E+01 0. -1.
        -13    1    6    6    0    0 -0.33954812034E+02 -0.30197696400E+02  0.29942548848E+02  0.54418621442E+02  0.00000000000E+00 0.  1.
         14    1    6    6    0    0  0.42051494272E+02 -0.84471530103E+01  0.20859092633E+02  0.47694698972E+02  0.00000000000E+00 0. -1.
         -5    1    3    3    0  503  0.10405776616E+02 -0.48695223560E+02 -0.19305113283E+03  0.19942501065E+03  0.47000000000E+01 0.  1.
         11    1    4    4    0    0 -0.67546857391E+01 -0.15014125356E+02 -0.13786998682E+03  0.13884949768E+03  0.00000000000E+00 0. -1.
        -12    1    4    4    0    0 -0.37412296035E+02  0.47703584718E+02 -0.42553956616E+02  0.74068556846E+02  0.00000000000E+00 0.  1.
</event>
<event>
12    1  0.8691829E-002  0.1952025E+03  0.7818608E-02  0.1154177E+00
         21   -1    0    0  501  502  0.00000000000E+00  0.00000000000E+00  0.50567681239E+03  0.50567681239E+03  0.00000000000E+00 0.  1.
         21   -1    0    0  502  503 -0.00000000000E+00 -0.00000000000E+00 -0.14122913018E+03  0.14122913018E+03  0.00000000000E+00 0.  1.
         -6    2    1    2    0  503 -0.69439361017E+02 -0.56598686413E+02  0.40446555783E+03  0.44910621440E+03  0.17343231585E+03 0.  0.
        -24    2    3    3    0    0 -0.99668483617E+02 -0.17533327943E+01  0.24122911998E+03  0.27420613634E+03  0.84027591150E+02 0.  0.
          6    2    1    2  501    0  0.69439361017E+02  0.56598686413E+02 -0.40017875617E+02  0.19779972817E+03  0.17175000999E+03 0.  0.
         24    2    5    5    0    0  0.60504723860E+02  0.19024288531E+02 -0.91104563836E+02  0.13358444314E+03  0.74310273415E+02 0.  0.
          5    1    5    5  501    0  0.89346371566E+01  0.37574397882E+02  0.51086688218E+02  0.64215285022E+02  0.47000000000E+01 0. -1.
        -13    1    6    6    0    0  0.71406646645E+02  0.65471190159E+01 -0.92406152730E+02  0.11696440063E+03  0.00000000000E+00 0.  1.
         14    1    6    6    0    0 -0.10901922785E+02  0.12477169515E+02  0.13015888947E+01  0.16620042514E+02  0.00000000000E+00 0. -1.
         -5    1    3    3    0  503  0.30229122600E+02 -0.54845353619E+02  0.16323643784E+03  0.17490007806E+03  0.47000000000E+01 0.  1.
         11    1    4    4    0    0 -0.86587842101E+02 -0.16597126063E+01  0.99649910277E+02  0.13202391323E+03  0.00000000000E+00 0. -1.
        -12    1    4    4    0    0 -0.13080641515E+02 -0.93620188013E-01  0.14157920971E+03  0.14218222311E+03  0.00000000000E+00 0.  1.
</event>
<event>
12    1  0.8691829E-002  0.2495584E+03  0.7818608E-02  0.1113643E+00
         21   -1    0    0  501  502  0.00000000000E+00  0.00000000000E+00  0.79925863350E+02  0.79925863350E+02  0.00000000000E+00 0. -1.
         21   -1    0    0  502  503 -0.00000000000E+00 -0.00000000000E+00 -0.13599032487E+04  0.13599032487E+04  0.00000000000E+00 0.  1.
         -6    2    1    2    0  503 -0.81012063677E+02  0.16064270274E+03 -0.11106172952E+04  0.11382296383E+04  0.17241490877E+03 0.  0.
        -24    2    3    3    0    0 -0.67681407535E+01  0.14708771020E+03 -0.87036369351E+03  0.88635708913E+03  0.80095744284E+02 0.  0.
          6    2    1    2  501    0  0.81012063677E+02 -0.16064270274E+03 -0.16936009016E+03  0.30159947373E+03  0.17294614772E+03 0.  0.
         24    2    5    5    0    0  0.12201456672E+03 -0.11407326390E+03 -0.10934600101E+03  0.21514891685E+03  0.80201274646E+02 0.  0.
          5    1    5    5  501    0 -0.41002503041E+02 -0.46569438833E+02 -0.60014089150E+02  0.86450556883E+02  0.47000000000E+01 0. -1.
        -11    1    6    6    0    0 -0.29215240960E+01 -0.31990773684E+02 -0.37235705112E+02  0.49177664027E+02  0.00000000000E+00 0.  1.
         12    1    6    6    0    0  0.12493609081E+03 -0.82082490221E+02 -0.72110295898E+02  0.16597125282E+03  0.00000000000E+00 0. -1.
         -5    1    3    3    0  503 -0.74243922923E+02  0.13554992539E+02 -0.24025360167E+03  0.25187254918E+03  0.47000000000E+01 0.  1.
         11    1    4    4    0    0  0.32519043493E+02  0.32259416517E+02 -0.26849539977E+03  0.27237462775E+03  0.00000000000E+00 0. -1.
        -12    1    4    4    0    0 -0.39287184246E+02  0.11482829368E+03 -0.60186829374E+03  0.61398246138E+03  0.00000000000E+00 0.  1.
</event>
<event>
12    1  0.8691829E-002  0.2587865E+03  0.7818608E-02  0.1107891E+00
         21   -1    0    0  501  502  0.00000000000E+00  0.00000000000E+00  0.96614670589E+03  0.96614670589E+03  0.00000000000E+00 0. -1.
         21   -1    0    0  502  503 -0.00000000000E+00 -0.00000000000E+00 -0.75423845980E+02  0.75423845980E+02  0.00000000000E+00 0. -1.
         -6    2    1    2    0  503 -0.18659499010E+03  0.46272178845E+02  0.29674598097E+03  0.39366702968E+03  0.17308017845E+03 0.  0.
        -24    2    3    3    0    0 -0.21034483494E+03  0.42309169277E+02  0.23839502677E+03  0.33036865348E+03  0.79222743056E+02 0.  0.
          6    2    1    2  501    0  0.18659499010E+03 -0.46272178845E+02  0.59397687894E+03  0.64790352219E+03  0.17323866913E+03 0.  0.
         24    2    5    5    0    0  0.46290965599E+02  0.27947661204E+02  0.15759404366E+03  0.18352665705E+03  0.76956000338E+02 0.  0.
          5    1    5    5  501    0  0.14030402450E+03 -0.74219840049E+02  0.43638283528E+03  0.46437686514E+03  0.47000000000E+01 0. -1.
        -11    1    6    6    0    0 -0.97143808697E+01 -0.18270914420E+02  0.45270623538E+02  0.49775745750E+02  0.00000000000E+00 0.  1.
         12    1    6    6    0    0  0.56005346469E+02  0.46218575624E+02  0.11232342012E+03  0.13375091130E+03  0.00000000000E+00 0. -1.
         -5    1    3    3    0  503  0.23749844844E+02  0.39630095681E+01  0.58350954196E+02  0.63298376208E+02  0.47000000000E+01 0.  1.
         13    1    4    4    0    0 -0.14141750477E+03  0.44468218683E+02  0.20697285779E+03  0.25458612883E+03  0.00000000000E+00 0. -1.
        -14    1    4    4    0    0 -0.68927330170E+02 -0.21590494062E+01  0.31422168985E+02  0.75782524650E+02  0.00000000000E+00 0.  1.
</event>
<event>
12    1  0.8691829E-002  0.1860574E+03  0.7818608E-02  0.1162160E+00
         21   -1    0    0  501  502  0.00000000000E+00  0.00000000000E+00  0.86206571802E+03  0.86206571802E+03  0.00000000000E+00 0. -1.
         21   -1    0    0  502  503 -0.00000000000E+00 -0.00000000000E+00 -0.44731054167E+02  0.44731054167E+02  0.00000000000E+00 0.  1.
         -6    2    1    2    0  503 -0.27308741588E+02 -0.65907845992E+02  0.26188975013E+03  0.32101832094E+03  0.17139693588E+03 0.  0.
        -24    2    3    3    0    0 -0.63280230432E+02  0.11368120874E+02  0.12865155670E+03  0.16277790495E+03  0.76235172745E+02 0.  0.
          6    2    1    2  501    0  0.27308741588E+02  0.65907845992E+02  0.55544491373E+03  0.58577845125E+03  0.17183634723E+03 0.  0.
         24    2    5    5    0    0 -0.91663340404E+01 -0.25861310917E+02  0.31432017005E+03  0.32517292307E+03  0.78660228303E+02 0.  0.
          5    1    5    5  501    0  0.36475075628E+02  0.91769156909E+02  0.24112474368E+03  0.26060552817E+03  0.47000000000E+01 0. -1.
        -11    1    6    6    0    0 -0.10882129771E+02  0.27621533468E+02  0.10427524314E+03  0.10841907670E+03  0.00000000000E+00 0.  1.
         12    1    6    6    0    0  0.17157957304E+01 -0.53482844385E+02  0.21004492691E+03  0.21675384637E+03  0.00000000000E+00 0. -1.
         -5    1    3    3    0  503  0.35971488845E+02 -0.77275966866E+02  0.13323819343E+03  0.15824041599E+03  0.47000000000E+01 0.  1.
         11    1    4    4    0    0 -0.72721383159E+02  0.71855916929E+01  0.13285729812E+03  0.15162814369E+03  0.00000000000E+00 0. -1.
        -12    1    4    4    0    0  0.94411527267E+01  0.41825291812E+01 -0.42057414217E+01  0.11149761256E+02  0.00000000000E+00 0.  1.
</event>
<event>
12    1  0.8691829E-002  0.2283340E+03  0.7818608E-02  0.1127826E+00
         21   -1    0    0  503  502  0.00000000000E+00  0.00000000000E+00  0.33506299842E+03  0.33506299842E+03  0.00000000000E+00 0. -1.
         21   -1    0    0  501  503 -0.00000000000E+00 -0.00000000000E+00 -0.25074848286E+03  0.25074848286E+03  0.00000000000E+00 0. -1.
          6    2    1    2  501    0 -0.84743165776E+02  0.12368770945E+03 -0.13829861500E+03  0.26695112752E+03  0.17221017379E+03 0.  0.
         24    2    3    3    0    0 -0.78083009898E+02  0.15511684441E+03 -0.96941209543E+02  0.21437096789E+03  0.79994511757E+02 0.  0.
         -6    2    1    2    0  502  0.84743165776E+02 -0.12368770945E+03  0.22261313056E+03  0.31886035376E+03  0.17214896366E+03 0.  0.
        -24    2    5    5    0    0  0.68603181563E+02 -0.57247815976E+02  0.22092722900E+03  0.25030606288E+03  0.76554396626E+02 0.  0.
          5    1    3    3  501    0 -0.66601558778E+01 -0.31429134960E+02 -0.41357405460E+02  0.52580159633E+02  0.47000000000E+01 0. -1.
        -13    1    4    4    0    0 -0.33522566415E+02  0.41497408203E+01 -0.16105849847E+02  0.37421667616E+02  0.00000000000E+00 0.  1.
         14    1    4    4    0    0 -0.44560443484E+02  0.15096710359E+03 -0.80835359697E+02  0.17694930027E+03  0.00000000000E+00 0. -1.
         -5    1    5    5    0  502  0.16139984213E+02 -0.66439893470E+02  0.16859015576E+01  0.68554290885E+02  0.47000000000E+01 0.  1.
         11    1    6    6    0    0  0.18996766310E+02  0.11840045581E+02  0.99931173930E+02  0.10240753553E+03  0.00000000000E+00 0. -1.
        -12    1    6    6    0    0  0.49606415253E+02 -0.69087861557E+02  0.12099605507E+03  0.14789852735E+03  0.00000000000E+00 0.  1.
</event>
<event>
12    1  0.8691829E-002  0.2198203E+03  0.7818608E-02  0.1135931E+00
         21   -1    0    0  503  502  0.00000000000E+00  0.00000000000E+00  0.38396534906E+03  0.38396534906E+03  0.00000000000E+00 0.  1.
         21   -1    0    0  501  503 -0.00000000000E+00 -0.00000000000E+00 -0.38349245768E+03  0.38349245768E+03  0.00000000000E+00 0.  1.
          6    2    1    2  501    0  0.11645832191E+03 -0.26831977618E+02 -0.31770230438E+03  0.38073256553E+03  0.17245299790E+03 0.  0.
         24    2    3    3    0    0  0.85909970097E+02 -0.11852896494E+02 -0.32516993608E+03  0.34558387860E+03  0.78560267961E+02 0.  0.
         -6    2    1    2    0  502 -0.11645832191E+03  0.26831977618E+02  0.31817519576E+03  0.38672524121E+03  0.18449515232E+03 0.  0.
        -24    2    5    5    0    0 -0.15354410626E+03  0.30829843969E+02  0.29182503367E+03  0.34081490056E+03  0.80415634793E+02 0.  0.
          5    1    3    3  501    0  0.30548351810E+02 -0.14979081124E+02  0.74676317000E+01  0.35148686929E+02  0.47000000000E+01 0. -1.
        -13    1    4    4    0    0  0.67910378541E+02  0.26386366217E+02 -0.17450303151E+03  0.18910147498E+03  0.00000000000E+00 0.  1.
         14    1    4    4    0    0  0.17999591557E+02 -0.38239262710E+02 -0.15066690457E+03  0.15648240362E+03  0.00000000000E+00 0. -1.
         -5    1    5    5    0  502  0.37085784356E+02 -0.39978663511E+01  0.26350162084E+02  0.45910340650E+02  0.47000000000E+01 0.  1.
         11    1    6    6    0    0 -0.70061005332E+02  0.46338475642E+02  0.97155884973E+02  0.12843311402E+03  0.00000000000E+00 0. -1.
        -12    1    6    6    0    0 -0.83483100932E+02 -0.15508631673E+02  0.19466914870E+03  0.21238178654E+03  0.00000000000E+00 0.  1.
</event>
<event>
12    1  0.8691829E-002  0.1742843E+03  0.7818608E-02  0.1173667E+00
         21   -1    0    0  501  502  0.00000000000E+00  0.00000000000E+00  0.42469047494E+02  0.42469047494E+02  0.00000000000E+00 0.  1.
         21   -1    0    0  502  503 -0.00000000000E+00 -0.00000000000E+00 -0.71941009740E+03  0.71941009740E+03  0.00000000000E+00 0.  1.
         -6    2    1    2    0  503 -0.25432125249E+01 -0.27764130142E+02 -0.29833336333E+03  0.34508328900E+03  0.17117933818E+03 0.  0.
        -24    2    3    3    0    0 -0.95682312176E+01  0.39881493905E+02 -0.96193075109E+02  0.13175708934E+03  0.80154465177E+02 0.  0.
          6    2    1    2  501    0  0.25432125249E+01  0.27764130142E+02 -0.37860768657E+03  0.41679585589E+03  0.17203979278E+03 0.  0.
         24    2    5    5    0    0 -0.46483538832E+02  0.29731578851E+02 -0.34213932381E+03  0.35548089291E+03  0.79136983506E+02 0.  0.
          5    1    5    5  501    0  0.49026751357E+02 -0.19674487091E+01 -0.36468362758E+02  0.61314962981E+02  0.47000000000E+01 0. -1.
        -11    1    6    6    0    0 -0.34831802248E+02  0.11140614495E+02 -0.47116639729E+02  0.59643486472E+02  0.00000000000E+00 0.  1.
         12    1    6    6    0    0 -0.11651736584E+02  0.18590964356E+02 -0.29502268409E+03  0.29583740643E+03  0.00000000000E+00 0. -1.
         -5    1    3    3    0  503  0.70250186926E+01 -0.67645624047E+02 -0.20214028822E+03  0.21332619966E+03  0.47000000000E+01 0.  1.
         11    1    4    4    0    0 -0.31743463125E+02  0.28474549659E+02 -0.97877117386E+02  0.10676318437E+03  0.00000000000E+00 0. -1.
        -12    1    4    4    0    0  0.22175231908E+02  0.11406944246E+02  0.16840422768E+01  0.24993904969E+02  0.00000000000E+00 0.  1.
</event>
<event>
12    1  0.8691829E-002  0.2748987E+03  0.7818608E-02  0.1099554E+00
         21   -1    0    0  501  502  0.00000000000E+00  0.00000000000E+00  0.51961663723E+03  0.51961663723E+03  0.00000000000E+00 0.  1.
         21   -1    0    0  502  503 -0.00000000000E+00 -0.00000000000E+00 -0.14722530200E+03  0.14722530200E+03  0.00000000000E+00 0. -1.
         -6    2    1    2    0  503  0.12234311320E+03  0.16451154547E+03  0.25403519026E+03  0.37430357384E+03  0.18313219694E+03 0.  0.
        -24    2    3    3    0    0  0.98270269378E+02  0.73677507717E+02  0.59990260563E+02  0.15865142577E+03  0.80535846370E+02 0.  0.
          6    2    1    2  501    0 -0.12234311320E+03 -0.16451154547E+03  0.11835614496E+03  0.29253836538E+03  0.17186806634E+03 0.  0.
         24    2    5    5    0    0 -0.13265354461E+03 -0.14991371650E+03  0.51654853190E+02  0.22332453778E+03  0.84466206423E+02 0.  0.
          5    1    5    5  501    0  0.10310431403E+02 -0.14597828970E+02  0.66701291775E+02  0.69213827598E+02  0.47000000000E+01 0. -1.
        -11    1    6    6    0    0 -0.54856392905E+02 -0.17048227010E+02  0.37735785331E+02  0.68730309044E+02  0.00000000000E+00 0.  1.
         12    1    6    6    0    0 -0.77797151703E+02 -0.13286548949E+03  0.13919067858E+02  0.15459422874E+03  0.00000000000E+00 0. -1.
         -5    1    3    3    0  503  0.24072843827E+02  0.90834037750E+02  0.19404492970E+03  0.21565214807E+03  0.47000000000E+01 0.  1.
         13    1    4    4    0    0 -0.17087349272E+01 -0.13697246332E+02  0.28227882788E+01  0.14089090311E+02  0.00000000000E+00 0. -1.
        -14    1    4    4    0    0  0.99979004305E+02  0.87374754049E+02  0.57167472284E+02  0.14456233546E+03  0.00000000000E+00 0.  1.
</event>
<event>
12    1  0.8691829E-002  0.1953236E+03  0.7818608E-02  0.1153967E+00
         21   -1    0    0  503  502  0.00000000000E+00  0.00000000000E+00  0.23689434534E+03  0.23689434534E+03  0.00000000000E+00 0. -1.
         21   -1    0    0  501  503 -0.00000000000E+00 -0.00000000000E+00 -0.48429808728E+03  0.48429808728E+03  0.00000000000E+00 0. -1.
          6    2    1    2  501    0 -0.76813807136E+02 -0.49444682719E+02 -0.41857671348E+03  0.46147815822E+03  0.17149486240E+03 0.  0.
         24    2    3    3    0    0 -0.40041550032E+02 -0.62476113072E+02 -0.12408039884E+03  0.16437180284E+03  0.78202006110E+02 0.  0.
         -6    2    1    2    0  502  0.76813807136E+02  0.49444682719E+02  0.17117297154E+03  0.25971427440E+03  0.17264466551E+03 0.  0.
        -24    2    5    5    0    0  0.50378738044E+02  0.33728233150E+02  0.16808297752E+02  0.10224566744E+03  0.80598056300E+02 0.  0.
          5    1    3    3  501    0 -0.36772257104E+02  0.13031430353E+02 -0.29449631464E+03  0.29710635537E+03  0.47000000000E+01 0. -1.
        -11    1    4    4    0    0  0.89092627905E+01 -0.27175254188E+02 -0.25881956453E+01  0.28715294885E+02  0.00000000000E+00 0.  1.
         12    1    4    4    0    0 -0.48950812822E+02 -0.35300858884E+02 -0.12149220320E+03  0.13565650796E+03  0.00000000000E+00 0. -1.
         -5    1    5    5    0  502  0.26435069093E+02  0.15716449568E+02  0.15436467379E+03  0.15746860696E+03  0.47000000000E+01 0.  1.
         11    1    6    6    0    0  0.46059723993E+02 -0.44255080393E+01  0.36646904470E+02  0.59026086631E+02  0.00000000000E+00 0. -1.
        -12    1    6    6    0    0  0.43190140505E+01  0.38153741189E+02 -0.19838606718E+02  0.43219580813E+02  0.00000000000E+00 0.  1.
</event>
<event>
12    1  0.8691829E-002  0.2100655E+03  0.7818608E-02  0.1142711E+00
         21   -1    0    0  501  502  0.00000000000E+00  0.00000000000E+00  0.10992267436E+03  0.10992267436E+03  0.00000000000E+00 0. -1.
         21   -1    0    0  502  503 -0.00000000000E+00 -0.00000000000E+00 -0.69289861518E+03  0.69289861518E+03  0.00000000000E+00 0. -1.
         -6    2    1    2    0  503  0.38231658027E+02 -0.11424361426E+03 -0.28523938247E+02  0.21199321327E+03  0.17208789715E+03 0.  0.
        -24    2    3    3    0    0  0.75574974892E+01 -0.29668151937E+02  0.44663516715E+02  0.95922517073E+02  0.79176919292E+02 0.  0.
          6    2    1    2  501    0 -0.38231658027E+02  0.11424361426E+03 -0.55445200258E+03  0.59082807628E+03  0.16476507361E+03 0.  0.
         24    2    5    5    0    0 -0.57154828424E+02  0.13916350900E+03 -0.42872437678E+03  0.46118003958E+03  0.79052394066E+02 0.  0.
          5    1    5    5  501    0  0.18923170398E+02 -0.24919894744E+02 -0.12572762580E+03  0.12964803670E+03  0.47000000000E+01 0. -1.
        -13    1    6    6    0    0 -0.21962842903E+02  0.61539685359E+02 -0.85940664877E+02  0.10795970184E+03  0.00000000000E+00 0.  1.
         14    1    6    6    0    0 -0.35191985521E+02  0.77623823641E+02 -0.34278371191E+03  0.35322033773E+03  0.00000000000E+00 0. -1.
         -5    1    3    3    0  503  0.30674160537E+02 -0.84575462319E+02 -0.73187454961E+02  0.11607069619E+03  0.47000000000E+01 0.  1.
         11    1    4    4    0    0 -0.26997999149E+02 -0.30479282873E+02  0.45872341313E+02  0.61336370450E+02  0.00000000000E+00 0. -1.
        -12    1    4    4    0    0  0.34555496638E+02  0.81113093598E+00 -0.12088245980E+01  0.34586146622E+02  0.00000000000E+00 0.  1.
</event>
<event>
12    1  0.8691829E-002  0.2010982E+03  0.7818608E-02  0.1151146E+00
         21   -1    0    0  503  502  0.00000000000E+00  0.00000000000E+00  0.30831527638E+02  0.30831527638E+02  0.00000000000E+00 0.  1.
         21   -1    0    0  501  503 -0.00000000000E+00 -0.00000000000E+00 -0.17354041229E+04  0.17354041229E+04  0.00000000000E+00 0.  1.
          6    2    1    2  501    0 -0.57478936401E+02  0.58788247254E+02 -0.13398088657E+04  0.13548166922E+04  0.18352271425E+03 0.  0.
         24    2    3    3    0    0 -0.99596324829E+02  0.50627415385E+02 -0.68721006924E+03  0.70079241684E+03  0.79810833419E+02 0.  0.
         -6    2    1    2    0  502  0.57478936401E+02 -0.58788247254E+02 -0.36476372957E+03  0.41141895837E+03  0.17161903959E+03 0.  0.
        -24    2    5    5    0    0  0.36922468735E+02 -0.62922214296E+02 -0.37293774064E+03  0.38842847113E+03  0.80446535310E+02 0.  0.
          5    1    3    3  501    0  0.42117388428E+02  0.81608318685E+01 -0.65259879645E+03  0.65402427532E+03  0.47000000000E+01 0. -1.
        -11    1    4    4    0    0 -0.48145738647E+02  0.12018876246E+02 -0.50743528925E+03  0.50985589956E+03  0.00000000000E+00 0.  1.
         12    1    4    4    0    0 -0.51450586182E+02  0.38608539139E+02 -0.17977477999E+03  0.19093651729E+03  0.00000000000E+00 0. -1.
         -5    1    5    5    0  502  0.20556467667E+02  0.41339670425E+01  0.81740110694E+01  0.22990487237E+02  0.47000000000E+01 0.  1.
         13    1    6    6    0    0  0.44192240294E+02 -0.32005947802E+02 -0.33280956641E+03  0.33725293519E+03  0.00000000000E+00 0. -1.
        -14    1    6    6    0    0 -0.72697715597E+01 -0.30916266494E+02 -0.40128174227E+02  0.51175535945E+02  0.00000000000E+00 0.  1.
</event>
<event>
12    1  0.8691829E-002  0.2172000E+03  0.7818608E-02  0.1136105E+00
         21   -1    0    0  501  502  0.00000000000E+00  0.00000000000E+00  0.54691132539E+03  0.54691132539E+03  0.00000000000E+00 0. -1.
         21   -1    0    0  502  503 -0.00000000000E+00 -0.00000000000E+00 -0.17600323883E+03  0.17600323883E+03  0.00000000000E+00 0.  1.
         -6    2    1    2    0  503  0.56880936518E+01 -0.13104591052E+03 -0.72876528841E+02  0.22910005526E+03  0.17311979029E+03 0.  0.
        -24    2    3    3    0    0  0.12601853069E+01  0.44439191746E+01 -0.39855638254E+02  0.89495006861E+02  0.79997174124E+02 0.  0.
          6    2    1    2  501    0 -0.56880936518E+01  0.13104591052E+03  0.44378461540E+03  0.49381450896E+03  0.17234442061E+03 0.  0.
         24    2    5    5    0    0 -0.51633212466E+02  0.14083142355E+03  0.33876071273E+03  0.37866755789E+03  0.78299555679E+02 0.  0.
          5    1    5    5  501    0  0.45945118814E+02 -0.97855130257E+01  0.10502390268E+03  0.11514695107E+03  0.47000000000E+01 0. -1.
        -11    1    6    6    0    0 -0.16689118509E+02  0.19807166237E+02  0.12154219287E+02  0.28610759470E+02  0.00000000000E+00 0.  1.
         12    1    6    6    0    0 -0.34944093957E+02  0.12102425731E+03  0.32660649344E+03  0.35005679842E+03  0.00000000000E+00 0. -1.
         -5    1    3    3    0  503  0.44279083449E+01 -0.13548982970E+03 -0.33020890587E+02  0.13960504840E+03  0.47000000000E+01 0.  1.
         11    1    4    4    0    0  0.31237542909E+02  0.27992199909E+02 -0.19071728407E+02  0.46076872368E+02  0.00000000000E+00 0. -1.
        -12    1    4    4    0    0 -0.29977357603E+02 -0.23548280734E+02 -0.20783909847E+02  0.43418134493E+02  0.00000000000E+00 0.  1.
</event>
<event>
12    1  0.8691829E-002  0.1779581E+03  0.7818608E-02  0.1170085E+00
         21   -1    0    0  501  502  0.00000000000E+00  0.00000000000E+00  0.19833097265E+03  0.19833097265E+03  0.00000000000E+00 0. -1.
         21   -1    0    0  502  503 -0.00000000000E+00 -0.00000000000E+00 -0.49577440827E+03  0.49577440827E+03  0.00000000000E+00 0. -1.
         -6    2    1    2    0  503  0.40492388292E+02 -0.11705335068E+02 -0.43476115570E+03  0.46932717451E+03  0.17168018479E+03 0.  0.
        -24    2    3    3    0    0  0.70106075593E+02 -0.29620658591E+02 -0.17822275471E+03  0.21042184341E+03  0.81986319801E+02 0.  0.
          6    2    1    2  501    0 -0.40492388292E+02  0.11705335068E+02  0.13731772008E+03  0.22477820641E+03  0.17289429559E+03 0.  0.
         24    2    5    5    0    0  0.30811225638E+01  0.33188475433E+02  0.15099045335E+03  0.17409083319E+03  0.79990830606E+02 0.  0.
          5    1    5    5  501    0 -0.43573510856E+02 -0.21483140365E+02 -0.13672733268E+02  0.50687373214E+02  0.47000000000E+01 0. -1.
        -13    1    6    6    0    0 -0.32827397798E+02  0.27130345575E+02  0.44719925346E+02  0.61754072093E+02  0.00000000000E+00 0.  1.
         14    1    6    6    0    0  0.35908520362E+02  0.60581298581E+01  0.10627052800E+03  0.11233676110E+03  0.00000000000E+00 0. -1.
         -5    1    3    3    0  503 -0.29613687300E+02  0.17915323523E+02 -0.25653840098E+03  0.25890533110E+03  0.47000000000E+01 0.  1.
         11    1    4    4    0    0  0.12870910970E+02  0.93975289248E+01 -0.11667687450E+03  0.11776020950E+03  0.00000000000E+00 0. -1.
        -12    1    4    4    0    0  0.57235164623E+02 -0.39018187516E+02 -0.61545880214E+02  0.92661633904E+02  0.00000000000E+00 0.  1.
</event>
<event>
12    1  0.8691829E-002  0.1951630E+03  0.7818608E-02  0.1154039E+00
         21   -1    0    0  501  502  0.00000000000E+00  0.00000000000E+00  0.17209345193E+03  0.17209345193E+03  0.00000000000E+00 0. -1.
         21   -1    0    0  502  503 -0.00000000000E+00 -0.00000000000E+00 -0.44615454723E+03  0.44615454723E+03  0.00000000000E+00 0. -1.
         -6    2    1    2    0  503 -0.81514255839E+02 -0.37819541034E+02 -0.35673744283E+03  0.40629524439E+03  0.17245095218E+03 0.  0.
        -24    2    3    3    0    0 -0.49123605702E+02 -0.85276768948E+02 -0.29653585906E+03  0.32294259964E+03  0.81689356692E+02 0.  0.
          6    2    1    2  501    0  0.81514255839E+02  0.37819541034E+02  0.82676347538E+02  0.21195275477E+03  0.17324462538E+03 0.  0.
         24    2    5    5    0    0 -0.19083080943E+02  0.23345109390E+02  0.81734921766E+01  0.85849230651E+02  0.79963281063E+02 0.  0.
          5    1    5    5  501    0  0.10059733678E+03  0.14474431645E+02  0.74502855361E+02  0.12610352412E+03  0.47000000000E+01 0. -1.
        -11    1    6    6    0    0  0.69734186449E+01 -0.10890961333E+02 -0.27221346105E+02  0.30137075009E+02  0.00000000000E+00 0.  1.
         12    1    6    6    0    0 -0.26056499588E+02  0.34236070722E+02  0.35394838281E+02  0.55712155642E+02  0.00000000000E+00 0. -1.
         -5    1    3    3    0  503 -0.32390650137E+02  0.47457227914E+02 -0.60201583773E+02  0.83352644747E+02  0.47000000000E+01 0.  1.
         11    1    4    4    0    0 -0.32187860573E+02  0.77559566218E+01 -0.85631185568E+02  0.91809112691E+02  0.00000000000E+00 0. -1.
        -12    1    4    4    0    0 -0.16935745129E+02 -0.93032725570E+02 -0.21090467349E+03  0.23113348695E+03  0.00000000000E+00 0.  1.
</event>
<event>
12    1  0.8691829E-002  0.1903957E+03  0.7818608E-02  0.1159265E+00
         21   -1    0    0  503  502  0.00000000000E+00  0.00000000000E+00  0.97742969422E+02  0.97742969422E+02  0.00000000000E+00 0.  1.
         21   -1    0    0  501  503 -0.00000000000E+00 -0.00000000000E+00 -0.50592056324E+03  0.50592056324E+03  0.00000000000E+00 0.  1.
          6    2    1    2  501    0  0.61323268293E+02  0.50221040334E+02 -0.36757042526E+03  0.41395475185E+03  0.17311216862E+03 0.  0.
         24    2    3    3    0    0  0.75713926394E+02  0.41510958974E+02 -0.12728985982E+03  0.17304025106E+03  0.79274596886E+02 0.  0.
         -6    2    1    2    0  502 -0.61323268293E+02 -0.50221040334E+02 -0.40607168557E+02  0.18970878081E+03  0.16750457681E+03 0.  0.
        -24    2    5    5    0    0 -0.64724561173E+02  0.46752478421E+01 -0.67026495429E+02  0.12851039782E+03  0.88381245161E+02 0.  0.
          5    1    3    3  501    0 -0.14390658101E+02  0.87100813599E+01 -0.24028056544E+03  0.24091450078E+03  0.47000000000E+01 0. -1.
        -11    1    4    4    0    0  0.67240222017E+02 -0.24245290678E+01 -0.10032457636E+03  0.12079795702E+03  0.00000000000E+00 0.  1.
         12    1    4    4    0    0  0.84737043775E+01  0.43935488042E+02 -0.26965283458E+02  0.52242294047E+02  0.00000000000E+00 0. -1.
         -5    1    5    5    0  502  0.34012928799E+01 -0.54896288176E+02  0.26419326872E+02  0.61198382995E+02  0.47000000000E+01 0.  1.
         13    1    6    6    0    0 -0.17158592811E+02  0.43937000964E+02 -0.21425251121E+02  0.51806551194E+02  0.00000000000E+00 0. -1.
        -14    1    6    6    0    0 -0.47565968362E+02 -0.39261753122E+02 -0.45601244308E+02  0.76703846623E+02  0.00000000000E+00 0.  1.
</event>
<event>
12    1  0.8691829E-002  0.1824582E+03  0.7818608E-02  0.1166239E+00
         21   -1    0    0  503  502  0.00000000000E+00  0.00000000000E+00  0.83276551644E+03  0.83276551644E+03  0.00000000000E+00 0.  1.
         21   -1    0    0  501  503 -0.00000000000E+00 -0.00000000000E+00 -0.92265050904E+02  0.92265050904E+02  0.00000000000E+00 0.  1.
          6    2    1    2  501    0  0.48722396192E+02  0.20921670386E+02  0.21118098719E+02  0.18367627848E+03  0.17458354161E+03 0.  0.
         24    2    3    3    0    0  0.86150928668E+02  0.74188996247E+01  0.56105045519E+02  0.13048420851E+03  0.80008311794E+02 0.  0.
         -6    2    1    2    0  502 -0.48722396192E+02 -0.20921670386E+02  0.71938236682E+03  0.74135428886E+03  0.17112452700E+03 0.  0.
        -24    2    5    5    0    0 -0.41538025503E+02  0.27921510224E+02  0.22097236545E+03  0.24048315680E+03  0.80612307457E+02 0.  0.
          5    1    3    3  501    0 -0.37428532476E+02  0.13502770761E+02 -0.34986946800E+02  0.53192069972E+02  0.47000000000E+01 0. -1.
        -13    1    4    4    0    0  0.33271212527E+02 -0.67864624984E+01 -0.17931562684E+02  0.38400137976E+02  0.00000000000E+00 0.  1.
         14    1    4    4    0    0  0.52879716141E+02  0.14205362123E+02  0.74036608203E+02  0.92084070536E+02  0.00000000000E+00 0. -1.
         -5    1    5    5    0  502 -0.71843706889E+01 -0.48843180609E+02  0.49841000137E+03  0.50087113207E+03  0.47000000000E+01 0.  1.
         13    1    6    6    0    0 -0.53724978634E+02  0.15658860466E+02  0.75451038703E+02  0.93938450496E+02  0.00000000000E+00 0. -1.
        -14    1    6    6    0    0  0.12186953131E+02  0.12262649758E+02  0.14552132675E+03  0.14654470630E+03  0.00000000000E+00 0.  1.
</event>
<event>
12    1  0.8691829E-002  0.1771090E+03  0.7818608E-02  0.1171003E+00
         21   -1    0    0  503  502  0.00000000000E+00  0.00000000000E+00  0.16872102435E+03  0.16872102435E+03  0.00000000000E+00 0.  1.
         21   -1    0    0  501  503 -0.00000000000E+00 -0.00000000000E+00 -0.18630316408E+03  0.18630316408E+03  0.00000000000E+00 0.  1.
          6    2    1    2  501    0 -0.14370061521E+02 -0.33906409017E+02  0.94512163085E+01  0.17586394506E+03  0.17170514972E+03 0.  0.
         24    2    3    3    0    0 -0.12385583866E+00 -0.79223227440E+02 -0.27751510320E+02  0.11534368996E+03  0.79105533201E+02 0.  0.
         -6    2    1    2    0  502  0.14370061521E+02  0.33906409017E+02 -0.27033356040E+02  0.17916024336E+03  0.17323812289E+03 0.  0.
        -24    2    5    5    0    0 -0.79403219524E+01  0.88722169539E+02 -0.10028687862E+02  0.11740451851E+03  0.75819353110E+02 0.  0.
          5    1    3    3  501    0 -0.14246205683E+02  0.45316818422E+02  0.37202726629E+02  0.60520255096E+02  0.47000000000E+01 0. -1.
        -13    1    4    4    0    0 -0.32016193045E+02 -0.70089094327E+02 -0.99510393525E+01  0.77695179676E+02  0.00000000000E+00 0.  1.
         14    1    4    4    0    0  0.31892337206E+02 -0.91341331133E+01 -0.17800470968E+02  0.37648510288E+02  0.00000000000E+00 0. -1.
         -5    1    5    5    0  502  0.22310383474E+02 -0.54815760521E+02 -0.17004668178E+02  0.61755724853E+02  0.47000000000E+01 0.  1.
         11    1    6    6    0    0 -0.38272270618E+02  0.29677762955E+02 -0.15367600941E+02  0.50810426794E+02  0.00000000000E+00 0. -1.
        -12    1    6    6    0    0  0.30331948666E+02  0.59044406583E+02  0.53389130792E+01  0.66594091716E+02  0.00000000000E+00 0.  1.
</event>
<event>
12    1  0.8691829E-002  0.2892048E+03  0.7818608E-02  0.1091185E+00
         21   -1    0    0  501  502  0.00000000000E+00  0.00000000000E+00  0.84398961831E+03  0.84398961831E+03  0.00000000000E+00 0. -1.
         21   -1    0    0  502  503 -0.00000000000E+00 -0.00000000000E+00 -0.10309441640E+03  0.10309441640E+03  0.00000000000E+00 0. -1.
         -6    2    1    2    0  503 -0.23058912650E+03  0.39001960027E+02  0.47365364799E+03  0.55331068481E+03  0.16465854828E+03 0.  0.
        -24    2    3    3    0    0 -0.49720157997E+02  0.38513750943E+02  0.14526624047E+03  0.17837842221E+03  0.82226381218E+02 0.  0.
          6    2    1    2  501    0  0.23058912650E+03 -0.39001960027E+02  0.26724155392E+03  0.39377334990E+03  0.17013789937E+03 0.  0.
         24    2    5    5    0    0  0.23742962263E+03 -0.65507221990E+02  0.22388048253E+03  0.34227972106E+03  0.79805483248E+02 0.  0.
          5    1    5    5  501    0 -0.68404961233E+01  0.26505261963E+02  0.43361071393E+02  0.51493628842E+02  0.47000000000E+01 0. -1.
        -11    1    6    6    0    0  0.23558278688E+02  0.15682743932E+02  0.38784934360E+02  0.48012624229E+02  0.00000000000E+00 0.  1.
         12    1    6    6    0    0  0.21387134394E+03 -0.81189965922E+02  0.18509554817E+03  0.29426709683E+03  0.00000000000E+00 0. -1.
         -5    1    3    3    0  503 -0.18086896851E+03  0.48820908384E+00  0.32838740752E+03  0.37493226260E+03  0.47000000000E+01 0.  1.
         11    1    4    4    0    0 -0.19872443364E+02  0.97366456814E+01  0.13344184029E+03  0.13526433756E+03  0.00000000000E+00 0. -1.
        -12    1    4    4    0    0 -0.29847714632E+02  0.28777105261E+02  0.11824400175E+02  0.43114084654E+02  0.00000000000E+00 0.  1.
</event>
<event>
12    1  0.8691829E-002  0.1883484E+03  0.7818608E-02  0.1159975E+00
         21   -1    0    0  501  502  0.00000000000E+00  0.00000000000E+00  0.10237715313E+03  0.10237715313E+03  0.00000000000E+00 0.  1.
         21   -1    0    0  502  503 -0.00000000000E+00 -0.00000000000E+00 -0.11263014309E+04  0.11263014309E+04  0.00000000000E+00 0.  1.
         -6    2    1    2    0  503 -0.62546186814E+02  0.45347155761E+02 -0.10232068276E+04  0.10403976846E+04  0.17177526006E+03 0.  0.
        -24    2    3    3    0    0  0.39393026061E+01 -0.16101760090E+02 -0.35095869885E+03  0.36206448754E+03  0.87429400436E+02 0.  0.
          6    2    1    2  501    0  0.62546186814E+02 -0.45347155761E+02 -0.71745017693E+00  0.18828089947E+03  0.17169971564E+03 0.  0.
         24    2    5    5    0    0 -0.24987654954E+02 -0.53151455975E+02 -0.98747053710E+01  0.99799116717E+02  0.80080545196E+02 0.  0.
          5    1    5    5  501    0  0.87533841768E+02  0.78043002140E+01  0.91572551940E+01  0.88481782753E+02  0.47000000000E+01 0. -1.
        -13    1    6    6    0    0  0.25308708822E+02 -0.13784114928E+02  0.13449127833E+02  0.31802698094E+02  0.00000000000E+00 0.  1.
         14    1    6    6    0    0 -0.50296363776E+02 -0.39367341047E+02 -0.23323833204E+02  0.67996418623E+02  0.00000000000E+00 0. -1.
         -5    1    3    3    0  503 -0.66485489420E+02  0.61448915851E+02 -0.67224812877E+03  0.67833319703E+03  0.47000000000E+01 0.  1.
         11    1    4    4    0    0  0.28996062644E+02  0.18305970982E+02 -0.70533891702E+02  0.78427738085E+02  0.00000000000E+00 0. -1.
        -12    1    4    4    0    0 -0.25056760038E+02 -0.34407731073E+02 -0.28042480714E+03  0.28363674946E+03  0.00000000000E+00 0.  1.
</event>
<event>
12    1  0.8691829E-002  0.2561791E+03  0.7818608E-02  0.1109469E+00
         21   -1    0    0  501  502  0.00000000000E+00  0.00000000000E+00  0.86783775778E+02  0.86783775778E+02  0.00000000000E+00 0. -1.
         21   -1    0    0  502  503 -0.00000000000E+00 -0.00000000000E+00 -0.24235328419E+04  0.24235328419E+04  0.00000000000E+00 0.  1.
         -6    2    1    2    0  503  0.68273989938E+02 -0.17675466530E+03 -0.22094620286E+04  0.22242576500E+04  0.17232552994E+03 0.  0.
        -24    2    3    3    0    0  0.76817935653E+02 -0.74156901981E+02 -0.16571449690E+04  0.16624075593E+04  0.77905093965E+02 0.  0.
          6    2    1    2  501    0 -0.68273989938E+02  0.17675466530E+03 -0.12728703758E+03  0.28605896775E+03  0.17240705811E+03 0.  0.
         24    2    5    5    0    0  0.13588060775E+02  0.36587228512E+02 -0.70021431307E+02  0.11386795363E+03  0.80868098379E+02 0.  0.
          5    1    5    5  501    0 -0.81862050713E+02  0.14016743679E+03 -0.57265606270E+02  0.17219101412E+03  0.47000000000E+01 0. -1.
        -11    1    6    6    0    0  0.33663492996E+02  0.17994118484E+02 -0.76725220108E+02  0.85695848566E+02  0.00000000000E+00 0.  1.
         12    1    6    6    0    0 -0.20075432221E+02  0.18593110029E+02  0.67037888016E+01  0.28172105063E+02  0.00000000000E+00 0. -1.
         -5    1    3    3    0  503 -0.85439457146E+01 -0.10259776332E+03 -0.55231705958E+03  0.56185009064E+03  0.47000000000E+01 0.  1.
         11    1    4    4    0    0  0.67392266777E+02 -0.23852306211E+02 -0.64092420945E+03  0.64489882338E+03  0.00000000000E+00 0. -1.
        -12    1    4    4    0    0  0.94256688758E+01 -0.50304595770E+02 -0.10162207595E+04  0.10175087359E+04  0.00000000000E+00 0.  1.
</event>
<event>
12    1  0.8691829E-002  0.2120567E+03  0.7818608E-02  0.1140411E+00
         21   -1    0    0  503  502  0.00000000000E+00  0.00000000000E+00  0.12339115710E+03  0.12339115710E+03  0.00000000000E+00 0. -1.
         21   -1    0    0  501  503 -0.00000000000E+00 -0.00000000000E+00 -0.37466660186E+03  0.37466660186E+03  0.00000000000E+00 0. -1.
          6    2    1    2  501    0  0.96195495217E+02  0.71201594186E+02 -0.77707590554E+02  0.22584622594E+03  0.17505658464E+03 0.  0.
         24    2    3    3    0    0  0.47838464634E+02  0.54126190453E+02  0.20637135595E+02  0.11483385284E+03  0.86849059873E+02 0.  0.
         -6    2    1    2    0  502 -0.96195495217E+02 -0.71201594186E+02 -0.17356785421E+03  0.27221153303E+03  0.17219198117E+03 0.  0.
        -24    2    5    5    0    0 -0.12211606126E+03 -0.19100463875E+02 -0.14654392607E+03  0.20787813411E+03  0.80380571251E+02 0.  0.
          5    1    3    3  501    0  0.48357030583E+02  0.17075403733E+02 -0.98344726149E+02  0.11101237310E+03  0.47000000000E+01 0. -1.
        -13    1    4    4    0    0 -0.21151813565E+02  0.25632308616E+02 -0.91462637389E+01  0.34468371045E+02  0.00000000000E+00 0.  1.
         14    1    4    4    0    0  0.68990278200E+02  0.28493881837E+02  0.29783399333E+02  0.80365481794E+02  0.00000000000E+00 0. -1.
         -5    1    5    5    0  502  0.25920566044E+02 -0.52101130311E+02 -0.27023928144E+02  0.64333398916E+02  0.47000000000E+01 0.  1.
         13    1    6    6    0    0 -0.74174897089E+02  0.28822202051E+02 -0.82432707667E+02  0.11457655075E+03  0.00000000000E+00 0. -1.
        -14    1    6    6    0    0 -0.47941164172E+02 -0.47922665926E+02 -0.64111218403E+02  0.93301583356E+02  0.00000000000E+00 0.  1.
</event>
<event>
12    1  0.8691829E-002  0.2126634E+03  0.7818608E-02  0.1139555E+00
         21   -1    0    0  501  502  0.00000000000E+00  0.00000000000E+00  0.93336353014E+03  0.93336353014E+03  0.00000000000E+00 0. -1.
         21   -1    0    0  502  503 -0.00000000000E+00 -0.00000000000E+00 -0.99766737900E+02  0.99766737900E+02  0.00000000000E+00 0. -1.
         -6    2    1    2    0  503 -0.96205241734E+02  0.78752600216E+02  0.45796444402E+02  0.21713082127E+03  0.17202051810E+03 0.  0.
        -24    2    3    3    0    0 -0.50611733248E+01 -0.12465012172E+02  0.18258570730E+01  0.80809889033E+02  0.79661235288E+02 0.  0.
          6    2    1    2  501    0  0.96205241734E+02 -0.78752600216E+02  0.78780034784E+03  0.81599944677E+03  0.17253489067E+03 0.  0.
         24    2    5    5    0    0  0.13491443213E+03 -0.63578852701E+02  0.67069526893E+03  0.69164377323E+03  0.79339717564E+02 0.  0.
          5    1    5    5  501    0 -0.38709190391E+02 -0.15173747514E+02  0.11710507892E+03  0.12435567354E+03  0.47000000000E+01 0. -1.
        -11    1    6    6    0    0  0.16208374915E+02 -0.35789385661E+01  0.24710752261E+03  0.24766438570E+03  0.00000000000E+00 0.  1.
         12    1    6    6    0    0  0.11870605721E+03 -0.59999914135E+02  0.42358774632E+03  0.44397938753E+03  0.00000000000E+00 0. -1.
         -5    1    3    3    0  503 -0.91144068409E+02  0.91217612388E+02  0.43970587329E+02  0.13632093224E+03  0.47000000000E+01 0.  1.
         13    1    4    4    0    0 -0.39644542254E+02  0.32622174636E+01 -0.10007629385E+02  0.41018098922E+02  0.00000000000E+00 0. -1.
        -14    1    4    4    0    0  0.34583368929E+02 -0.15727229636E+02  0.11833486458E+02  0.39791790111E+02  0.00000000000E+00 0.  1.
</event>
<event>
12    1  0.8691829E-002  0.2095641E+03  0.7818608E-02  0.1142031E+00
         21   -1    0    0  503  502  0.00000000000E+00  0.00000000000E+00  0.27751721923E+03  0.27751721923E+03  0.00000000000E+00 0. -1.
         21   -1    0    0  501  503 -0.00000000000E+00 -0.00000000000E+00 -0.29472472941E+03  0.29472472941E+03  0.00000000000E+00 0. -1.
          6    2    1    2  501    0 -0.11380536125E+03  0.38104390071E+02  0.18641431978E+03  0.28047713610E+03  0.17179499546E+03 0.  0.
         24    2    3    3    0    0 -0.36228005172E+02 -0.13435998793E+02  0.20111119527E+02  0.89811191908E+02  0.78540426794E+02 0.  0.
         -6    2    1    2    0  502  0.11380536125E+03 -0.38104390071E+02 -0.20362182995E+03  0.29176481254E+03  0.17105920441E+03 0.  0.
        -24    2    5    5    0    0  0.93367010530E+02 -0.90338401811E+02 -0.14721953652E+03  0.21208152153E+03  0.80165792850E+02 0.  0.
          5    1    3    3  501    0 -0.77577356078E+02  0.51540388864E+02  0.16630320025E+03  0.19066594419E+03  0.47000000000E+01 0. -1.
        -13    1    4    4    0    0 -0.13679045033E+02 -0.18210868656E+02  0.48298781193E+02  0.53399665495E+02  0.00000000000E+00 0.  1.
         14    1    4    4    0    0 -0.22548960139E+02  0.47748698638E+01 -0.28187661666E+02  0.36411526413E+02  0.00000000000E+00 0. -1.
         -5    1    5    5    0  502  0.20438350720E+02  0.52234011740E+02 -0.56402293429E+02  0.79683291013E+02  0.47000000000E+01 0.  1.
         13    1    6    6    0    0  0.61524568447E+02 -0.38533979683E+02 -0.12997637165E+03  0.14887577808E+03  0.00000000000E+00 0. -1.
        -14    1    6    6    0    0  0.31842442083E+02 -0.51804422129E+02 -0.17243164875E+02  0.63205743448E+02  0.00000000000E+00 0.  1.
</event>
<event>
12    1  0.8691829E-002  0.1862376E+03  0.7818608E-02  0.1163087E+00
         21   -1    0    0  503  502  0.00000000000E+00  0.00000000000E+00  0.22396396982E+04  0.22396396982E+04  0.00000000000E+00 0.  1.
         21   -1    0    0  501  503 -0.00000000000E+00 -0.00000000000E+00 -0.20212604076E+02  0.20212604076E+02  0.00000000000E+00 0.  1.
          6    2    1    2  501    0  0.50167675023E+02  0.34443806828E+02  0.52837711549E+03  0.55857793087E+03  0.17065684059E+03 0.  0.
         24    2    3    3    0    0  0.90694751737E+02  0.25414573765E+02  0.47504883582E+03  0.49082864003E+03  0.79811771757E+02 0.  0.
         -6    2    1    2    0  502 -0.50167675023E+02 -0.34443806828E+02  0.16910499786E+04  0.17012743714E+04  0.17601501387E+03 0.  0.
        -24    2    5    5    0    0 -0.76366961112E+02 -0.16573145228E+01  0.62259841769E+03  0.63198854209E+03  0.77110752765E+02 0.  0.
          5    1    3    3  501    0 -0.40527076714E+02  0.90292330624E+01  0.53328279669E+02  0.67749290838E+02  0.47000000000E+01 0. -1.
        -13    1    4    4    0    0  0.47830447281E+02 -0.17037838266E+02  0.11429939520E+03  0.12506954610E+03  0.00000000000E+00 0.  1.
         14    1    4    4    0    0  0.42864304456E+02  0.42452412031E+02  0.36074944062E+03  0.36575909393E+03  0.00000000000E+00 0. -1.
         -5    1    5    5    0  502  0.26199286089E+02 -0.32786492305E+02  0.10684515610E+04  0.10692858293E+04  0.47000000000E+01 0.  1.
         11    1    6    6    0    0 -0.20271909252E+02  0.30056137306E+02  0.12238947892E+03  0.12764601930E+03  0.00000000000E+00 0. -1.
        -12    1    6    6    0    0 -0.56095051860E+02 -0.31713451829E+02  0.50020893877E+03  0.50434252279E+03  0.00000000000E+00 0.  1.
</event>
<event>
12    1  0.8691829E-002  0.2350228E+03  0.7818608E-02  0.1123285E+00
         21   -1    0    0  503  502  0.00000000000E+00  0.00000000000E+00  0.13296091294E+03  0.13296091294E+03  0.00000000000E+00 0.  1.
         21   -1    0    0  501  503 -0.00000000000E+00 -0.00000000000E+00 -0.41516111398E+03  0.41516111398E+03  0.00000000000E+00 0.  1.
          6    2    1    2  501    0  0.10168482762E+03  0.12147031576E+03 -0.12728724469E+03  0.26727844513E+03  0.17361129800E+03 0.  0.
         24    2    3    3    0    0  0.16633024528E+01  0.10646870071E+03 -0.61416919148E+02  0.14648794991E+03  0.79676412468E+02 0.  0.
         -6    2    1    2    0  502 -0.10168482762E+03 -0.12147031576E+03 -0.15491295635E+03  0.28084358179E+03  0.17256955586E+03 0.  0.
        -24    2    5    5    0    0 -0.13705339472E+03 -0.90701337925E+02 -0.10796157188E+03  0.21432901166E+03  0.85269329374E+02 0.  0.
          5    1    3    3  501    0  0.10002152516E+03  0.15001615049E+02 -0.65870325540E+02  0.12079049522E+03  0.47000000000E+01 0. -1.
        -13    1    4    4    0    0 -0.31381426859E+02  0.13509362092E+02 -0.12620757055E+02  0.36422250404E+02  0.00000000000E+00 0.  1.
         14    1    4    4    0    0  0.33044729312E+02  0.92959338621E+02 -0.48796162092E+02  0.11006569950E+03  0.00000000000E+00 0. -1.
         -5    1    5    5    0  502  0.35368567101E+02 -0.30768977838E+02 -0.46951384470E+02  0.66514570130E+02  0.47000000000E+01 0.  1.
         13    1    6    6    0    0 -0.45804979831E+02 -0.17635004347E+01 -0.65643572503E+02  0.80064253710E+02  0.00000000000E+00 0. -1.
        -14    1    6    6    0    0 -0.91248414885E+02 -0.88937837490E+02 -0.42317999381E+02  0.13426475795E+03  0.00000000000E+00 0.  1.
</event>
<event>
12    1  0.8691829E-002  0.2004630E+03  0.7818608E-02  0.1149963E+00
         21   -1    0    0  501  502  0.00000000000E+00  0.00000000000E+00  0.19045834195E+02  0.19045834195E+02  0.00000000000E+00 0.  1.
         21   -1    0    0  502  503 -0.00000000000E+00 -0.00000000000E+00 -0.20857386873E+04  0.20857386873E+04  0.00000000000E+00 0.  1.
         -6    2    1    2    0  503 -0.81292811187E+02 -0.52358171610E+02 -0.10982463373E+04  0.11163917096E+04  0.17560049137E+03 0.  0.
        -24    2    3    3    0    0  0.17785843351E+02 -0.35877402701E+01 -0.62404787655E+03  0.62948165123E+03  0.80512041980E+02 0.  0.
          6    2    1    2  501    0  0.81292811187E+02  0.52358171610E+02 -0.96844651578E+03  0.98839281187E+03  0.17228406008E+03 0.  0.
         24    2    5    5    0    0  0.75043695952E+02  0.10129891330E+03 -0.62997530288E+03  0.64631226639E+03  0.70410491469E+02 0.  0.
          5    1    5    5  501    0  0.62491152353E+01 -0.48940741693E+02 -0.33847121290E+03  0.34208054549E+03  0.47000000000E+01 0. -1.
        -11    1    6    6    0    0  0.68324753317E+02  0.88627800572E+02 -0.38543767540E+03  0.40135440768E+03  0.00000000000E+00 0.  1.
         12    1    6    6    0    0  0.67189426348E+01  0.12671112731E+02 -0.24453762748E+03  0.24495785870E+03  0.00000000000E+00 0. -1.
         -5    1    3    3    0  503 -0.99078654538E+02 -0.48770431340E+02 -0.47419846075E+03  0.48691005836E+03  0.47000000000E+01 0.  1.
         13    1    4    4    0    0 -0.21296075001E+02 -0.66340193718E-02 -0.53458505874E+02  0.57544197837E+02  0.00000000000E+00 0. -1.
        -14    1    4    4    0    0  0.39081918352E+02 -0.35811062507E+01 -0.57058937068E+03  0.57193745339E+03  0.00000000000E+00 0.  1.
</event>
<event>
12    1  0.8691829E-002  0.1766682E+03  0.7818608E-02  0.1173320E+00
         21   -1    0    0  503  502  0.00000000000E+00  0.00000000000E+00  0.20994602985E+03  0.20994602985E+03  0.00000000000E+00 0.  1.
         21   -1    0    0  501  503 -0.00000000000E+00 -0.00000000000E+00 -0.15799466464E+03  0.15799466464E+03  0.00000000000E+00 0.  1.
          6    2    1    2  501    0  0.28952291450E+02 -0.41648107054E+02 -0.34372732982E+02  0.17131028448E+03  0.15997790095E+03 0.  0.
         24    2    3    3    0    0  0.20743693512E+02 -0.72769448016E+02 -0.69439491214E+02  0.12348051889E+03  0.68555832866E+02 0.  0.
         -6    2    1    2    0  502 -0.28952291450E+02  0.41648107054E+02  0.86324098187E+02  0.19663041002E+03  0.16923022252E+03 0.  0.
        -24    2    5    5    0    0 -0.80780619688E+02  0.14205893698E+02  0.36829301508E+02  0.11974689046E+03  0.79092378845E+02 0.  0.
          5    1    3    3  501    0  0.82085979381E+01  0.31121340962E+02  0.35066758232E+02  0.47829765589E+02  0.47000000000E+01 0. -1.
        -11    1    4    4    0    0  0.22551033879E+02  0.55840089189E+01 -0.10927984149E+02  0.25673938579E+02  0.00000000000E+00 0.  1.
         12    1    4    4    0    0 -0.18073403672E+01 -0.78353456935E+02 -0.58511507065E+02  0.97806580310E+02  0.00000000000E+00 0. -1.
         -5    1    5    5    0  502  0.51828328238E+02  0.27442213356E+02  0.49494796678E+02  0.76883519561E+02  0.47000000000E+01 0.  1.
         13    1    6    6    0    0  0.14927234710E+02  0.58200531729E+01 -0.19524267353E+01  0.16140239316E+02  0.00000000000E+00 0. -1.
        -14    1    6    6    0    0 -0.95707854398E+02  0.83858405256E+01  0.38781728244E+02  0.10360665114E+03  0.00000000000E+00 0.  1.
</event>
<event>
12    1  0.8691829E-002  0.2063172E+03  0.7818608E-02  0.1144627E+00
         21   -1    0    0  503  502  0.00000000000E+00  0.00000000000E+00  0.75841604558E+03  0.75841604558E+03  0.00000000000E+00 0.  1.
         21   -1    0    0  501  503 -0.00000000000E+00 -0.00000000000E+00 -0.94261440902E+02  0.94261440902E+02  0.00000000000E+00 0. -1.
          6    2    1    2  501    0 -0.31832765527E+02 -0.10854075418E+03  0.60108100710E+02  0.21436802051E+03  0.17189020963E+03 0.  0.
         24    2    3    3    0    0  0.10876589036E+02 -0.86768818587E+02 -0.15577007282E+02  0.12465496840E+03  0.87459075706E+02 0.  0.
         -6    2    1    2    0  502  0.31832765527E+02  0.10854075418E+03  0.60404650397E+03  0.63830946598E+03  0.17254673313E+03 0.  0.
        -24    2    5    5    0    0  0.80049111507E+02  0.91339669708E+02  0.34386681516E+03  0.37309963622E+03  0.78791855332E+02 0.  0.
          5    1    3    3  501    0 -0.42709354563E+02 -0.21771935595E+02  0.75685107992E+02  0.89713052108E+02  0.47000000000E+01 0. -1.
        -11    1    4    4    0    0  0.21066402726E+02 -0.69861600689E+02  0.26936562716E+02  0.77781842262E+02  0.00000000000E+00 0.  1.
         12    1    4    4    0    0 -0.10189813691E+02 -0.16907217898E+02 -0.42513569998E+02  0.46873126140E+02  0.00000000000E+00 0. -1.
         -5    1    5    5    0  502 -0.48216345980E+02  0.17201084473E+02  0.26017968881E+03  0.26520982975E+03  0.47000000000E+01 0.  1.
         11    1    6    6    0    0  0.66285820074E+02  0.10473194561E+03  0.31415880821E+03  0.33772525394E+03  0.00000000000E+00 0. -1.
        -12    1    6    6    0    0  0.13763291433E+02 -0.13392275902E+02  0.29708006953E+02  0.35374382285E+02  0.00000000000E+00 0.  1.
</event>
<event>
12    1  0.8691829E-002  0.1871954E+03  0.7818608E-02  0.1161779E+00
         21   -1    0    0  501  502  0.00000000000E+00  0.00000000000E+00  0.69214101927E+03  0.69214101927E+03  0.00000000000E+00 0. -1.
         21   -1    0    0  502  503 -0.00000000000E+00 -0.00000000000E+00 -0.63972309580E+02  0.63972309580E+02  0.00000000000E+00 0.  1.
         -6    2    1    2    0  503  0.70651527507E+02  0.16076567161E+02  0.13362268506E+03  0.22732426221E+03  0.16903018629E+03 0.  0.
        -24    2    3    3    0    0  0.20039233754E+02  0.68134296028E+02  0.10271892184E+03  0.14827526478E+03  0.79940753419E+02 0.  0.
          6    2    1    2  501    0 -0.70651527507E+02 -0.16076567161E+02  0.49454602463E+03  0.52878906664E+03  0.17260362733E+03 0.  0.
         24    2    5    5    0    0 -0.74946027081E+02  0.50051061404E+02  0.29358920248E+03  0.31713595337E+03  0.79111171055E+02 0.  0.
          5    1    5    5  501    0  0.42944995741E+01 -0.66127628566E+02  0.20095682216E+03  0.21165311327E+03  0.47000000000E+01 0. -1.
        -11    1    6    6    0    0 -0.74221129309E+02  0.76495831037E+01  0.15189515152E+03  0.16923188001E+03  0.00000000000E+00 0.  1.
         12    1    6    6    0    0 -0.72489777225E+00  0.42401478301E+02  0.14169405095E+03  0.14790407335E+03  0.00000000000E+00 0. -1.
         -5    1    3    3    0  503  0.50612293754E+02 -0.52057728867E+02  0.30903763224E+02  0.79048997433E+02  0.47000000000E+01 0.  1.
         11    1    4    4    0    0 -0.28044034248E+02  0.40354877630E+02  0.33227443634E+02  0.59321556081E+02  0.00000000000E+00 0. -1.
        -12    1    4    4    0    0  0.48083268002E+02  0.27779418398E+02  0.69491478201E+02  0.88953708697E+02  0.00000000000E+00 0.  1.
</event>
<event>
12    1  0.8691829E-002  0.2209211E+03  0.7818608E-02  0.1133215E+00
         21   -1    0    0  503  502  0.00000000000E+00  0.00000000000E+00  0.21937048568E+03  0.21937048568E+03  0.00000000000E+00 0.  1.
         21   -1    0    0  501  503 -0.00000000000E+00 -0.00000000000E+00 -0.23155995422E+03  0.23155995422E+03  0.00000000000E+00 0.  1.
          6    2    1    2  501    0  0.11554075738E+03 -0.77344846357E+02 -0.50958785471E+02  0.22672211221E+03  0.17168059434E+03 0.  0.
         24    2    3    3    0    0  0.12828739399E+03 -0.12802229663E+02 -0.18534056988E+02  0.15322599577E+03  0.80704039356E+02 0.  0.
         -6    2    1    2    0  502 -0.11554075738E+03  0.77344846357E+02  0.38769316933E+02  0.22420832769E+03  0.17156463038E+03 0.  0.
        -24    2    5    5    0    0  0.71677014240E+01  0.45795508330E+02  0.58293983738E+01  0.93212698659E+02  0.80659908127E+02 0.  0.
          5    1    3    3  501    0 -0.12746636616E+02 -0.64542616694E+02 -0.32424728483E+02  0.73496116441E+02  0.47000000000E+01 0. -1.
        -11    1    4    4    0    0  0.25084550313E+02  0.28949162873E+01 -0.39375012846E+02  0.46776135382E+02  0.00000000000E+00 0.  1.
         12    1    4    4    0    0  0.10320284368E+03 -0.15697145951E+02  0.20840955858E+02  0.10644986038E+03  0.00000000000E+00 0. -1.
         -5    1    5    5    0  502 -0.12270845880E+03  0.31549338027E+02  0.32939918559E+02  0.13099562903E+03  0.47000000000E+01 0.  1.
         13    1    6    6    0    0  0.27086556529E+02 -0.55859020556E+01  0.22484938463E+02  0.35643460888E+02  0.00000000000E+00 0. -1.
        -14    1    6    6    0    0 -0.19918855105E+02  0.51381410386E+02 -0.16655540089E+02  0.57569237772E+02  0.00000000000E+00 0.  1.
</event>
<event>
12    1  0.8691829E-002  0.1955017E+03  0.7818608E-02  0.1154527E+00
         21   -1    0    0  503  502  0.00000000000E+00  0.00000000000E+00  0.17479291655E+03  0.17479291655E+03  0.00000000000E+00 0. -1.
         21   -1    0    0  501  503 -0.00000000000E+00 -0.00000000000E+00 -0.21546543866E+03  0.21546543866E+03  0.00000000000E+00 0. -1.
          6    2    1    2  501    0 -0.82932330181E+02  0.23658867380E+02 -0.36612542242E+02  0.19471446450E+03  0.17069191850E+03 0.  0.
         24    2    3    3    0    0 -0.96035253333E+02  0.52956320140E+02 -0.63045629055E+02  0.15287159878E+03  0.85836080087E+02 0.  0.
         -6    2    1    2    0  502  0.82932330181E+02 -0.23658867380E+02 -0.40599798686E+01  0.19554389071E+03  0.17545203436E+03 0.  0.
        -24    2    5    5    0    0  0.30331788122E+02 -0.21043427412E+02  0.67488263801E+02  0.10657817415E+03  0.73765833862E+02 0.  0.
          5    1    3    3  501    0  0.13102923152E+02 -0.29297452759E+02  0.26433086812E+02  0.41842865721E+02  0.47000000000E+01 0. -1.
        -11    1    4    4    0    0 -0.51006683610E+02 -0.83448746603E+01  0.35074771291E+01  0.51803678458E+02  0.00000000000E+00 0.  1.
         12    1    4    4    0    0 -0.45028569723E+02  0.61301194800E+02 -0.66553106184E+02  0.10106792032E+03  0.00000000000E+00 0. -1.
         -5    1    5    5    0  502  0.52600542059E+02 -0.26154399685E+01 -0.71548243670E+02  0.88965716562E+02  0.47000000000E+01 0.  1.
         13    1    6    6    0    0  0.45528869897E+02  0.59750593835E+01  0.20504225473E+02  0.50289189603E+02  0.00000000000E+00 0. -1.
        -14    1    6    6    0    0 -0.15197081774E+02 -0.27018486795E+02  0.46984038328E+02  0.56288984542E+02  0.00000000000E+00 0.  1.
</event>
<event>
12    1  0.8691829E-002  0.2003565E+03  0.7818608E-02  0.1149494E+00
         21   -1    0    0  501  502  0.00000000000E+00  0.00000000000E+00  0.38323726267E+02  0.38323726267E+02  0.00000000000E+00 0. -1.
         21   -1    0    0  502  503 -0.00000000000E+00 -0.00000000000E+00 -0.11706255140E+04  0.11706255140E+04  0.00000000000E+00 0. -1.
         -6    2    1    2    0  503  0.10281383087E+03 -0.82175270462E+01 -0.76363034161E+03  0.78947705268E+03  0.17176875883E+03 0.  0.
        -24    2    3    3    0    0  0.89148698106E+02  0.47642748716E+02 -0.64560982516E+03  0.65810719858E+03  0.77946883243E+02 0.  0.
          6    2    1    2  501    0 -0.10281383087E+03  0.82175270462E+01 -0.36867144609E+03  0.41947218755E+03  0.17146448437E+03 0.  0.
         24    2    5    5    0    0  0.11762553014E+02 -0.18819081672E+02 -0.14000549790E+03  0.16223896300E+03  0.78914043010E+02 0.  0.
          5    1    5    5  501    0 -0.11457638388E+03  0.27036608718E+02 -0.22866594819E+03  0.25723322456E+03  0.47000000000E+01 0. -1.
        -11    1    6    6    0    0  0.54543704905E+01  0.35395517479E+01 -0.13882533720E+03  0.13897752636E+03  0.00000000000E+00 0.  1.
         12    1    6    6    0    0  0.63081825237E+01 -0.22358633420E+02 -0.11801606973E+01  0.23261436637E+02  0.00000000000E+00 0. -1.
         -5    1    3    3    0  503  0.13665132759E+02 -0.55860275762E+02 -0.11802051645E+03  0.13136985410E+03  0.47000000000E+01 0.  1.
         13    1    4    4    0    0  0.48240991543E+02  0.39249300526E+02 -0.55338148856E+03  0.55686512976E+03  0.00000000000E+00 0. -1.
        -14    1    4    4    0    0  0.40907706564E+02  0.83934481896E+01 -0.92228336594E+02  0.10124206882E+03  0.00000000000E+00 0.  1.
</event>
<event>
12    1  0.8691829E-002  0.2745302E+03  0.7818608E-02  0.1098773E+00
         21   -1    0    0  503  502  0.00000000000E+00  0.00000000000E+00  0.39085065802E+03  0.39085065802E+03  0.00000000000E+00 0. -1.
         21   -1    0    0  501  503 -0.00000000000E+00 -0.00000000000E+00 -0.26539767489E+03  0.26539767489E+03  0.00000000000E+00 0. -1.
          6    2    1    2  501    0 -0.79714413127E+02 -0.19922544438E+03 -0.10916703751E+03  0.29543908833E+03  0.17123564900E+03 0.  0.
         24    2    3    3    0    0 -0.85546108552E+02 -0.50481799915E+02 -0.56500701112E+02  0.13746911198E+03  0.76412555975E+02 0.  0.
         -6    2    1    2    0  502  0.79714413127E+02  0.19922544438E+03  0.23462002063E+03  0.36080924458E+03  0.17056257370E+03 0.  0.
        -24    2    5    5    0    0  0.11515544747E+03  0.19112500944E+03  0.20732798815E+03  0.31510772383E+03  0.80736835683E+02 0.  0.
          5    1    3    3  501    0  0.58316954245E+01 -0.14874364446E+03 -0.52666336393E+02  0.15796997635E+03  0.47000000000E+01 0. -1.
        -11    1    4    4    0    0 -0.62404034973E+02 -0.46730462982E+02 -0.74559952393E+02  0.10787579085E+03  0.00000000000E+00 0.  1.
         12    1    4    4    0    0 -0.23142073579E+02 -0.37513369321E+01  0.18059251280E+02  0.29593321124E+02  0.00000000000E+00 0. -1.
         -5    1    5    5    0  502 -0.35441034344E+02  0.81004349396E+01  0.27292032488E+02  0.45701520750E+02  0.47000000000E+01 0.  1.
         11    1    6    6    0    0  0.11168813170E+03  0.11549626478E+03  0.15356720564E+03  0.22225326227E+03  0.00000000000E+00 0. -1.
        -12    1    6    6    0    0  0.34673157721E+01  0.75628744654E+02  0.53760782502E+02  0.92854461561E+02  0.00000000000E+00 0.  1.
</event>
<event>
12    1  0.8691829E-002  0.1831819E+03  0.7818608E-02  0.1165361E+00
         21   -1    0    0  503  502  0.00000000000E+00  0.00000000000E+00  0.92089911079E+02  0.92089911079E+02  0.00000000000E+00 0. -1.
         21   -1    0    0  501  503 -0.00000000000E+00 -0.00000000000E+00 -0.40440941435E+03  0.40440941435E+03  0.00000000000E+00 0. -1.
          6    2    1    2  501    0 -0.12762640811E+02 -0.55466704076E+02 -0.72347228014E+02  0.19460149848E+03  0.17145314680E+03 0.  0.
         24    2    3    3    0    0 -0.26656921049E+02  0.23656812732E+02 -0.11792417355E+02  0.93891235699E+02  0.86059670029E+02 0.  0.
         -6    2    1    2    0  502  0.12762640811E+02  0.55466704076E+02 -0.23997227526E+03  0.30189782695E+03  0.17411537774E+03 0.  0.
        -24    2    5    5    0    0  0.63243704355E+02 -0.11346300441E+02 -0.14734144545E+03  0.17693832960E+03  0.73953811652E+02 0.  0.
          5    1    3    3  501    0  0.13894280238E+02 -0.79123516808E+02 -0.60554810659E+02  0.10071026278E+03  0.47000000000E+01 0. -1.
        -11    1    4    4    0    0 -0.39813034726E+02 -0.78115221036E+00 -0.38489077744E+02  0.55381378083E+02  0.00000000000E+00 0.  1.
         12    1    4    4    0    0  0.13156113676E+02  0.24437964943E+02  0.26696660389E+02  0.38509857615E+02  0.00000000000E+00 0. -1.
         -5    1    5    5    0  502 -0.50481063544E+02  0.66813004517E+02 -0.92630829810E+02  0.12495949736E+03  0.47000000000E+01 0.  1.
         11    1    6    6    0    0 -0.77391153984E+01 -0.16214434351E+02 -0.68153006393E+02  0.70481444856E+02  0.00000000000E+00 0. -1.
        -12    1    6    6    0    0  0.70982819754E+02  0.48681339103E+01 -0.79188439058E+02  0.10645688474E+03  0.00000000000E+00 0.  1.
</event>
<event>
12    1  0.8691829E-002  0.2806996E+03  0.7818608E-02  0.1095308E+00
         21   -1    0    0  503  502  0.00000000000E+00  0.00000000000E+00  0.13764499074E+04  0.13764499074E+04  0.00000000000E+00 0. -1.
         21   -1    0    0  501  503 -0.00000000000E+00 -0.00000000000E+00 -0.63700745951E+02  0.63700745951E+02  0.00000000000E+00 0. -1.
          6    2    1    2  501    0  0.11675552554E+03 -0.18952995881E+03  0.88565455621E+03  0.92907279409E+03  0.17099358398E+03 0.  0.
         24    2    3    3    0    0  0.32982034695E+02 -0.46321455901E+02  0.49773089671E+03  0.50713259849E+03  0.78828516507E+02 0.  0.
         -6    2    1    2    0  502 -0.11675552554E+03  0.18952995881E+03  0.42709460527E+03  0.51107785928E+03  0.17098923466E+03 0.  0.
        -24    2    5    5    0    0 -0.12768632725E+03  0.19945452535E+03  0.33696767880E+03  0.41962878973E+03  0.80344251605E+02 0.  0.
          5    1    3    3  501    0  0.83773490850E+02 -0.14320850291E+03  0.38792365950E+03  0.42194019561E+03  0.47000000000E+01 0. -1.
        -11    1    4    4    0    0 -0.44758365841E+01  0.18121243082E+02  0.52822200226E+02  0.56023186277E+02  0.00000000000E+00 0.  1.
         12    1    4    4    0    0  0.37457871279E+02 -0.64442698983E+02  0.44490869649E+03  0.45110941221E+03  0.00000000000E+00 0. -1.
         -5    1    5    5    0  502  0.10930801709E+02 -0.99245665462E+01  0.90126926469E+02  0.91449069552E+02  0.47000000000E+01 0.  1.
         11    1    6    6    0    0 -0.43374444813E+02  0.29518839811E+02  0.12273046801E+03  0.13347461236E+03  0.00000000000E+00 0. -1.
        -12    1    6    6    0    0 -0.84311882440E+02  0.16993568554E+03  0.21423721079E+03  0.28615417737E+03  0.00000000000E+00 0.  1.
</event>
<event>
12    1  0.8691829E-002  0.2419645E+03  0.7818608E-02  0.1118499E+00
         21   -1    0    0  503  502  0.00000000000E+00  0.00000000000E+00  0.34930040324E+02  0.34930040324E+02  0.00000000000E+00 0. -1.
         21   -1    0    0  501  503 -0.00000000000E+00 -0.00000000000E+00 -0.16776845629E+04  0.16776845629E+04  0.00000000000E+00 0. -1.
          6    2    1    2  501    0 -0.34830813157E+01 -0.17055213606E+03 -0.79247934863E+03  0.82858139586E+03  0.17153264580E+03 0.  0.
         24    2    3    3    0    0  0.61820523211E+02 -0.13104989940E+03 -0.55313477180E+03  0.57731877642E+03  0.79643208183E+02 0.  0.
         -6    2    1    2    0  502  0.34830813157E+01  0.17055213606E+03 -0.85027517392E+03  0.88403320735E+03  0.17160034189E+03 0.  0.
        -24    2    5    5    0    0  0.28645495684E+02  0.63799468619E+02 -0.61656653448E+03  0.62582573795E+03  0.81318055950E+02 0.  0.
          5    1    3    3  501    0 -0.65303604527E+02 -0.39502236657E+02 -0.23934457684E+03  0.25126261944E+03  0.47000000000E+01 0. -1.
        -13    1    4    4    0    0  0.43043627950E+02 -0.12325642962E+02 -0.13348317851E+03  0.14079216713E+03  0.00000000000E+00 0.  1.
         14    1    4    4    0    0  0.18776895262E+02 -0.11872425644E+03 -0.41965159329E+03  0.43652660929E+03  0.00000000000E+00 0. -1.
         -5    1    5    5    0  502 -0.25162414368E+02  0.10675266744E+03 -0.23370863944E+03  0.25820746940E+03  0.47000000000E+01 0.  1.
         11    1    6    6    0    0  0.11253848750E+01  0.29783843841E+02 -0.50657551274E+03  0.50745156809E+03  0.00000000000E+00 0. -1.
        -12    1    6    6    0    0  0.27520110809E+02  0.34015624779E+02 -0.10999102173E+03  0.11837416986E+03  0.00000000000E+00 0.  1.
</event>
<event>
12    1  0.8691829E-002  0.2157638E+03  0.7818608E-02  0.1137442E+00
         21   -1    0    0  501  502  0.00000000000E+00  0.00000000000E+00  0.34331897438E+03  0.34331897438E+03  0.00000000000E+00 0.  1.
         21   -1    0    0  502  503 -0.00000000000E+00 -0.00000000000E+00 -0.23929301587E+03  0.23929301587E+03  0.00000000000E+00 0. -1.
         -6    2    1    2    0  503 -0.11827492055E+03 -0.47953855462E+02 -0.14070606639E+03  0.25758922115E+03  0.17396976935E+03 0.  0.
        -24    2    3    3    0    0 -0.94139027827E+01 -0.36559157070E+02 -0.11062217483E+03  0.14397720210E+03  0.84065305739E+02 0.  0.
          6    2    1    2  501    0  0.11827492055E+03  0.47953855462E+02  0.24473202489E+03  0.32502276910E+03  0.17163189489E+03 0.  0.
         24    2    5    5    0    0  0.92139555621E+02  0.90565895039E+02  0.13071511038E+03  0.20044030641E+03  0.79987482121E+02 0.  0.
          5    1    5    5  501    0  0.26135364933E+02 -0.42612039577E+02  0.11401691451E+03  0.12458246270E+03  0.47000000000E+01 0. -1.
        -11    1    6    6    0    0  0.99547819789E+02  0.51755871589E+02  0.10156248858E+03  0.15133861951E+03  0.00000000000E+00 0.  1.
         12    1    6    6    0    0 -0.74082641678E+01  0.38810023450E+02  0.29152621801E+02  0.49101686896E+02  0.00000000000E+00 0. -1.
         -5    1    3    3    0  503 -0.10886101777E+03 -0.11394698392E+02 -0.30083891559E+02  0.11361201905E+03  0.47000000000E+01 0.  1.
         13    1    4    4    0    0 -0.30217436999E+02  0.15235030237E+02 -0.58640359507E+02  0.67704441570E+02  0.00000000000E+00 0. -1.
        -14    1    4    4    0    0  0.20803534216E+02 -0.51794187306E+02 -0.51981815322E+02  0.76272760529E+02  0.00000000000E+00 0.  1.
</event>
<event>
12    1  0.8691829E-002  0.2217896E+03  0.7818608E-02  0.1132875E+00
         21   -1    0    0  503  502  0.00000000000E+00  0.00000000000E+00  0.45820997396E+03  0.45820997396E+03  0.00000000000E+00 0.  1.
         21   -1    0    0  501  503 -0.00000000000E+00 -0.00000000000E+00 -0.10753084386E+03  0.10753084386E+03  0.00000000000E+00 0.  1.
          6    2    1    2  501    0  0.11909292334E+03  0.68809302276E+02  0.14862654306E+03  0.26698404107E+03  0.17399075956E+03 0.  0.
         24    2    3    3    0    0  0.14654511564E+03  0.65572762966E+02  0.15586467737E+03  0.23802581879E+03  0.81161780409E+02 0.  0.
         -6    2    1    2    0  502 -0.11909292334E+03 -0.68809302276E+02  0.20205258704E+03  0.29875677676E+03  0.17179208148E+03 0.  0.
        -24    2    5    5    0    0 -0.50893561939E+02 -0.15197720476E+02  0.19891385013E+02  0.96939661222E+02  0.78616190225E+02 0.  0.
          5    1    3    3  501    0 -0.27452192304E+02  0.32365393101E+01 -0.72381343092E+01  0.28958222274E+02  0.47000000000E+01 0. -1.
        -13    1    4    4    0    0  0.66440898711E+02 -0.12843849910E+02  0.54361724598E+02  0.86801812212E+02  0.00000000000E+00 0.  1.
         14    1    4    4    0    0  0.80104216929E+02  0.78416612876E+02  0.10150295277E+03  0.15122400658E+03  0.00000000000E+00 0. -1.
         -5    1    5    5    0  502 -0.68199361397E+02 -0.53611581799E+02  0.18216120203E+03  0.20181711554E+03  0.47000000000E+01 0.  1.
         13    1    6    6    0    0 -0.44502114658E+01 -0.39300593937E+02  0.20630971655E+02  0.44609170104E+02  0.00000000000E+00 0. -1.
        -14    1    6    6    0    0 -0.46443350473E+02  0.24102873461E+02 -0.73958664221E+00  0.52330491118E+02  0.00000000000E+00 0.  1.
</event>
<event>
12    1  0.8691829E-002  0.2180235E+03  0.7818608E-02  0.1135406E+00
         21   -1    0    0  501  502  0.00000000000E+00  0.00000000000E+00  0.13633192376E+03  0.13633192376E+03  0.00000000000E+00 0.  1.
         21   -1    0    0  502  503 -0.00000000000E+00 -0.00000000000E+00 -0.62499538931E+03  0.62499538931E+03  0.00000000000E+00 0.  1.
         -6    2    1    2    0  503 -0.66341109387E+02 -0.11518044926E+03 -0.49766943382E+03  0.54333147848E+03  0.17281941864E+03 0.  0.
        -24    2    3    3    0    0 -0.36112631303E+02 -0.43516160913E+02 -0.10697377948E+03  0.14494132369E+03  0.79792351867E+02 0.  0.
          6    2    1    2  501    0  0.66341109387E+02  0.11518044926E+03  0.90059682722E+01  0.21799583459E+03  0.17254969646E+03 0.  0.
         24    2    5    5    0    0  0.10507065215E+03  0.12106031620E+03  0.10368014115E+02  0.17851804987E+03  0.77882965467E+02 0.  0.
          5    1    5    5  501    0 -0.38729542764E+02 -0.58798669427E+01 -0.13620458428E+01  0.39477784725E+02  0.47000000000E+01 0. -1.
        -13    1    6    6    0    0  0.27395358868E+02  0.21191943165E+02  0.35422869788E+02  0.49541738430E+02  0.00000000000E+00 0.  1.
         14    1    6    6    0    0  0.77675293283E+02  0.99868373035E+02 -0.25054855673E+02  0.12897631144E+03  0.00000000000E+00 0. -1.
         -5    1    3    3    0  503 -0.30228478084E+02 -0.71664288344E+02 -0.39069565434E+03  0.39839015479E+03  0.47000000000E+01 0.  1.
         13    1    4    4    0    0 -0.39712439939E+02 -0.13727587682E+02 -0.96703395546E+01  0.43116586329E+02  0.00000000000E+00 0. -1.
        -14    1    4    4    0    0  0.35998086367E+01 -0.29788573230E+02 -0.97303439925E+02  0.10182473736E+03  0.00000000000E+00 0.  1.
</event>
<event>
12    1  0.8691829E-002  0.1991593E+03  0.7818608E-02  0.1150918E+00
         21   -1    0    0  501  502  0.00000000000E+00  0.00000000000E+00  0.19249789091E+03  0.19249789091E+03  0.00000000000E+00 0.  1.
         21   -1    0    0  502  503 -0.00000000000E+00 -0.00000000000E+00 -0.23052781268E+03  0.23052781268E+03  0.00000000000E+00 0.  1.
         -6    2    1    2    0  503 -0.96187344129E+01  0.95237755467E+02 -0.91139797760E+02  0.21902256660E+03  0.17464727832E+03 0.  0.
        -24    2    3    3    0    0  0.59789542938E+02  0.41337365878E+02 -0.62348777423E+02  0.12642789172E+03  0.82541350227E+02 0.  0.
          6    2    1    2  501    0  0.96187344129E+01 -0.95237755467E+02  0.53109875994E+02  0.20400313699E+03  0.17214491237E+03 0.  0.
         24    2    5    5    0    0  0.22360233996E+02 -0.50310207875E+02 -0.35872002593E+02  0.10340147169E+03  0.79837126054E+02 0.  0.
          5    1    5    5  501    0 -0.12741499583E+02 -0.44927547592E+02  0.88981878587E+02  0.10060166530E+03  0.47000000000E+01 0. -1.
        -11    1    6    6    0    0  0.34425818828E+02  0.89677114596E+01 -0.65358193683E+01  0.36170067537E+02  0.00000000000E+00 0.  1.
         12    1    6    6    0    0 -0.12065584832E+02 -0.59277919335E+02 -0.29336183225E+02  0.67231404152E+02  0.00000000000E+00 0. -1.
         -5    1    3    3    0  503 -0.69408277351E+02  0.53900389589E+02 -0.28791020338E+02  0.92594674873E+02  0.47000000000E+01 0.  1.
         11    1    4    4    0    0  0.19153743339E+02  0.37498528953E+02  0.10073721126E+02  0.43295327864E+02  0.00000000000E+00 0. -1.
        -12    1    4    4    0    0  0.40635799600E+02  0.38388369248E+01 -0.72422498548E+02  0.83132563861E+02  0.00000000000E+00 0.  1.
</event>
<event>
12    1  0.8691829E-002  0.1822825E+03  0.7818608E-02  0.1165748E+00
         21   -1    0    0  503  502  0.00000000000E+00  0.00000000000E+00  0.22336070890E+04  0.22336070890E+04  0.00000000000E+00 0. -1.
         21   -1    0    0  501  503 -0.00000000000E+00 -0.00000000000E+00 -0.32909171866E+03  0.32909171866E+03  0.00000000000E+00 0. -1.
          6    2    1    2  501    0 -0.58963416598E+02  0.60621529555E+01 -0.29995562476E+03  0.35070439506E+03  0.17177532330E+03 0.  0.
         24    2    3    3    0    0 -0.45038864038E+02 -0.15172232016E+02 -0.30942388835E+03  0.32319929946E+03  0.80348917800E+02 0.  0.
         -6    2    1    2    0  502  0.58963416598E+02 -0.60621529555E+01  0.22044709951E+04  0.22119944126E+04  0.17237598129E+03 0.  0.
        -24    2    5    5    0    0  0.87039425815E+02  0.86856944334E+01  0.20883521836E+04  0.20915310170E+04  0.75072294217E+02 0.  0.
          5    1    3    3  501    0 -0.13924552561E+02  0.21234384972E+02  0.94682635840E+01  0.27505095609E+02  0.47000000000E+01 0. -1.
        -13    1    4    4    0    0 -0.87292068061E+01  0.23655511543E+02 -0.32062948698E+02  0.40789887926E+02  0.00000000000E+00 0.  1.
         14    1    4    4    0    0 -0.36309657231E+02 -0.38827743559E+02 -0.27736093965E+03  0.28240941153E+03  0.00000000000E+00 0. -1.
         -5    1    5    5    0  502 -0.28076009217E+02 -0.14747847389E+02  0.11611881148E+03  0.12046339558E+03  0.47000000000E+01 0.  1.
         11    1    6    6    0    0  0.36030955796E+02  0.79535915853E+01  0.16179652240E+04  0.16183859105E+04  0.00000000000E+00 0. -1.
        -12    1    6    6    0    0  0.51008470019E+02  0.73210284808E+00  0.47038695967E+03  0.47314510651E+03  0.00000000000E+00 0.  1.
</event>
<event>
12    1  0.8691829E-002  0.2363046E+03  0.7818608E-02  0.1122393E+00
         21   -1    0    0  501  502  0.00000000000E+00  0.00000000000E+00  0.14621007243E+04  0.14621007243E+04  0.00000000000E+00 0.  1.
         21   -1    0    0  502  503 -0.00000000000E+00 -0.00000000000E+00 -0.76901972672E+02  0.76901972672E+02  0.00000000000E+00 0.  1.
         -6    2    1    2    0  503  0.62599725314E+02  0.14965628087E+03  0.14539886987E+03  0.27688399152E+03  0.17090402391E+03 0.  0.
        -24    2    3    3    0    0  0.10659540951E+03  0.10267350291E+03  0.12385877189E+03  0.20884674089E+03  0.79821903499E+02 0.  0.
          6    2    1    2  501    0 -0.62599725314E+02 -0.14965628087E+03  0.12397998817E+04  0.12621187054E+04  0.17182593465E+03 0.  0.
         24    2    5    5    0    0 -0.12340905505E+02 -0.15985839750E+03  0.83784351034E+03  0.85687674479E+03  0.80925908988E+02 0.  0.
          5    1    5    5  501    0 -0.50258819808E+02  0.10202116634E+02  0.40195637138E+03  0.40524196062E+03  0.47000000000E+01 0. -1.
        -11    1    6    6    0    0 -0.42101761763E+02 -0.82126689833E+02  0.34892170136E+03  0.36092063561E+03  0.00000000000E+00 0.  1.
         12    1    6    6    0    0  0.29760856257E+02 -0.77731707669E+02  0.48892180898E+03  0.49595610918E+03  0.00000000000E+00 0. -1.
         -5    1    3    3    0  503 -0.43995684195E+02  0.46982777963E+02  0.21540097978E+02  0.68037250634E+02  0.47000000000E+01 0.  1.
         11    1    4    4    0    0  0.56098001277E+02  0.46542709101E+02  0.11972818888E+02  0.73868517718E+02  0.00000000000E+00 0. -1.
        -12    1    4    4    0    0  0.50497408232E+02  0.56130793804E+02  0.11188595300E+03  0.13497822317E+03  0.00000000000E+00 0.  1.
</event>
<event>
12    1  0.8691829E-002  0.1914451E+03  0.7818608E-02  0.1157683E+00
         21   -1    0    0  503  502  0.00000000000E+00  0.00000000000E+00  0.16408215950E+03  0.16408215950E+03  0.00000000000E+00 0.  1.
         21   -1    0    0  501  503 -0.00000000000E+00 -0.00000000000E+00 -0.31686061032E+03  0.31686061032E+03  0.00000000000E+00 0.  1.
          6    2    1    2  501    0  0.62102217003E+02 -0.48979454141E+02 -0.20919426055E+03  0.28357265167E+03  0.17434316116E+03 0.  0.
         24    2    3    3    0    0 -0.97523785746E+01  0.14762200421E+02 -0.45655730936E+02  0.93854381333E+02  0.80069767571E+02 0.  0.
         -6    2    1    2    0  502 -0.62102217003E+02  0.48979454141E+02  0.56415809722E+02  0.19737011815E+03  0.17180380574E+03 0.  0.
        -24    2    5    5    0    0 -0.56767012166E+02 -0.34626359337E+02  0.17437287744E+02  0.10485086808E+03  0.79171756972E+02 0.  0.
          5    1    3    3  501    0  0.71854595577E+02 -0.63741654562E+02 -0.16353852961E+03  0.18971827034E+03  0.47000000000E+01 0. -1.
        -11    1    4    4    0    0  0.28890057951E+02 -0.11181734655E+02 -0.37126080660E+01  0.31200161810E+02  0.00000000000E+00 0.  1.
         12    1    4    4    0    0 -0.38642436526E+02  0.25943935076E+02 -0.41943122870E+02  0.62654219522E+02  0.00000000000E+00 0. -1.
         -5    1    5    5    0  502 -0.53352048370E+01  0.83605813477E+02  0.38978521978E+02  0.92519250070E+02  0.47000000000E+01 0.  1.
         13    1    6    6    0    0 -0.34769980380E+02 -0.42755705374E+02 -0.21698321507E+02  0.59226843862E+02  0.00000000000E+00 0. -1.
        -14    1    6    6    0    0 -0.21997031786E+02  0.81293460371E+01  0.39135609250E+02  0.45624024217E+02  0.00000000000E+00 0.  1.
</event>
<event>
12    1  0.8691829E-002  0.2488632E+03  0.7818608E-02  0.1116512E+00
         21   -1    0    0  503  502  0.00000000000E+00  0.00000000000E+00  0.87703580944E+02  0.87703580944E+02  0.00000000000E+00 0. -1.
         21   -1    0    0  501  503 -0.00000000000E+00 -0.00000000000E+00 -0.66478182353E+03  0.66478182353E+03  0.00000000000E+00 0. -1.
          6    2    1    2  501    0  0.77380855295E+02  0.13761360794E+03 -0.26562355829E+03  0.35381650679E+03  0.17235122252E+03 0.  0.
         24    2    3    3    0    0  0.40622508466E+02  0.19846800867E+02 -0.18284916818E+03  0.20517638244E+03  0.81359977320E+02 0.  0.
         -6    2    1    2    0  502 -0.77380855295E+02 -0.13761360794E+03 -0.31145468430E+03  0.39866889768E+03  0.19237351104E+03 0.  0.
        -24    2    5    5    0    0 -0.48897827628E+02 -0.24177911443E+02 -0.38125754693E+02  0.10133115392E+03  0.76412437705E+02 0.  0.
          5    1    3    3  501    0  0.36758346829E+02  0.11776680707E+03 -0.82774390109E+02  0.14864012435E+03  0.47000000000E+01 0. -1.
        -13    1    4    4    0    0  0.51979554478E+02 -0.16375757459E+02 -0.95938084323E+02  0.11033655577E+03  0.00000000000E+00 0.  1.
         14    1    4    4    0    0 -0.11357046012E+02  0.36222558326E+02 -0.86911083854E+02  0.94839826668E+02  0.00000000000E+00 0. -1.
         -5    1    5    5    0  502 -0.28483027667E+02 -0.11343569649E+03 -0.27332892961E+03  0.29733774376E+03  0.47000000000E+01 0.  1.
         11    1    6    6    0    0 -0.55853419657E+02 -0.50102201472E+01 -0.52153457156E+02  0.76581263287E+02  0.00000000000E+00 0. -1.
        -12    1    6    6    0    0  0.69555920295E+01 -0.19167691296E+02  0.14027702463E+02  0.24749890636E+02  0.00000000000E+00 0.  1.
</event>
<event>
12    1  0.8691829E-002  0.1762937E+03  0.7818608E-02  0.1171481E+00
         21   -1    0    0  503  502  0.00000000000E+00  0.00000000000E+00  0.14744835472E+03  0.14744835472E+03  0.00000000000E+00 0. -1.
         21   -1    0    0  501  503 -0.00000000000E+00 -0.00000000000E+00 -0.33806398508E+03  0.33806398508E+03  0.00000000000E+00 0. -1.
          6    2    1    2  501    0 -0.24391035151E+02 -0.26717613428E+02 -0.24435257190E+03  0.30121057500E+03  0.17236843572E+03 0.  0.
         24    2    3    3    0    0 -0.42913133687E+02 -0.76858738671E+02 -0.19500882219E+03  0.22831272722E+03  0.79683485904E+02 0.  0.
         -6    2    1    2    0  502  0.24391035151E+02  0.26717613428E+02  0.53736941542E+02  0.18430176480E+03  0.17254196057E+03 0.  0.
        -24    2    5    5    0    0 -0.47481207453E+02  0.42021511232E+02  0.42789782249E+02  0.10985877425E+03  0.78852472045E+02 0.  0.
          5    1    3    3  501    0  0.18522098536E+02  0.50141125242E+02 -0.49343749712E+02  0.72897847776E+02  0.47000000000E+01 0. -1.
        -11    1    4    4    0    0  0.18513922133E+02 -0.25521083792E+02 -0.24443141438E+02  0.39894337869E+02  0.00000000000E+00 0.  1.
         12    1    4    4    0    0 -0.61427055820E+02 -0.51337654879E+02 -0.17056568075E+03  0.18841838935E+03  0.00000000000E+00 0. -1.
         -5    1    5    5    0  502  0.71872242604E+02 -0.15303897803E+02  0.10947159293E+02  0.74442990547E+02  0.47000000000E+01 0.  1.
         11    1    6    6    0    0  0.83812520646E+01  0.13936898257E+02 -0.16873532489E+02  0.23434987046E+02  0.00000000000E+00 0. -1.
        -12    1    6    6    0    0 -0.55862459518E+02  0.28084612975E+02  0.59663314738E+02  0.86423787205E+02  0.00000000000E+00 0.  1.
</event>
<event>
12    1  0.8691829E-002  0.1851785E+03  0.7818608E-02  0.1163116E+00
         21   -1    0    0  503  502  0.00000000000E+00  0.00000000000E+00  0.39299574865E+02  0.39299574865E+02  0.00000000000E+00 0. -1.
         21   -1    0    0  501  503 -0.00000000000E+00 -0.00000000000E+00 -0.97566137695E+03  0.97566137695E+03  0.00000000000E+00 0. -1.
          6    2    1    2  501    0 -0.18132436296E+02 -0.65833598123E+02 -0.63798175382E+03  0.66431302774E+03  0.17212853547E+03 0.  0.
         24    2    3    3    0    0  0.25397782105E+02 -0.19641072248E+02 -0.54384848541E+03  0.55068296313E+03  0.80310221917E+02 0.  0.
         -6    2    1    2    0  502  0.18132436296E+02  0.65833598123E+02 -0.29838004826E+03  0.35064792408E+03  0.17105690741E+03 0.  0.
        -24    2    5    5    0    0  0.22592581807E+01  0.33912376338E+02 -0.51275482612E+02  0.10094073846E+03  0.80029394896E+02 0.  0.
          5    1    3    3  501    0 -0.43530218401E+02 -0.46192525874E+02 -0.94133268411E+02  0.11363006461E+03  0.47000000000E+01 0. -1.
        -11    1    4    4    0    0  0.40585164641E+01 -0.47590276397E+01 -0.42216145872E-01  0.62547327815E+01  0.00000000000E+00 0.  1.
         12    1    4    4    0    0  0.21339265641E+02 -0.14882044609E+02 -0.54380626927E+03  0.54442823035E+03  0.00000000000E+00 0. -1.
         -5    1    5    5    0  502  0.15873178115E+02  0.31921221784E+02 -0.24710456565E+03  0.24970718562E+03  0.47000000000E+01 0.  1.
         11    1    6    6    0    0  0.13173148310E+02  0.56067912422E+02 -0.49900001963E+02  0.76204677256E+02  0.00000000000E+00 0. -1.
        -12    1    6    6    0    0 -0.10913890129E+02 -0.22155536084E+02 -0.13754806493E+01  0.24736061205E+02  0.00000000000E+00 0.  1.
</event>
<event>
12    1  0.8691829E-002  0.2751615E+03  0.7818608E-02  0.1098432E+00
         21   -1    0    0  503  502  0.00000000000E+00  0.00000000000E+00  0.15814761886E+03  0.15814761886E+03  0.00000000000E+00 0. -1.
         21   -1    0    0  501  503 -0.00000000000E+00 -0.00000000000E+00 -0.72688163612E+03  0.72688163612E+03  0.00000000000E+00 0. -1.
          6    2    1    2  501    0 -0.58135643030E+02  0.20608539346E+03 -0.54319767441E+03  0.60868533080E+03  0.17199760480E+03 0.  0.
         24    2    3    3    0    0  0.26606733991E+02  0.15302017299E+03 -0.35545208732E+03  0.39592329575E+03  0.79284160465E+02 0.  0.
         -6    2    1    2    0  502  0.58135643030E+02 -0.20608539346E+03 -0.25536342847E+02  0.27634392418E+03  0.17280890382E+03 0.  0.
        -24    2    5    5    0    0  0.89201667084E+02 -0.21123237278E+03 -0.18240064518E+02  0.24368026052E+03  0.80444494478E+02 0.  0.
          5    1    3    3  501    0 -0.84742377021E+02  0.53065220472E+02 -0.18774558709E+03  0.21276203505E+03  0.47000000000E+01 0. -1.
        -13    1    4    4    0    0  0.36537001819E+02  0.21413966971E+02 -0.90542237383E+02  0.99957026935E+02  0.00000000000E+00 0.  1.
         14    1    4    4    0    0 -0.99302678277E+01  0.13160620602E+03 -0.26490984994E+03  0.29596626881E+03  0.00000000000E+00 0. -1.
         -5    1    5    5    0  502 -0.31066024054E+02  0.51469793172E+01 -0.72962783289E+01  0.32663663666E+02  0.47000000000E+01 0.  1.
         11    1    6    6    0    0  0.71409561068E+02 -0.17623908521E+03  0.17015275216E+02  0.19091636954E+03  0.00000000000E+00 0. -1.
        -12    1    6    6    0    0  0.17792106016E+02 -0.34993287570E+02 -0.35255339734E+02  0.52763890979E+02  0.00000000000E+00 0.  1.
</event>
<event>
12    1  0.8691829E-002  0.1851224E+03  0.7818608E-02  0.1163410E+00
         21   -1    0    0  501  502  0.00000000000E+00  0.00000000000E+00  0.11135127354E+03  0.11135127354E+03  0.00000000000E+00 0.  1.
         21   -1    0    0  502  503 -0.00000000000E+00 -0.00000000000E+00 -0.44416742966E+03  0.44416742966E+03  0.00000000000E+00 0.  1.
         -6    2    1    2    0  503  0.12660101497E+02 -0.68795899377E+02 -0.32283291768E+03  0.37214430094E+03  0.17139759054E+03 0.  0.
        -24    2    3    3    0    0 -0.14904588173E+02 -0.27657618560E+02 -0.57208816250E+02  0.10190288382E+03  0.78257641551E+02 0.  0.
          6    2    1    2  501    0 -0.12660101497E+02  0.68795899377E+02 -0.99832384411E+01  0.18337440226E+03  0.16921392500E+03 0.  0.
         24    2    5    5    0    0  0.36237066005E+02  0.92396295439E+02 -0.65691762544E-01  0.12798162822E+03  0.80802799967E+02 0.  0.
          5    1    5    5  501    0 -0.48897167502E+02 -0.23600396061E+02 -0.99175466786E+01  0.55392774042E+02  0.47000000000E+01 0. -1.
        -13    1    6    6    0    0 -0.20094477442E+02  0.38330602330E+02  0.19530193133E+02  0.47481065094E+02  0.00000000000E+00 0.  1.
         14    1    6    6    0    0  0.56331543446E+02  0.54065693108E+02 -0.19595884896E+02  0.80500563123E+02  0.00000000000E+00 0. -1.
         -5    1    3    3    0  503  0.27564689670E+02 -0.41138280817E+02 -0.26562410143E+03  0.27024141712E+03  0.47000000000E+01 0.  1.
         11    1    4    4    0    0  0.20801448907E+02  0.56120046773E-01 -0.52485705576E+02  0.56457530196E+02  0.00000000000E+00 0. -1.
        -12    1    4    4    0    0 -0.35706037080E+02 -0.27713738607E+02 -0.47231106737E+01  0.45445353623E+02  0.00000000000E+00 0.  1.
</event>
<event>
12    1  0.8691829E-002  0.1918053E+03  0.7818608E-02  0.1159833E+00
         21   -1    0    0  503  502  0.00000000000E+00  0.00000000000E+00  0.10187811966E+04  0.10187811966E+04  0.00000000000E+00 0.  1.
         21   -1    0    0  501  503 -0.00000000000E+00 -0.00000000000E+00 -0.47549265219E+02  0.47549265219E+02  0.00000000000E+00 0.  1.
          6    2    1    2  501    0  0.75072217717E+02  0.35424983429E+02  0.21019086395E+03  0.28455133701E+03  0.17291181794E+03 0.  0.
         24    2    3    3    0    0  0.23858242184E+02  0.86117733920E+02  0.15134214391E+03  0.19139615416E+03  0.75779703665E+02 0.  0.
         -6    2    1    2    0  502 -0.75072217717E+02 -0.35424983429E+02  0.76104106745E+03  0.78177912482E+03  0.15844344841E+03 0.  0.
        -24    2    5    5    0    0 -0.20836122706E+02  0.25529723725E+02  0.26978019876E+03  0.28376671390E+03  0.81586037248E+02 0.  0.
          5    1    3    3  501    0  0.51213975533E+02 -0.50692750491E+02  0.58848720036E+02  0.93155182851E+02  0.47000000000E+01 0. -1.
        -13    1    4    4    0    0  0.30587850679E+02  0.28736979473E+01  0.23445616155E+02  0.38646754921E+02  0.00000000000E+00 0.  1.
         14    1    4    4    0    0 -0.67296084944E+01  0.83244035973E+02  0.12789652776E+03  0.15274939924E+03  0.00000000000E+00 0. -1.
         -5    1    5    5    0  502 -0.54236095011E+02 -0.60954707154E+02  0.49126086869E+03  0.49801241092E+03  0.47000000000E+01 0.  1.
         13    1    6    6    0    0 -0.31156352668E+02  0.43080886862E+02  0.10460041165E+03  0.11733681111E+03  0.00000000000E+00 0. -1.
        -14    1    6    6    0    0  0.10320229961E+02 -0.17551163137E+02  0.16517978711E+03  0.16642990279E+03  0.00000000000E+00 0.  1.
</event>
<event>
12    1  0.8691829E-002  0.2459687E+03  0.7818608E-02  0.1115895E+00
         21   -1    0    0  503  502  0.00000000000E+00  0.00000000000E+00  0.40722694000E+03  0.40722694000E+03  0.00000000000E+00 0. -1.
         21   -1    0    0  501  503 -0.00000000000E+00 -0.00000000000E+00 -0.19743107823E+03  0.19743107823E+03  0.00000000000E+00 0.  1.
          6    2    1    2  501    0 -0.58793000212E+02  0.16577729763E+03 -0.45612870637E+02  0.25006777240E+03  0.17179821752E+03 0.  0.
         24    2    3    3    0    0 -0.71477688422E+02  0.18919063440E+03 -0.49280734512E+02  0.22277988352E+03  0.79373355859E+02 0.  0.
         -6    2    1    2    0  502  0.58793000212E+02 -0.16577729763E+03  0.25540873241E+03  0.35459024584E+03  0.17193572221E+03 0.  0.
        -24    2    5    5    0    0 -0.14682637386E+02 -0.12642605392E+03  0.10883216187E+03  0.18590719769E+03  0.80733634531E+02 0.  0.
          5    1    3    3  501    0  0.12684688211E+02 -0.23413336777E+02  0.36678638751E+01  0.27287888878E+02  0.47000000000E+01 0. -1.
        -13    1    4    4    0    0  0.38704982582E+01  0.28555028645E+02 -0.34184392765E+02  0.44709541782E+02  0.00000000000E+00 0.  1.
         14    1    4    4    0    0 -0.75348186681E+02  0.16063560576E+03 -0.15096341747E+02  0.17807034174E+03  0.00000000000E+00 0. -1.
         -5    1    5    5    0  502  0.73475637597E+02 -0.39351243702E+02  0.14657657054E+03  0.16868304814E+03  0.47000000000E+01 0.  1.
         11    1    6    6    0    0  0.97544354673E+01 -0.10136483135E+02  0.52591906310E+02  0.54440847817E+02  0.00000000000E+00 0. -1.
        -12    1    6    6    0    0 -0.24437072853E+02 -0.11628957079E+03  0.56240255560E+02  0.13146634987E+03  0.00000000000E+00 0.  1.
</event>
<event>
12    1  0.8691829E-002  0.1735848E+03  0.7818608E-02  0.1174318E+00
         21   -1    0    0  501  502  0.00000000000E+00  0.00000000000E+00  0.69853708156E+02  0.69853708156E+02  0.00000000000E+00 0. -1.
         21   -1    0    0  502  503 -0.00000000000E+00 -0.00000000000E+00 -0.50248393743E+03  0.50248393743E+03  0.00000000000E+00 0. -1.
         -6    2    1    2    0  503 -0.15808595330E+02  0.20596167555E+02 -0.10715794491E+03  0.20346927232E+03  0.17100528009E+03 0.  0.
        -24    2    3    3    0    0 -0.11820102949E+01 -0.39603480664E+02 -0.10902890610E+03  0.14131201103E+03  0.80696649671E+02 0.  0.
          6    2    1    2  501    0  0.15808595330E+02 -0.20596167555E+02 -0.32547228436E+03  0.36886837326E+03  0.17163203401E+03 0.  0.
         24    2    5    5    0    0 -0.20895766275E+02 -0.49646218699E+02 -0.10218225130E+03  0.14067625136E+03  0.80294552344E+02 0.  0.
          5    1    5    5  501    0  0.36704361605E+02  0.29050051144E+02 -0.22329003307E+03  0.22819212191E+03  0.47000000000E+01 0. -1.
        -11    1    6    6    0    0  0.22968083161E+02 -0.33041369431E+02 -0.17515863228E+02  0.43887018611E+02  0.00000000000E+00 0.  1.
         12    1    6    6    0    0 -0.43863849437E+02 -0.16604849268E+02 -0.84666388069E+02  0.96789232745E+02  0.00000000000E+00 0. -1.
         -5    1    3    3    0  503 -0.14626585035E+02  0.60199648219E+02  0.18709611885E+01  0.62157261292E+02  0.47000000000E+01 0.  1.
         13    1    4    4    0    0 -0.17263233298E+02 -0.35337120858E+01  0.68366669443E+01  0.18900961878E+02  0.00000000000E+00 0. -1.
        -14    1    4    4    0    0  0.16081223003E+02 -0.36069768578E+02 -0.11586557304E+03  0.12241104915E+03  0.00000000000E+00 0.  1.
</event>
<event>
12    1  0.8691829E-002  0.2315669E+03  0.7818608E-02  0.1125934E+00
         21   -1    0    0  501  502  0.00000000000E+00  0.00000000000E+00  0.79053598021E+03  0.79053598021E+03  0.00000000000E+00 0. -1.
         21   -1    0    0  502  503 -0.00000000000E+00 -0.00000000000E+00 -0.79438234125E+02  0.79438234125E+02  0.00000000000E+00 0. -1.
         -6    2    1    2    0  503  0.12995727339E+03 -0.78719829597E+02  0.18320244165E+03  0.29352239629E+03  0.17177473044E+03 0.  0.
        -24    2    3    3    0    0  0.81368573581E+02 -0.11785372682E+03  0.11260540541E+03  0.19919130286E+03  0.80540996506E+02 0.  0.
          6    2    1    2  501    0 -0.12995727339E+03  0.78719829597E+02  0.52789530444E+03  0.57645181805E+03  0.17474994022E+03 0.  0.
         24    2    5    5    0    0 -0.35536065838E+02 -0.20290208606E+02  0.15640251853E+03  0.18053852946E+03  0.80361111718E+02 0.  0.
          5    1    5    5  501    0 -0.94421207552E+02  0.99010038203E+02  0.37149278591E+03  0.39591328859E+03  0.47000000000E+01 0. -1.
        -13    1    6    6    0    0 -0.22754685151E+02 -0.13861130501E+02  0.33903326817E+01  0.26858908965E+02  0.00000000000E+00 0.  1.
         14    1    6    6    0    0 -0.12781380687E+02 -0.64290781050E+01  0.15301218585E+03  0.15367962049E+03  0.00000000000E+00 0. -1.
         -5    1    3    3    0  503  0.48588699809E+02  0.39133897218E+02  0.70597036241E+02  0.94331093424E+02  0.47000000000E+01 0.  1.
         13    1    4    4    0    0  0.83972691764E+02 -0.58228057242E+02  0.54132512788E+02  0.11563843891E+03  0.00000000000E+00 0. -1.
        -14    1    4    4    0    0 -0.26041181836E+01 -0.59625669574E+02  0.58472892623E+02  0.83552863957E+02  0.00000000000E+00 0.  1.
</event>
<event>
12    1  0.8691829E-002  0.1858467E+03  0.7818608E-02  0.1162444E+00
         21   -1    0    0  503  502  0.00000000000E+00  0.00000000000E+00  0.29330080639E+03  0.29330080639E+03  0.00000000000E+00 0. -1.
         21   -1    0    0  501  503 -0.00000000000E+00 -0.00000000000E+00 -0.13045235235E+03  0.13045235235E+03  0.00000000000E+00 0. -1.
          6    2    1    2  501    0 -0.53195383038E+02 -0.42465410520E+02  0.14206547360E+02  0.18638891192E+03  0.17293334158E+03 0.  0.
         24    2    3    3    0    0 -0.26877843748E+02  0.24925655131E+01 -0.54450583462E+02  0.10007712769E+03  0.79510590996E+02 0.  0.
         -6    2    1    2    0  502  0.53195383038E+02  0.42465410520E+02  0.14864190668E+03  0.23736424682E+03  0.17208808611E+03 0.  0.
        -24    2    5    5    0    0  0.68680329057E+02 -0.30876084793E+02  0.81082416522E+02  0.13634378752E+03  0.79655193894E+02 0.  0.
          5    1    3    3  501    0 -0.26317539291E+02 -0.44957976033E+02  0.68657130822E+02  0.86311784225E+02  0.47000000000E+01 0. -1.
        -11    1    4    4    0    0 -0.36513864603E+02  0.48785668677E+01  0.72822560748E+01  0.37551218042E+02  0.00000000000E+00 0.  1.
         12    1    4    4    0    0  0.96360208551E+01 -0.23860013546E+01 -0.61732839537E+02  0.62525909651E+02  0.00000000000E+00 0. -1.
         -5    1    5    5    0  502 -0.15484946018E+02  0.73341495313E+02  0.67559490155E+02  0.10102045930E+03  0.47000000000E+01 0.  1.
         13    1    6    6    0    0  0.10693891962E+02 -0.24107300462E+02  0.72736583175E+02  0.77370096244E+02  0.00000000000E+00 0. -1.
        -14    1    6    6    0    0  0.57986437094E+02 -0.67687843311E+01  0.83458333475E+01  0.58973691274E+02  0.00000000000E+00 0.  1.
</event>
<event>
12    1  0.8691829E-002  0.2428078E+03  0.7818608E-02  0.1118252E+00
         21   -1    0    0  501  502  0.00000000000E+00  0.00000000000E+00  0.16993525659E+04  0.16993525659E+04  0.00000000000E+00 0.  1.
         21   -1    0    0  502  503 -0.00000000000E+00 -0.00000000000E+00 -0.34766782879E+02  0.34766782879E+02  0.00000000000E+00 0. -1.
         -6    2    1    2    0  503  0.73069258138E+01 -0.16907061766E+03  0.74888961853E+03  0.78726825662E+03  0.17411887379E+03 0.  0.
        -24    2    3    3    0    0  0.11937791823E+02 -0.46748704783E+02  0.52378855713E+03  0.53099365168E+03  0.72607529044E+02 0.  0.
          6    2    1    2  501    0 -0.73069258138E+01  0.16907061766E+03  0.91569616446E+03  0.94685109213E+03  0.17143296108E+03 0.  0.
         24    2    5    5    0    0  0.49784200458E+02  0.46531920884E+02  0.37975333956E+03  0.39410166385E+03  0.80373106599E+02 0.  0.
          5    1    5    5  501    0 -0.57091126272E+02  0.12253869678E+03  0.53594282489E+03  0.55274942828E+03  0.47000000000E+01 0. -1.
        -11    1    6    6    0    0  0.15905573497E+02  0.33275860289E+02  0.33213648022E+03  0.33417796402E+03  0.00000000000E+00 0.  1.
         12    1    6    6    0    0  0.33878626961E+02  0.13256060596E+02  0.47616859344E+02  0.59923699828E+02  0.00000000000E+00 0. -1.
         -5    1    3    3    0  503 -0.46308660092E+01 -0.12232191288E+03  0.22510106140E+03  0.25627460493E+03  0.47000000000E+01 0.  1.
         11    1    4    4    0    0  0.41419711170E+01  0.76815647395E+01  0.67327153201E+01  0.11022332655E+02  0.00000000000E+00 0. -1.
        -12    1    4    4    0    0  0.77958207060E+01 -0.54430269522E+02  0.51705584181E+03  0.51997131903E+03  0.00000000000E+00 0.  1.
</event>
<event>
12    1  0.8691829E-002  0.2128589E+03  0.7818608E-02  0.1139358E+00
         21   -1    0    0  501  502  0.00000000000E+00  0.00000000000E+00  0.17171137673E+03  0.17171137673E+03  0.00000000000E+00 0.  1.
         21   -1    0    0  502  503 -0.00000000000E+00 -0.00000000000E+00 -0.29312680904E+03  0.29312680904E+03  0.00000000000E+00 0.  1.
         -6    2    1    2    0  503 -0.27604985142E+01  0.12483632679E+03 -0.13444968132E+03  0.25176503661E+03  0.17238673968E+03 0.  0.
        -24    2    3    3    0    0 -0.46215855255E+02  0.12376924624E+03 -0.13908362039E+03  0.20779834375E+03  0.79882204601E+02 0.  0.
          6    2    1    2  501    0  0.27604985142E+01 -0.12483632679E+03  0.13034249013E+02  0.21307314916E+03  0.17215849212E+03 0.  0.
         24    2    5    5    0    0  0.14180944469E+02 -0.15791440293E+03  0.53608079438E+01  0.17694065125E+03  0.78365795896E+02 0.  0.
          5    1    5    5  501    0 -0.11420445955E+02  0.33078076142E+02  0.76734410687E+01  0.36132497906E+02  0.47000000000E+01 0. -1.
        -13    1    6    6    0    0  0.42429433520E+02 -0.97523522017E+02  0.21124615709E+02  0.10843128499E+03  0.00000000000E+00 0.  1.
         14    1    6    6    0    0 -0.28248489051E+02 -0.60390880911E+02 -0.15763807765E+02  0.68509366265E+02  0.00000000000E+00 0. -1.
         -5    1    3    3    0  503  0.43455356740E+02  0.10670805469E+01  0.46339390728E+01  0.43966692867E+02  0.47000000000E+01 0.  1.
         13    1    4    4    0    0 -0.43323630977E+02  0.35339908968E+02 -0.91785107546E+02  0.10747256456E+03  0.00000000000E+00 0. -1.
        -14    1    4    4    0    0 -0.28922242774E+01  0.88429337270E+02 -0.47298512845E+02  0.10032577918E+03  0.00000000000E+00 0.  1.
</event>
<event>
12    1  0.8691829E-002  0.2154659E+03  0.7818608E-02  0.1138071E+00
         21   -1    0    0  503  502  0.00000000000E+00  0.00000000000E+00  0.23162213582E+03  0.23162213582E+03  0.00000000000E+00 0. -1.
         21   -1    0    0  501  503 -0.00000000000E+00 -0.00000000000E+00 -0.22359178646E+03  0.22359178646E+03  0.00000000000E+00 0.  1.
          6    2    1    2  501    0  0.14187694017E+02 -0.12807950079E+03  0.82785103461E+02  0.22714848718E+03  0.16774210172E+03 0.  0.
         24    2    3    3    0    0  0.22069310257E+02 -0.12433036529E+02  0.52077395496E+02  0.10714316272E+03  0.90144147580E+02 0.  0.
         -6    2    1    2    0  502 -0.14187694017E+02  0.12807950079E+03 -0.74754754092E+02  0.22806543510E+03  0.17268445282E+03 0.  0.
        -24    2    5    5    0    0 -0.67083947200E+01  0.29869921445E+02  0.23423668544E+02  0.88917477649E+02  0.80127615817E+02 0.  0.
          5    1    3    3  501    0 -0.78816162400E+01 -0.11564646426E+03  0.30707707965E+02  0.12000532446E+03  0.47000000000E+01 0. -1.
        -11    1    4    4    0    0 -0.30732274212E+02 -0.78846643542E+01 -0.15256278520E+01  0.31764259012E+02  0.00000000000E+00 0.  1.
         12    1    4    4    0    0  0.52801584469E+02 -0.45483721747E+01  0.53603023348E+02  0.75378903706E+02  0.00000000000E+00 0. -1.
         -5    1    5    5    0  502 -0.74792992972E+01  0.98209579342E+02 -0.98178422636E+02  0.13914795746E+03  0.47000000000E+01 0.  1.
         13    1    6    6    0    0  0.35240790500E+02  0.24314162707E+02  0.63308247056E+01  0.43280147466E+02  0.00000000000E+00 0. -1.
        -14    1    6    6    0    0 -0.41949185220E+02  0.55557587387E+01  0.17092843839E+02  0.45637330183E+02  0.00000000000E+00 0.  1.
</event>
<event>
12    1  0.8691829E-002  0.1795748E+03  0.7818608E-02  0.1168417E+00
         21   -1    0    0  501  502  0.00000000000E+00  0.00000000000E+00  0.10356652097E+03  0.10356652097E+03  0.00000000000E+00 0.  1.
         21   -1    0    0  502  503 -0.00000000000E+00 -0.00000000000E+00 -0.46642551968E+03  0.46642551968E+03  0.00000000000E+00 0.  1.
         -6    2    1    2    0  503  0.11563398679E+02 -0.50766669236E+02 -0.34623092941E+03  0.38964900119E+03  0.17099567466E+03 0.  0.
        -24    2    3    3    0    0  0.38314815731E+02  0.35617972641E+01 -0.90048385714E+02  0.12636435241E+03  0.79865676522E+02 0.  0.
          6    2    1    2  501    0 -0.11563398679E+02  0.50766669236E+02 -0.16628069294E+02  0.18034303946E+03  0.17186085156E+03 0.  0.
         24    2    5    5    0    0  0.54988866105E+02  0.17120197765E+01 -0.59760081884E+01  0.96849812269E+02  0.79482495277E+02 0.  0.
          5    1    5    5  501    0 -0.66552264784E+02  0.49054649460E+02 -0.10652061105E+02  0.83493227194E+02  0.47000000000E+01 0. -1.
        -13    1    6    6    0    0  0.50263198952E+02 -0.29030072748E+02 -0.21737433730E+02  0.61981048053E+02  0.00000000000E+00 0.  1.
         14    1    6    6    0    0  0.47256671535E+01  0.30742092524E+02  0.15761425542E+02  0.34868764216E+02  0.00000000000E+00 0. -1.
         -5    1    3    3    0  503 -0.26751417052E+02 -0.54328466500E+02 -0.25618254370E+03  0.26328464878E+03  0.47000000000E+01 0.  1.
         13    1    4    4    0    0  0.27153672315E+02 -0.35165941430E+02 -0.28468750399E+02  0.52767746836E+02  0.00000000000E+00 0. -1.
        -14    1    4    4    0    0  0.11161143416E+02  0.38727738694E+02 -0.61579635315E+02  0.73596605575E+02  0.00000000000E+00 0.  1.
</event>
<event>
12    1  0.8691829E-002  0.4000336E+03  0.7818608E-02  0.1043916E+00
         21   -1    0    0  503  502  0.00000000000E+00  0.00000000000E+00  0.77399519395E+03  0.77399519395E+03  0.00000000000E+00 0.  1.
         21   -1    0    0  501  503 -0.00000000000E+00 -0.00000000000E+00 -0.22295698792E+03  0.22295698792E+03  0.00000000000E+00 0.  1.
          6    2    1    2  501    0 -0.35721019500E+03 -0.52467617420E+02  0.41404767804E+03  0.57572765736E+03  0.17226398775E+03 0.  0.
         24    2    3    3    0    0 -0.24337590329E+03 -0.98462123529E+01  0.18317510750E+03  0.31476968380E+03  0.78727731027E+02 0.  0.
         -6    2    1    2    0  502  0.35721019500E+03  0.52467617420E+02  0.13699052800E+03  0.42122452451E+03  0.16826087185E+03 0.  0.
        -24    2    5    5    0    0  0.14786402303E+03  0.76406835363E+02  0.90764133928E+02  0.20545178438E+03  0.79186702799E+02 0.  0.
          5    1    3    3  501    0 -0.11383429171E+03 -0.42621405068E+02  0.23087257054E+03  0.26095797356E+03  0.47000000000E+01 0. -1.
        -13    1    4    4    0    0 -0.16920777549E+03 -0.35366672435E+02  0.96905288045E+02  0.19817342823E+03  0.00000000000E+00 0.  1.
         14    1    4    4    0    0 -0.74168127800E+02  0.25520460082E+02  0.86269819460E+02  0.11659625557E+03  0.00000000000E+00 0. -1.
         -5    1    5    5    0  502  0.20934617197E+03 -0.23939217943E+02  0.46226394071E+02  0.21577274012E+03  0.47000000000E+01 0.  1.
         11    1    6    6    0    0  0.45758181738E+02  0.36890588968E+02 -0.63278770077E+01  0.59116569401E+02  0.00000000000E+00 0. -1.
        -12    1    6    6    0    0  0.10210584130E+03  0.39516246395E+02  0.97092010936E+02  0.14633521498E+03  0.00000000000E+00 0.  1.
</event>
<event>
12    1  0.8691829E-002  0.3199061E+03  0.7818608E-02  0.1076059E+00
         21   -1    0    0  503  502  0.00000000000E+00  0.00000000000E+00  0.96474109283E+02  0.96474109283E+02  0.00000000000E+00 0.  1.
         21   -1    0    0  501  503 -0.00000000000E+00 -0.00000000000E+00 -0.10509473413E+04  0.10509473413E+04  0.00000000000E+00 0. -1.
          6    2    1    2  501    0  0.16398606571E+03 -0.20947507242E+03 -0.48868292759E+03  0.58235459960E+03  0.17191463068E+03 0.  0.
         24    2    3    3    0    0  0.30425035920E+02 -0.25557170989E+02 -0.14026681751E+03  0.16632549135E+03  0.80065830284E+02 0.  0.
         -6    2    1    2    0  502 -0.16398606571E+03  0.20947507242E+03 -0.46579030439E+03  0.56506685094E+03  0.17767583589E+03 0.  0.
        -24    2    5    5    0    0 -0.49127384086E+01  0.63473202101E+02 -0.12426550359E+03  0.16098499147E+03  0.80132825437E+02 0.  0.
          5    1    3    3  501    0  0.13356102979E+03 -0.18391790144E+03 -0.34841611008E+03  0.41602910825E+03  0.47000000000E+01 0. -1.
        -11    1    4    4    0    0  0.31693319224E+02  0.24009370165E+02 -0.59961254642E+02  0.71946288282E+02  0.00000000000E+00 0.  1.
         12    1    4    4    0    0 -0.12682833048E+01 -0.49566541154E+02 -0.80305562872E+02  0.94379203073E+02  0.00000000000E+00 0. -1.
         -5    1    5    5    0  502 -0.15907332730E+03  0.14600187032E+03 -0.34152480080E+03  0.40408185947E+03  0.47000000000E+01 0.  1.
         13    1    6    6    0    0  0.75243228643E+01  0.45744283178E+02 -0.13046669416E+03  0.13845834450E+03  0.00000000000E+00 0. -1.
        -14    1    6    6    0    0 -0.12437061273E+02  0.17728918924E+02  0.62011905645E+01  0.22526646970E+02  0.00000000000E+00 0.  1.
</event>
<event>
12    1  0.8691829E-002  0.2207935E+03  0.7818608E-02  0.1133375E+00
         21   -1    0    0  503  502  0.00000000000E+00  0.00000000000E+00  0.76062616628E+02  0.76062616628E+02  0.00000000000E+00 0. -1.
         21   -1    0    0  501  503 -0.00000000000E+00 -0.00000000000E+00 -0.86416946393E+03  0.86416946393E+03  0.00000000000E+00 0.  1.
          6    2    1    2  501    0 -0.83970051052E+02 -0.10885343953E+03 -0.63398144183E+03  0.67132871025E+03  0.17277073784E+03 0.  0.
         24    2    3    3    0    0 -0.20451082297E+02  0.14456422964E+02 -0.22901383872E+03  0.24323896365E+03  0.78042425510E+02 0.  0.
         -6    2    1    2    0  502  0.83970051052E+02  0.10885343953E+03 -0.15412540548E+03  0.26890337031E+03  0.17220435878E+03 0.  0.
        -24    2    5    5    0    0  0.99247617144E+02  0.47795400442E+02 -0.46800536978E+02  0.14439551690E+03  0.80779237602E+02 0.  0.
          5    1    3    3  501    0 -0.63518968755E+02 -0.12330986249E+03 -0.40496760310E+03  0.42808974660E+03  0.47000000000E+01 0. -1.
        -11    1    4    4    0    0 -0.48362538864E+02  0.52872347813E+01 -0.17631665920E+03  0.18290558857E+03  0.00000000000E+00 0.  1.
         12    1    4    4    0    0  0.27911456566E+02  0.91691881826E+01 -0.52697179521E+02  0.60333375084E+02  0.00000000000E+00 0. -1.
         -5    1    5    5    0  502 -0.15277566092E+02  0.61058039083E+02 -0.10732486850E+03  0.12450785341E+03  0.47000000000E+01 0.  1.
         11    1    6    6    0    0  0.33231636460E+02  0.30018565116E+02  0.19787512428E+02  0.48959182607E+02  0.00000000000E+00 0. -1.
        -12    1    6    6    0    0  0.66015980684E+02  0.17776835326E+02 -0.66588049406E+02  0.95436334294E+02  0.00000000000E+00 0.  1.
</event>
<event>
12    1  0.8691829E-002  0.1804939E+03  0.7818608E-02  0.1168072E+00
         21   -1    0    0  501  502  0.00000000000E+00  0.00000000000E+00  0.22971476815E+03  0.22971476815E+03  0.00000000000E+00 0. -1.
         21   -1    0    0  502  503 -0.00000000000E+00 -0.00000000000E+00 -0.18998714139E+03  0.18998714139E+03  0.00000000000E+00 0. -1.
         -6    2    1    2    0  503  0.30228585712E+02  0.41076421023E+02  0.12799871296E+03  0.21877942378E+03  0.16994036010E+03 0.  0.
        -24    2    3    3    0    0  0.48586736543E+02  0.67112303997E+02  0.14298677994E+03  0.18326011838E+03  0.79210601784E+02 0.  0.
          6    2    1    2  501    0 -0.30228585712E+02 -0.41076421023E+02 -0.88271086188E+02  0.20092248576E+03  0.17313873302E+03 0.  0.
         24    2    5    5    0    0 -0.62605725616E+02 -0.20546848195E+02 -0.11455361099E+03  0.15420414184E+03  0.79465324010E+02 0.  0.
          5    1    5    5  501    0  0.32377139904E+02 -0.20529572828E+02  0.26282524801E+02  0.46718343922E+02  0.47000000000E+01 0. -1.
        -11    1    6    6    0    0 -0.61210660219E+02 -0.31874218124E+02 -0.42063493378E+02  0.80821087475E+02  0.00000000000E+00 0.  1.
         12    1    6    6    0    0 -0.13950653968E+01  0.11327369929E+02 -0.72490117611E+02  0.73383054367E+02  0.00000000000E+00 0. -1.
         -5    1    3    3    0  503 -0.18358150831E+02 -0.26035882974E+02 -0.14988066981E+02  0.35519305399E+02  0.47000000000E+01 0.  1.
         13    1    4    4    0    0  0.91692996744E+01  0.70346314271E+02  0.66911231223E+02  0.97518166778E+02  0.00000000000E+00 0. -1.
        -14    1    4    4    0    0  0.39417436869E+02 -0.32340102736E+01  0.76075548714E+02  0.85741951599E+02  0.00000000000E+00 0.  1.
</event>
<event>
12    1  0.8691829E-002  0.1819722E+03  0.7818608E-02  0.1166749E+00
         21   -1    0    0  503  502  0.00000000000E+00  0.00000000000E+00  0.68359252534E+02  0.68359252534E+02  0.00000000000E+00 0.  1.
         21   -1    0    0  501  503 -0.00000000000E+00 -0.00000000000E+00 -0.15340453517E+04  0.15340453517E+04  0.00000000000E+00 0.  1.
          6    2    1    2  501    0  0.49038614327E+02 -0.65316942376E+01 -0.13962865575E+04  0.14076479344E+04  0.17149083873E+03 0.  0.
         24    2    3    3    0    0  0.24399963985E+02  0.12277086106E+01 -0.30479569471E+03  0.31584132834E+03  0.79110452302E+02 0.  0.
         -6    2    1    2    0  502 -0.49038614327E+02  0.65316942376E+01 -0.69399541609E+02  0.19475666980E+03  0.17511828954E+03 0.  0.
        -24    2    5    5    0    0  0.28418585375E+02  0.36857710195E+02 -0.32365251555E+02  0.10358148859E+03  0.86692032360E+02 0.  0.
          5    1    3    3  501    0  0.24638650342E+02 -0.77594028482E+01 -0.10914908628E+04  0.10918066060E+04  0.47000000000E+01 0. -1.
        -11    1    4    4    0    0  0.46984510446E+02 -0.14258380146E+02 -0.24768459690E+03  0.25250446564E+03  0.00000000000E+00 0.  1.
         12    1    4    4    0    0 -0.22584546461E+02  0.15486088757E+02 -0.57111097808E+02  0.63336862700E+02  0.00000000000E+00 0. -1.
         -5    1    5    5    0  502 -0.77457199702E+02 -0.30326015957E+02 -0.37034290054E+02  0.91175181214E+02  0.47000000000E+01 0.  1.
         13    1    6    6    0    0  0.25061755160E+02 -0.15405908507E+02  0.14952497321E+02  0.33000163102E+02  0.00000000000E+00 0. -1.
        -14    1    6    6    0    0  0.33568302152E+01  0.52263618702E+02 -0.47317748876E+02  0.70581325488E+02  0.00000000000E+00 0.  1.
</event>
<event>
12    1  0.8691829E-002  0.1832683E+03  0.7818608E-02  0.1164701E+00
         21   -1    0    0  501  502  0.00000000000E+00  0.00000000000E+00  0.95059632768E+02  0.95059632768E+02  0.00000000000E+00 0. -1.
         21   -1    0    0  502  503 -0.00000000000E+00 -0.00000000000E+00 -0.35321963539E+03  0.35321963539E+03  0.00000000000E+00 0.  1.
         -6    2    1    2    0  503 -0.23699965343E+02  0.58917814445E+02 -0.13258953437E+03  0.22611896674E+03  0.17180455546E+03 0.  0.
        -24    2    3    3    0    0 -0.59594607081E+02  0.39977971358E+02 -0.54956734003E+02  0.13839163545E+03  0.10479621541E+03 0.  0.
          6    2    1    2  501    0  0.23699965343E+02 -0.58917814445E+02 -0.12557046825E+03  0.22216030142E+03  0.17191352424E+03 0.  0.
         24    2    5    5    0    0 -0.69785916465E+01 -0.53813432295E+02 -0.15256408393E+03  0.18071185316E+03  0.80227102232E+02 0.  0.
          5    1    5    5  501    0  0.30678556989E+02 -0.51043821501E+01  0.26993615674E+02  0.41448448261E+02  0.47000000000E+01 0. -1.
        -11    1    6    6    0    0  0.27298377539E+02 -0.56086490792E+02 -0.10273778803E+03  0.12019130150E+03  0.00000000000E+00 0.  1.
         12    1    6    6    0    0 -0.34276969186E+02  0.22730584968E+01 -0.49826295891E+02  0.60520551664E+02  0.00000000000E+00 0. -1.
         -5    1    3    3    0  503  0.35894641738E+02  0.18939843087E+02 -0.77632800371E+02  0.87727331289E+02  0.47000000000E+01 0.  1.
         13    1    4    4    0    0 -0.59703268766E+02  0.60718996436E+02 -0.61685131335E+01  0.85377557846E+02  0.00000000000E+00 0. -1.
        -14    1    4    4    0    0  0.10866168475E+00 -0.20741025078E+02 -0.48788220869E+02  0.53014077604E+02  0.00000000000E+00 0.  1.
</event>
<event>
12    1  0.8691829E-002  0.2551954E+03  0.7818608E-02  0.1110195E+00
         21   -1    0    0  501  502  0.00000000000E+00  0.00000000000E+00  0.13194571019E+03  0.13194571019E+03  0.00000000000E+00 0.  1.
         21   -1    0    0  502  503 -0.00000000000E+00 -0.00000000000E+00 -0.50608076833E+03  0.50608076833E+03  0.00000000000E+00 0. -1.
         -6    2    1    2    0  503 -0.18382607524E+03  0.39037075831E+02 -0.24008864820E+03  0.34976765215E+03  0.17140283625E+03 0.  0.
        -24    2    3    3    0    0 -0.69987810038E+02  0.61515464717E+02 -0.18290840500E+03  0.22032230151E+03  0.80024908442E+02 0.  0.
          6    2    1    2  501    0  0.18382607524E+03 -0.39037075831E+02 -0.13404640994E+03  0.28825882637E+03  0.17265222771E+03 0.  0.
         24    2    5    5    0    0  0.17879013477E+03 -0.97738180948E-01 -0.14886478008E+03  0.24602960892E+03  0.80024520464E+02 0.  0.
          5    1    5    5  501    0  0.50359404689E+01 -0.38939337650E+02  0.14818370132E+02  0.42229217449E+02  0.47000000000E+01 0. -1.
        -11    1    6    6    0    0  0.51900371218E+02 -0.23011113465E+02 -0.12066989605E+02  0.58041124331E+02  0.00000000000E+00 0.  1.
         12    1    6    6    0    0  0.12688976355E+03  0.22913375284E+02 -0.13679779047E+03  0.18798848459E+03  0.00000000000E+00 0. -1.
         -5    1    3    3    0  503 -0.11383826520E+03 -0.22478388887E+02 -0.57180243196E+02  0.12944535064E+03  0.47000000000E+01 0.  1.
         11    1    4    4    0    0 -0.54283786456E+02 -0.49149404548E+01 -0.77806509651E+02  0.94998626600E+02  0.00000000000E+00 0. -1.
        -12    1    4    4    0    0 -0.15704023582E+02  0.66430405172E+02 -0.10510189535E+03  0.12532367491E+03  0.00000000000E+00 0.  1.
</event>
<event>
12    1  0.8691829E-002  0.1789213E+03  0.7818608E-02  0.1168973E+00
         21   -1    0    0  501  502  0.00000000000E+00  0.00000000000E+00  0.45267281314E+03  0.45267281314E+03  0.00000000000E+00 0.  1.
         21   -1    0    0  502  503 -0.00000000000E+00 -0.00000000000E+00 -0.14766422348E+03  0.14766422348E+03  0.00000000000E+00 0.  1.
         -6    2    1    2    0  503 -0.47292181006E+02 -0.25320737833E+02 -0.64349831877E+02  0.19014132636E+03  0.17069016662E+03 0.  0.
        -24    2    3    3    0    0 -0.17750849652E+01 -0.44420967513E+02  0.17386380338E+02  0.94540472849E+02  0.81604175774E+02 0.  0.
          6    2    1    2  501    0  0.47292181006E+02  0.25320737833E+02  0.36935842154E+03  0.41019571026E+03  0.17016811397E+03 0.  0.
         24    2    5    5    0    0  0.85196344778E+02  0.53142786817E+02  0.29658707151E+03  0.32342848474E+03  0.80990868615E+02 0.  0.
          5    1    5    5  501    0 -0.37904163772E+02 -0.27822048984E+02  0.72771350027E+02  0.86767225527E+02  0.47000000000E+01 0. -1.
        -11    1    6    6    0    0  0.34968216804E+02 -0.16393811110E+02  0.13587036014E+03  0.14125256809E+03  0.00000000000E+00 0.  1.
         12    1    6    6    0    0  0.50228127973E+02  0.69536597926E+02  0.16071671137E+03  0.18217591664E+03  0.00000000000E+00 0. -1.
         -5    1    3    3    0  503 -0.45517096041E+02  0.19100229679E+02 -0.81736212214E+02  0.95600853516E+02  0.47000000000E+01 0.  1.
         11    1    4    4    0    0 -0.37164837816E+01 -0.25212164019E+02 -0.32353447669E+02  0.41185082764E+02  0.00000000000E+00 0. -1.
        -12    1    4    4    0    0  0.19413988164E+01 -0.19208803494E+02  0.49739828006E+02  0.53355390085E+02  0.00000000000E+00 0.  1.
</event>
<event>
12    1  0.8691829E-002  0.1831278E+03  0.7818608E-02  0.1165074E+00
         21   -1    0    0  503  502  0.00000000000E+00  0.00000000000E+00  0.82839287073E+03  0.82839287073E+03  0.00000000000E+00 0. -1.
         21   -1    0    0  501  503 -0.00000000000E+00 -0.00000000000E+00 -0.41716261053E+02  0.41716261053E+02  0.00000000000E+00 0. -1.
          6    2    1    2  501    0  0.22708649428E+02  0.59235799986E+02  0.31025571482E+03  0.35970471434E+03  0.17059985399E+03 0.  0.
         24    2    3    3    0    0  0.33100502986E+02  0.10413840536E+03  0.22160224809E+03  0.25967590972E+03  0.79897252528E+02 0.  0.
         -6    2    1    2    0  502 -0.22708649428E+02 -0.59235799986E+02  0.47642089485E+03  0.51040441744E+03  0.17178835098E+03 0.  0.
        -24    2    5    5    0    0 -0.18967433718E+02 -0.10281199439E+03  0.28804903356E+03  0.31696468642E+03  0.81020349083E+02 0.  0.
          5    1    3    3  501    0 -0.10391853558E+02 -0.44902605376E+02  0.88653466734E+02  0.10002880462E+03  0.47000000000E+01 0. -1.
        -11    1    4    4    0    0  0.28849758749E+01  0.39622077943E+02  0.16197020264E+03  0.16677103672E+03  0.00000000000E+00 0.  1.
         12    1    4    4    0    0  0.30215527111E+02  0.64516327418E+02  0.59632045449E+02  0.92904872997E+02  0.00000000000E+00 0. -1.
         -5    1    5    5    0  502 -0.37412157106E+01  0.43576194402E+02  0.18837186129E+03  0.19343973102E+03  0.47000000000E+01 0.  1.
         13    1    6    6    0    0 -0.66042253052E+01 -0.55569000800E+02  0.53616885691E+02  0.77500323051E+02  0.00000000000E+00 0. -1.
        -14    1    6    6    0    0 -0.12363208412E+02 -0.47242993588E+02  0.23443214787E+03  0.23946436336E+03  0.00000000000E+00 0.  1.
</event>
<event>
12    1  0.8691829E-002  0.1831236E+03  0.7818608E-02  0.1165493E+00
         21   -1    0    0  501  502  0.00000000000E+00  0.00000000000E+00  0.10051710816E+03  0.10051710816E+03  0.00000000000E+00 0. -1.
         21   -1    0    0  502  503 -0.00000000000E+00 -0.00000000000E+00 -0.55068714644E+03  0.55068714644E+03  0.00000000000E+00 0. -1.
         -6    2    1    2    0  503  0.14856548974E+02 -0.58292735232E+02 -0.43087281188E+03  0.46706666759E+03  0.16994449662E+03 0.  0.
        -24    2    3    3    0    0  0.30820347260E+02 -0.28159453542E+02 -0.10067841412E+03  0.13508280077E+03  0.79802076191E+02 0.  0.
          6    2    1    2  501    0 -0.14856548974E+02  0.58292735232E+02 -0.19297226402E+02  0.18413758701E+03  0.17296100131E+03 0.  0.
         24    2    5    5    0    0 -0.40271451828E+02 -0.46057883913E+01 -0.56731196572E+02  0.10651327584E+03  0.80521091320E+02 0.  0.
          5    1    5    5  501    0  0.25414902854E+02  0.62898523623E+02  0.37433970170E+02  0.77624311164E+02  0.47000000000E+01 0. -1.
        -11    1    6    6    0    0 -0.11856077049E+02 -0.29051510190E+02  0.73933134143E+01  0.32236902621E+02  0.00000000000E+00 0.  1.
         12    1    6    6    0    0 -0.28415374779E+02  0.24445721799E+02 -0.64124509986E+02  0.74276373222E+02  0.00000000000E+00 0. -1.
         -5    1    3    3    0  503 -0.15963798287E+02 -0.30133281690E+02 -0.33019439776E+03  0.33198386682E+03  0.47000000000E+01 0.  1.
         11    1    4    4    0    0  0.67193762999E+01 -0.35634638701E+02 -0.10352199207E+03  0.10968947231E+03  0.00000000000E+00 0. -1.
        -12    1    4    4    0    0  0.24100970960E+02  0.74751851589E+01  0.28435779549E+01  0.25393328454E+02  0.00000000000E+00 0.  1.
</event>
<event>
12    1  0.8691829E-002  0.1836375E+03  0.7818608E-02  0.1164710E+00
         21   -1    0    0  503  502  0.00000000000E+00  0.00000000000E+00  0.79271140138E+03  0.79271140138E+03  0.00000000000E+00 0.  1.
         21   -1    0    0  501  503 -0.00000000000E+00 -0.00000000000E+00 -0.69037981328E+02  0.69037981328E+02  0.00000000000E+00 0.  1.
          6    2    1    2  501    0  0.41131213643E+02  0.49949091804E+02  0.94007694404E+02  0.20630116610E+03  0.17186051327E+03 0.  0.
         24    2    3    3    0    0  0.38278081427E+02  0.97618648897E+02  0.46698998529E+02  0.13891622905E+03  0.78245192175E+02 0.  0.
         -6    2    1    2    0  502 -0.41131213643E+02 -0.49949091804E+02  0.62966572565E+03  0.65544821660E+03  0.17013744469E+03 0.  0.
        -24    2    5    5    0    0 -0.12572160911E+02  0.33764927396E+02  0.39473707172E+03  0.40437607769E+03  0.80028287895E+02 0.  0.
          5    1    3    3  501    0  0.28531322168E+01 -0.47669557094E+02  0.47308695875E+02  0.67384937058E+02  0.47000000000E+01 0. -1.
        -13    1    4    4    0    0  0.23505359472E+02  0.47224626158E+02  0.64629856063E+02  0.83424729753E+02  0.00000000000E+00 0.  1.
         14    1    4    4    0    0  0.14772721955E+02  0.50394022740E+02 -0.17930857535E+02  0.55491499293E+02  0.00000000000E+00 0. -1.
         -5    1    5    5    0  502 -0.28559052732E+02 -0.83714019199E+02  0.23492865393E+03  0.25107213892E+03  0.47000000000E+01 0.  1.
         11    1    6    6    0    0 -0.16108191155E+02 -0.95146706116E+01  0.20999895370E+02  0.28124693504E+02  0.00000000000E+00 0. -1.
        -12    1    6    6    0    0  0.35360302439E+01  0.43279598007E+02  0.37373717635E+03  0.37625138418E+03  0.00000000000E+00 0.  1.
</event>
<event>
12    1  0.8691829E-002  0.2827197E+03  0.7818608E-02  0.1095501E+00
         21   -1    0    0  501  502  0.00000000000E+00  0.00000000000E+00  0.46265983971E+02  0.46265983971E+02  0.00000000000E+00 0. -1.
         21   -1    0    0  502  503 -0.00000000000E+00 -0.00000000000E+00 -0.17011541175E+04  0.17011541175E+04  0.00000000000E+00 0.  1.
         -6    2    1    2    0  503 -0.21161395218E+03  0.40864376820E+02 -0.69696803023E+03  0.74865017724E+03  0.16811392170E+03 0.  0.
        -24    2    3    3    0    0 -0.50175635530E+02 -0.20176132653E+02 -0.19184164863E+03  0.21483089577E+03  0.80152510247E+02 0.  0.
          6    2    1    2  501    0  0.21161395218E+03 -0.40864376820E+02 -0.95792010330E+03  0.99876992424E+03  0.18297561367E+03 0.  0.
         24    2    5    5    0    0  0.10839070667E+03  0.55977584639E+02 -0.55042822112E+03  0.56737088859E+03  0.63690370839E+02 0.  0.
          5    1    5    5  501    0  0.10322324551E+03 -0.96841961459E+02 -0.40749188218E+03  0.43139903565E+03  0.47000000000E+01 0. -1.
        -11    1    6    6    0    0  0.46217880707E+02  0.59042068261E+02 -0.27939390110E+03  0.28928015883E+03  0.00000000000E+00 0.  1.
         12    1    6    6    0    0  0.62172825959E+02 -0.30644836221E+01 -0.27103432002E+03  0.27809072976E+03  0.00000000000E+00 0. -1.
         -5    1    3    3    0  503 -0.16143831665E+03  0.61040509474E+02 -0.50512638160E+03  0.53381928146E+03  0.47000000000E+01 0.  1.
         13    1    4    4    0    0 -0.57086014917E+02 -0.42368630881E+02 -0.16271164864E+03  0.17756405769E+03  0.00000000000E+00 0. -1.
        -14    1    4    4    0    0  0.69103793869E+01  0.22192498227E+02 -0.29129999994E+02  0.37266838080E+02  0.00000000000E+00 0.  1.
</event>
<event>
12    1  0.8691829E-002  0.2019789E+03  0.7818608E-02  0.1152220E+00
         21   -1    0    0  503  502  0.00000000000E+00  0.00000000000E+00  0.61041102123E+02  0.61041102123E+02  0.00000000000E+00 0. -1.
         21   -1    0    0  501  503 -0.00000000000E+00 -0.00000000000E+00 -0.78035997285E+03  0.78035997285E+03  0.00000000000E+00 0. -1.
          6    2    1    2  501    0  0.33646595281E+02 -0.56874225695E+02 -0.54384473281E+03  0.57384423347E+03  0.17077277288E+03 0.  0.
         24    2    3    3    0    0  0.40287980641E+01 -0.75039540754E+02 -0.51941343634E+03  0.53111051340E+03  0.81491691046E+02 0.  0.
         -6    2    1    2    0  502 -0.33646595281E+02  0.56874225695E+02 -0.17547413791E+03  0.26755684150E+03  0.19086309082E+03 0.  0.
        -24    2    5    5    0    0  0.50039516803E+02  0.22880875683E+02 -0.40892497871E+02  0.10540499589E+03  0.80065779592E+02 0.  0.
          5    1    3    3  501    0  0.29617797217E+02  0.18165315059E+02 -0.24431296475E+02  0.42733720066E+02  0.47000000000E+01 0. -1.
        -13    1    4    4    0    0  0.36977374944E+02 -0.36556805757E+02 -0.16241781802E+03  0.17053818902E+03  0.00000000000E+00 0.  1.
         14    1    4    4    0    0 -0.32948576880E+02 -0.38482734997E+02 -0.35699561832E+03  0.36057232438E+03  0.00000000000E+00 0. -1.
         -5    1    5    5    0  502 -0.83686112084E+02  0.33993350012E+02 -0.13458164004E+03  0.16215184562E+03  0.47000000000E+01 0.  1.
         13    1    6    6    0    0 -0.36270911861E+01 -0.71876080609E+01 -0.43103830169E+02  0.43849260830E+02  0.00000000000E+00 0. -1.
        -14    1    6    6    0    0  0.53666607989E+02  0.30068483744E+02  0.22113322976E+01  0.61555735056E+02  0.00000000000E+00 0.  1.
</event>
<event>
12    1  0.8691829E-002  0.1893353E+03  0.7818608E-02  0.1160294E+00
         21   -1    0    0  501  502  0.00000000000E+00  0.00000000000E+00  0.53392384558E+02  0.53392384558E+02  0.00000000000E+00 0. -1.
         21   -1    0    0  502  503 -0.00000000000E+00 -0.00000000000E+00 -0.74844685444E+03  0.74844685444E+03  0.00000000000E+00 0. -1.
         -6    2    1    2    0  503  0.31565855251E+02  0.75745648309E+02 -0.49537642583E+03  0.53032600220E+03  0.17062842345E+03 0.  0.
        -24    2    3    3    0    0  0.34689560385E+02  0.62447063212E+02 -0.50292127731E+03  0.51402800591E+03  0.78689124972E+02 0.  0.
          6    2    1    2  501    0 -0.31565855251E+02 -0.75745648309E+02 -0.19967804405E+03  0.27151323679E+03  0.16466423419E+03 0.  0.
         24    2    5    5    0    0 -0.65831390681E+02 -0.77570344360E+02 -0.93843894746E+02  0.16015609247E+03  0.80575226028E+02 0.  0.
          5    1    5    5  501    0  0.34265535430E+02  0.18246960506E+01 -0.10583414930E+03  0.11135714433E+03  0.47000000000E+01 0. -1.
        -11    1    6    6    0    0  0.20857837377E-01 -0.61362933445E+02 -0.36908555853E+02  0.71607622019E+02  0.00000000000E+00 0.  1.
         12    1    6    6    0    0 -0.65852248519E+02 -0.16207410914E+02 -0.56935338893E+02  0.88548470447E+02  0.00000000000E+00 0. -1.
         -5    1    3    3    0  503 -0.31237051333E+01  0.13298585097E+02  0.75448514767E+01  0.16297996293E+02  0.47000000000E+01 0.  1.
         11    1    4    4    0    0  0.40667759203E+02  0.78872479116E+02 -0.42630714500E+03  0.43544519342E+03  0.00000000000E+00 0. -1.
        -12    1    4    4    0    0 -0.59781988181E+01 -0.16425415904E+02 -0.76614132310E+02  0.78582812487E+02  0.00000000000E+00 0.  1.
</event>
<event>
12    1  0.8691829E-002  0.2234144E+03  0.7818608E-02  0.1131845E+00
         21   -1    0    0  501  502  0.00000000000E+00  0.00000000000E+00  0.13872505144E+03  0.13872505144E+03  0.00000000000E+00 0. -1.
         21   -1    0    0  502  503 -0.00000000000E+00 -0.00000000000E+00 -0.86933062713E+03  0.86933062713E+03  0.00000000000E+00 0. -1.
         -6    2    1    2    0  503  0.14241619790E+03  0.12532320230E+02 -0.75188321736E+03  0.78363032834E+03  0.16825185427E+03 0.  0.
        -24    2    3    3    0    0  0.15993027113E+03  0.40151724459E+02 -0.68503544783E+03  0.70906298601E+03  0.79415998019E+02 0.  0.
          6    2    1    2  501    0 -0.14241619790E+03 -0.12532320230E+02  0.21277641676E+02  0.22442535023E+03  0.17168158700E+03 0.  0.
         24    2    5    5    0    0 -0.31771485889E+02 -0.51894252578E+02 -0.12240161767E+02  0.10220772809E+03  0.81204417089E+02 0.  0.
          5    1    5    5  501    0 -0.11064471202E+03  0.39361932348E+02  0.33517803443E+02  0.12221762215E+03  0.47000000000E+01 0. -1.
        -13    1    6    6    0    0 -0.53245221130E+02 -0.53216474669E+02 -0.22221052947E+02  0.78490903571E+02  0.00000000000E+00 0.  1.
         14    1    6    6    0    0  0.21473735241E+02  0.13222220914E+01  0.99808911796E+01  0.23716824518E+02  0.00000000000E+00 0. -1.
         -5    1    3    3    0  503 -0.17514073227E+02 -0.27619404229E+02 -0.66847769527E+02  0.74567342326E+02  0.47000000000E+01 0.  1.
         11    1    4    4    0    0  0.55259118955E+02  0.21748068015E+02 -0.40876345447E+03  0.41305460946E+03  0.00000000000E+00 0. -1.
        -12    1    4    4    0    0  0.10467115218E+03  0.18403656444E+02 -0.27627199337E+03  0.29600837655E+03  0.00000000000E+00 0.  1.
</event>
<event>
12    1  0.8691829E-002  0.2093242E+03  0.7818608E-02  0.1142575E+00
         21   -1    0    0  503  502  0.00000000000E+00  0.00000000000E+00  0.12127224527E+04  0.12127224527E+04  0.00000000000E+00 0.  1.
         21   -1    0    0  501  503 -0.00000000000E+00 -0.00000000000E+00 -0.40843750652E+02  0.40843750652E+02  0.00000000000E+00 0.  1.
          6    2    1    2  501    0 -0.93166770913E+02  0.68949740810E+02  0.36112740349E+03  0.41622858753E+03  0.17146172041E+03 0.  0.
         24    2    3    3    0    0 -0.11355159861E+03  0.57649550617E+02  0.18398088246E+03  0.23749354505E+03  0.79603910688E+02 0.  0.
         -6    2    1    2    0  502  0.93166770913E+02 -0.68949740810E+02  0.81075129859E+03  0.83733761585E+03  0.17430576810E+03 0.  0.
        -24    2    5    5    0    0  0.60351407417E+02  0.78315556337E+01  0.63254176614E+03  0.64047994386E+03  0.80011542520E+02 0.  0.
          5    1    3    3  501    0  0.20384827695E+02  0.11300190193E+02  0.17714652103E+03  0.17873504248E+03  0.47000000000E+01 0. -1.
        -13    1    4    4    0    0 -0.19139811155E+02  0.43918592526E+02  0.97903680153E+02  0.10899681522E+03  0.00000000000E+00 0.  1.
         14    1    4    4    0    0 -0.94411787453E+02  0.13730958090E+02  0.86077202311E+02  0.12849672983E+03  0.00000000000E+00 0. -1.
         -5    1    5    5    0  502  0.32815363496E+02 -0.76781296444E+02  0.17820953245E+03  0.19685767199E+03  0.47000000000E+01 0.  1.
         13    1    6    6    0    0 -0.87516482902E+01  0.47603610323E+00  0.32771046132E+03  0.32782764438E+03  0.00000000000E+00 0. -1.
        -14    1    6    6    0    0  0.69103055707E+02  0.73555195305E+01  0.30483130482E+03  0.31265229948E+03  0.00000000000E+00 0.  1.
</event>
<event>
12    1  0.8691829E-002  0.2085740E+03  0.7818608E-02  0.1142808E+00
         21   -1    0    0  503  502  0.00000000000E+00  0.00000000000E+00  0.47658939176E+02  0.47658939176E+02  0.00000000000E+00 0.  1.
         21   -1    0    0  501  503 -0.00000000000E+00 -0.00000000000E+00 -0.18306016954E+04  0.18306016954E+04  0.00000000000E+00 0.  1.
          6    2    1    2  501    0 -0.10165347706E+03 -0.59652204440E+02 -0.15567223820E+04  0.15705614756E+04  0.17142624949E+03 0.  0.
         24    2    3    3    0    0 -0.40879267600E+02 -0.10038591357E+03 -0.10761785616E+04  0.10844573788E+04  0.78352177757E+02 0.  0.
         -6    2    1    2    0  502  0.10165347706E+03  0.59652204440E+02 -0.22622037417E+03  0.30769915896E+03  0.17207934170E+03 0.  0.
        -24    2    5    5    0    0  0.43414083301E+02  0.74573038766E+02 -0.21697498183E+03  0.24669075329E+03  0.79575525648E+02 0.  0.
          5    1    3    3  501    0 -0.60774209458E+02  0.40733709132E+02 -0.48054382040E+03  0.48610409680E+03  0.47000000000E+01 0. -1.
        -13    1    4    4    0    0 -0.29697372272E+02 -0.16876621183E+02 -0.59336994774E+03  0.59435229380E+03  0.00000000000E+00 0.  1.
         14    1    4    4    0    0 -0.11181895328E+02 -0.83509292389E+02 -0.48280861390E+03  0.49010508501E+03  0.00000000000E+00 0. -1.
         -5    1    5    5    0  502  0.58239393757E+02 -0.14920834325E+02 -0.92453923431E+01  0.61008405665E+02  0.47000000000E+01 0.  1.
         13    1    6    6    0    0  0.90213830997E+01  0.63580830256E+02 -0.68524054112E+02  0.93911944506E+02  0.00000000000E+00 0. -1.
        -14    1    6    6    0    0  0.34392700201E+02  0.10992208510E+02 -0.14845092772E+03  0.15277880879E+03  0.00000000000E+00 0.  1.
</event>
<event>
12    1  0.8691829E-002  0.3185528E+03  0.7818608E-02  0.1076475E+00
         21   -1    0    0  503  502  0.00000000000E+00  0.00000000000E+00  0.53566427146E+03  0.53566427146E+03  0.00000000000E+00 0.  1.
         21   -1    0    0  501  503 -0.00000000000E+00 -0.00000000000E+00 -0.56731573287E+03  0.56731573287E+03  0.00000000000E+00 0.  1.
          6    2    1    2  501    0 -0.26228841663E+03 -0.58447603084E+02 -0.46640832421E+03  0.56481201260E+03  0.17106884251E+03 0.  0.
         24    2    3    3    0    0 -0.19590410545E+03 -0.10559617377E+03 -0.32753843742E+03  0.40376295192E+03  0.78829708280E+02 0.  0.
         -6    2    1    2    0  502  0.26228841663E+03  0.58447603084E+02  0.43475686281E+03  0.53816799173E+03  0.16852276333E+03 0.  0.
        -24    2    5    5    0    0  0.14906827805E+03  0.99493361696E+02  0.28139310791E+03  0.34311393411E+03  0.80154912857E+02 0.  0.
          5    1    3    3  501    0 -0.66384311180E+02  0.47148570687E+02 -0.13886988679E+03  0.16104906068E+03  0.47000000000E+01 0. -1.
        -11    1    4    4    0    0 -0.40452253815E+02  0.10400511063E+02 -0.67026584420E+02  0.78975429648E+02  0.00000000000E+00 0.  1.
         12    1    4    4    0    0 -0.15545185164E+03 -0.11599668483E+03 -0.26051185300E+03  0.32478752227E+03  0.00000000000E+00 0. -1.
         -5    1    5    5    0  502  0.11322013858E+03 -0.41045758612E+02  0.15336375490E+03  0.19505405762E+03  0.47000000000E+01 0.  1.
         11    1    6    6    0    0  0.63463979202E+02  0.82676706824E+01  0.54690521757E+02  0.84184821700E+02  0.00000000000E+00 0. -1.
        -12    1    6    6    0    0  0.85604298852E+02  0.91225691014E+02  0.22670258615E+03  0.25892911241E+03  0.00000000000E+00 0.  1.
</event>
<event>
12    1  0.8691829E-002  0.4355978E+03  0.7818608E-02  0.1032379E+00
         21   -1    0    0  501  502  0.00000000000E+00  0.00000000000E+00  0.51397263974E+03  0.51397263974E+03  0.00000000000E+00 0. -1.
         21   -1    0    0  502  503 -0.00000000000E+00 -0.00000000000E+00 -0.44900653459E+03  0.44900653459E+03  0.00000000000E+00 0.  1.
         -6    2    1    2    0  503  0.93225208162E+02  0.38508103976E+03 -0.17437079668E+03  0.46596044692E+03  0.17244018308E+03 0.  0.
        -24    2    3    3    0    0  0.13704348073E+02  0.21752589346E+03 -0.14905379933E+03  0.27871372574E+03  0.89213128716E+02 0.  0.
          6    2    1    2  501    0 -0.93225208162E+02 -0.38508103976E+03  0.23933690183E+03  0.49701872742E+03  0.18101689482E+03 0.  0.
         24    2    5    5    0    0 -0.24781707824E+02 -0.66854180725E+02  0.33549016874E+02  0.11189070956E+03  0.79437899195E+02 0.  0.
          5    1    5    5  501    0 -0.68443500339E+02 -0.31822685903E+03  0.20578788495E+03  0.38512801786E+03  0.47000000000E+01 0. -1.
        -11    1    6    6    0    0  0.11420264025E+02  0.99974994663E+01 -0.81818086791E+01  0.17242807754E+02  0.00000000000E+00 0.  1.
         12    1    6    6    0    0 -0.36201971849E+02 -0.76851680191E+02  0.41730825553E+02  0.94647901801E+02  0.00000000000E+00 0. -1.
         -5    1    3    3    0  503  0.79520860089E+02  0.16755514629E+03 -0.25316997344E+02  0.18724672118E+03  0.47000000000E+01 0.  1.
         11    1    4    4    0    0  0.23157472466E+02  0.10365087783E+03 -0.12110578764E+03  0.16107881551E+03  0.00000000000E+00 0. -1.
        -12    1    4    4    0    0 -0.94531243931E+01  0.11387501563E+03 -0.27948011691E+02  0.11763491023E+03  0.00000000000E+00 0.  1.
</event>
<event>
12    1  0.8691829E-002  0.2146600E+03  0.7818608E-02  0.1137983E+00
         21   -1    0    0  501  502  0.00000000000E+00  0.00000000000E+00  0.45522992001E+03  0.45522992001E+03  0.00000000000E+00 0.  1.
         21   -1    0    0  502  503 -0.00000000000E+00 -0.00000000000E+00 -0.13198870122E+03  0.13198870122E+03  0.00000000000E+00 0. -1.
         -6    2    1    2    0  503 -0.14890848078E+02 -0.12736182300E+03  0.19469783186E+02  0.21525624113E+03  0.17179466108E+03 0.  0.
        -24    2    3    3    0    0 -0.77010540603E+01 -0.11523567443E+03 -0.46974801427E+02  0.14717019674E+03  0.78191226766E+02 0.  0.
          6    2    1    2  501    0  0.14890848078E+02  0.12736182300E+03  0.30377143561E+03  0.37196238010E+03  0.17215154895E+03 0.  0.
         24    2    5    5    0    0 -0.19894521627E+02  0.13538280382E+03  0.29548908908E+03  0.33501586006E+03  0.78724387371E+02 0.  0.
          5    1    5    5  501    0  0.34785369705E+02 -0.80209808191E+01  0.82823465236E+01  0.36946520035E+02  0.47000000000E+01 0. -1.
        -11    1    6    6    0    0 -0.34448876238E+02  0.53799780864E+02  0.69941129736E+02  0.94725409072E+02  0.00000000000E+00 0.  1.
         12    1    6    6    0    0  0.14554354611E+02  0.81583022953E+02  0.22554795935E+03  0.24029045099E+03  0.00000000000E+00 0. -1.
         -5    1    3    3    0  503 -0.71897940176E+01 -0.12126148567E+02  0.66444584613E+02  0.68086044396E+02  0.47000000000E+01 0.  1.
         13    1    4    4    0    0  0.93663987889E+01 -0.93317871706E+02 -0.14008229366E+01  0.93797211637E+02  0.00000000000E+00 0. -1.
        -14    1    4    4    0    0 -0.17067452849E+02 -0.21917802726E+02 -0.45573978490E+02  0.53372985100E+02  0.00000000000E+00 0.  1.
</event>
<event>
12    1  0.8691829E-002  0.1803636E+03  0.7818608E-02  0.1167892E+00
         21   -1    0    0  501  502  0.00000000000E+00  0.00000000000E+00  0.29170616509E+03  0.29170616509E+03  0.00000000000E+00 0. -1.
         21   -1    0    0  502  503 -0.00000000000E+00 -0.00000000000E+00 -0.12094311840E+03  0.12094311840E+03  0.00000000000E+00 0. -1.
         -6    2    1    2    0  503 -0.40698262130E+02  0.25060031850E+02  0.24856624059E+02  0.18206837599E+03  0.17391574983E+03 0.  0.
        -24    2    3    3    0    0  0.44309043953E+02  0.97974232015E+00 -0.15064798329E+01  0.89747166732E+02  0.78025849459E+02 0.  0.
          6    2    1    2  501    0  0.40698262130E+02 -0.25060031850E+02  0.14590642263E+03  0.23058090750E+03  0.17203056997E+03 0.  0.
         24    2    5    5    0    0  0.68033208374E+02 -0.28373811204E+02  0.22553177561E+02  0.10410445322E+03  0.69967855177E+02 0.  0.
          5    1    5    5  501    0 -0.27334946245E+02  0.33137793540E+01  0.12335324507E+03  0.12647645428E+03  0.47000000000E+01 0. -1.
        -11    1    6    6    0    0  0.72890192049E+02 -0.40172129531E+01  0.28829867360E+02  0.78487447078E+02  0.00000000000E+00 0.  1.
         12    1    6    6    0    0 -0.48569836745E+01 -0.24356598251E+02 -0.62766897997E+01  0.25617006141E+02  0.00000000000E+00 0. -1.
         -5    1    3    3    0  503 -0.85007306083E+02  0.24080289530E+02  0.26363103892E+02  0.92321209254E+02  0.47000000000E+01 0.  1.
         11    1    4    4    0    0  0.38817523572E+02  0.19326157230E+02 -0.31893883366E+02  0.53828619579E+02  0.00000000000E+00 0. -1.
        -12    1    4    4    0    0  0.54915203810E+01 -0.18346414909E+02  0.30387403533E+02  0.35918547153E+02  0.00000000000E+00 0.  1.
</event>
<event>
12    1  0.8691829E-002  0.2017652E+03  0.7818608E-02  0.1148545E+00
         21   -1    0    0  503  502  0.00000000000E+00  0.00000000000E+00  0.11106195810E+03  0.11106195810E+03  0.00000000000E+00 0.  1.
         21   -1    0    0  501  503 -0.00000000000E+00 -0.00000000000E+00 -0.40179873373E+03  0.40179873373E+03  0.00000000000E+00 0.  1.
          6    2    1    2  501    0  0.82812511586E+02 -0.58267215790E+02 -0.22440252479E+03  0.30177095391E+03  0.17451714810E+03 0.  0.
         24    2    3    3    0    0  0.12623535585E+03 -0.62355847949E+02 -0.13651466081E+03  0.20354352927E+03  0.54498613317E+02 0.  0.
         -6    2    1    2    0  502 -0.82812511586E+02  0.58267215790E+02 -0.66334250843E+02  0.21108973792E+03  0.17293254207E+03 0.  0.
        -24    2    5    5    0    0 -0.10194245470E+03  0.64952016439E+02 -0.97077186418E+02  0.17397020975E+03  0.78934309705E+02 0.  0.
          5    1    3    3  501    0 -0.43422844259E+02  0.40886321590E+01 -0.87887863983E+02  0.98227424643E+02  0.47000000000E+01 0. -1.
        -13    1    4    4    0    0  0.11077980077E+03 -0.64533569370E+02 -0.96115279297E+02  0.16023386892E+03  0.00000000000E+00 0.  1.
         14    1    4    4    0    0  0.15455555075E+02  0.21777214211E+01 -0.40399381512E+02  0.43309660353E+02  0.00000000000E+00 0. -1.
         -5    1    5    5    0  502  0.19129943116E+02 -0.66848006490E+01  0.30742935574E+02  0.37119528164E+02  0.47000000000E+01 0.  1.
         11    1    6    6    0    0  0.72338175799E+01  0.28283773116E+02 -0.20059244255E+02  0.35421366695E+02  0.00000000000E+00 0. -1.
        -12    1    6    6    0    0 -0.10917627228E+03  0.36668243323E+02 -0.77017942163E+02  0.13854884306E+03  0.00000000000E+00 0.  1.
</event>
<event>
12    1  0.8691829E-002  0.2194625E+03  0.7818608E-02  0.1134507E+00
         21   -1    0    0  501  502  0.00000000000E+00  0.00000000000E+00  0.46269066516E+03  0.46269066516E+03  0.00000000000E+00 0.  1.
         21   -1    0    0  502  503 -0.00000000000E+00 -0.00000000000E+00 -0.31216502802E+03  0.31216502802E+03  0.00000000000E+00 0.  1.
         -6    2    1    2    0  503 -0.12153425266E+03 -0.59347616241E+02 -0.24153571369E+03  0.32554967678E+03  0.17131951711E+03 0.  0.
        -24    2    3    3    0    0 -0.10490140470E+03  0.22424481098E+02 -0.16486520336E+03  0.21213105093E+03  0.79447375230E+02 0.  0.
          6    2    1    2  501    0  0.12153425266E+03  0.59347616241E+02  0.39206135083E+03  0.44930601641E+03  0.17283251847E+03 0.  0.
         24    2    5    5    0    0  0.73952552270E+02  0.82665784482E+02  0.36690416309E+03  0.39046105675E+03  0.74421502497E+02 0.  0.
          5    1    5    5  501    0  0.47581700388E+02 -0.23318168241E+02  0.25157187741E+02  0.58844959657E+02  0.47000000000E+01 0. -1.
        -11    1    6    6    0    0 -0.10867277932E+02  0.22064259182E+02  0.36591686300E+02  0.44089463244E+02  0.00000000000E+00 0.  1.
         12    1    6    6    0    0  0.84819830202E+02  0.60601525300E+02  0.33031247679E+03  0.34637159350E+03  0.00000000000E+00 0. -1.
         -5    1    3    3    0  503 -0.16632847954E+02 -0.81772097339E+02 -0.76670510332E+02  0.11341862585E+03  0.47000000000E+01 0.  1.
         13    1    4    4    0    0 -0.87465524445E+00 -0.55240183793E+01  0.72084002242E+01  0.91236415232E+01  0.00000000000E+00 0. -1.
        -14    1    4    4    0    0 -0.10402674946E+03  0.27948499477E+02 -0.17207360358E+03  0.20300740941E+03  0.00000000000E+00 0.  1.
</event>
<event>
12    1  0.8691829E-002  0.1814294E+03  0.7818608E-02  0.1166613E+00
         21   -1    0    0  501  502  0.00000000000E+00  0.00000000000E+00  0.73791275869E+02  0.73791275869E+02  0.00000000000E+00 0. -1.
         21   -1    0    0  502  503 -0.00000000000E+00 -0.00000000000E+00 -0.73031785918E+03  0.73031785918E+03  0.00000000000E+00 0. -1.
         -6    2    1    2    0  503 -0.14781356851E+02  0.53169862270E+02 -0.58035692652E+03  0.60805491648E+03  0.17283256789E+03 0.  0.
        -24    2    3    3    0    0  0.50875171610E+02  0.58198868598E+01 -0.25174748724E+03  0.26958918189E+03  0.81727446390E+02 0.  0.
          6    2    1    2  501    0  0.14781356851E+02 -0.53169862270E+02 -0.76169656789E+02  0.19605421857E+03  0.17201720042E+03 0.  0.
         24    2    5    5    0    0 -0.49245545247E+02 -0.12935767147E+02 -0.74701270282E+02  0.12027511353E+03  0.79330733980E+02 0.  0.
          5    1    5    5  501    0  0.64026902097E+02 -0.40234095123E+02 -0.14683865070E+01  0.75779105045E+02  0.47000000000E+01 0. -1.
        -13    1    6    6    0    0 -0.42215072263E+02  0.22221752657E+02 -0.13900744800E+02  0.49690535551E+02  0.00000000000E+00 0.  1.
         14    1    6    6    0    0 -0.70304729831E+01 -0.35157519804E+02 -0.60800525482E+02  0.70584577976E+02  0.00000000000E+00 0. -1.
         -5    1    3    3    0  503 -0.65656528461E+02  0.47349975410E+02 -0.32860943929E+03  0.33846573459E+03  0.47000000000E+01 0.  1.
         11    1    4    4    0    0 -0.67844701319E+01  0.31221684591E+02 -0.10828896754E+03  0.11290404384E+03  0.00000000000E+00 0. -1.
        -12    1    4    4    0    0  0.57659641742E+02 -0.25401797731E+02 -0.14345851970E+03  0.15668513805E+03  0.00000000000E+00 0.  1.
</event>
<event>
12    1  0.8691829E-002  0.1834454E+03  0.7818608E-02  0.1165476E+00
         21   -1    0    0  503  502  0.00000000000E+00  0.00000000000E+00  0.34941294996E+03  0.34941294996E+03  0.00000000000E+00 0. -1.
         21   -1    0    0  501  503 -0.00000000000E+00 -0.00000000000E+00 -0.12523815100E+03  0.12523815100E+03  0.00000000000E+00 0. -1.
          6    2    1    2  501    0  0.25297274877E+02 -0.53322650341E+02 -0.69989322656E+01  0.17953499637E+03  0.16941243376E+03 0.  0.
         24    2    3    3    0    0  0.16064895366E+02  0.23237541472E+02  0.32737859342E+02  0.92656907016E+02  0.81947976099E+02 0.  0.
         -6    2    1    2    0  502 -0.25297274877E+02  0.53322650341E+02  0.23117373123E+03  0.29511610460E+03  0.17369215305E+03 0.  0.
        -24    2    5    5    0    0  0.79114385662E+01  0.89275921468E+02  0.20915284730E+03  0.24124156811E+03  0.80123652156E+02 0.  0.
          5    1    3    3  501    0  0.92323795110E+01 -0.76560191813E+02 -0.39736791608E+02  0.86878089350E+02  0.47000000000E+01 0. -1.
        -13    1    4    4    0    0  0.45067688822E+02 -0.34646965494E+01  0.74235197871E+01  0.45806215124E+02  0.00000000000E+00 0.  1.
         14    1    4    4    0    0 -0.29002793456E+02  0.26702238022E+02  0.25314339555E+02  0.46850691892E+02  0.00000000000E+00 0. -1.
         -5    1    5    5    0  502 -0.33208713444E+02 -0.35953271127E+02  0.22020883925E+02  0.53874536492E+02  0.47000000000E+01 0.  1.
         11    1    6    6    0    0 -0.25394484964E+02  0.61477233419E+02  0.17095455277E+03  0.18343878873E+03  0.00000000000E+00 0. -1.
        -12    1    6    6    0    0  0.33305923530E+02  0.27798688049E+02  0.38198294529E+02  0.57802779382E+02  0.00000000000E+00 0.  1.
</event>
<event>
12    1  0.8691829E-002  0.1726783E+03  0.7818608E-02  0.1175155E+00
         21   -1    0    0  501  502  0.00000000000E+00  0.00000000000E+00  0.82700204005E+02  0.82700204005E+02  0.00000000000E+00 0. -1.
         21   -1    0    0  502  503 -0.00000000000E+00 -0.00000000000E+00 -0.42020103896E+03  0.42020103896E+03  0.00000000000E+00 0. -1.
         -6    2    1    2    0  503 -0.64297999042E+01  0.27483109610E+02 -0.26383367218E+03  0.31516567371E+03  0.17007213665E+03 0.  0.
        -24    2    3    3    0    0 -0.14846997933E+01  0.47508753227E+02 -0.27577375896E+03  0.29087295691E+03  0.79351275735E+02 0.  0.
          6    2    1    2  501    0  0.64297999042E+01 -0.27483109610E+02 -0.73667162775E+02  0.18773556926E+03  0.17035589058E+03 0.  0.
         24    2    5    5    0    0  0.34758853607E+02 -0.35693994218E+02 -0.10837260318E+03  0.14194789075E+03  0.76956763446E+02 0.  0.
          5    1    5    5  501    0 -0.28329053703E+02  0.82108846072E+01  0.34705440408E+02  0.45787678513E+02  0.47000000000E+01 0. -1.
        -11    1    6    6    0    0 -0.83235778139E+01  0.11778212302E+02 -0.59808563508E+02  0.61522942887E+02  0.00000000000E+00 0.  1.
         12    1    6    6    0    0  0.43082431421E+02 -0.47472206519E+02 -0.48564039675E+02  0.80424947861E+02  0.00000000000E+00 0. -1.
         -5    1    3    3    0  503 -0.49451001108E+01 -0.20025643616E+02  0.11940086777E+02  0.24292716801E+02  0.47000000000E+01 0.  1.
         11    1    4    4    0    0  0.14137863511E+02 -0.68451682233E+01 -0.88615889163E+01  0.18035056717E+02  0.00000000000E+00 0. -1.
        -12    1    4    4    0    0 -0.15622563304E+02  0.54353921450E+02 -0.26691217004E+03  0.27283790019E+03  0.00000000000E+00 0.  1.
</event>
<event>
12    1  0.8691829E-002  0.2407420E+03  0.7818608E-02  0.1119300E+00
         21   -1    0    0  501  502  0.00000000000E+00  0.00000000000E+00  0.17872031419E+03  0.17872031419E+03  0.00000000000E+00 0.  1.
         21   -1    0    0  502  503 -0.00000000000E+00 -0.00000000000E+00 -0.82871627452E+03  0.82871627452E+03  0.00000000000E+00 0. -1.
         -6    2    1    2    0  503 -0.13332404516E+03 -0.10282750154E+03 -0.71799153357E+03  0.75727642308E+03  0.17206668062E+03 0.  0.
        -24    2    3    3    0    0 -0.78815763694E+02  0.72678847316E+01 -0.26139715275E+03  0.28442056193E+03  0.79384115710E+02 0.  0.
          6    2    1    2  501    0  0.13332404516E+03  0.10282750154E+03  0.67995573240E+02  0.25016016563E+03  0.17206950454E+03 0.  0.
         24    2    5    5    0    0 -0.34848663370E+01  0.31843399042E+02  0.97165091889E+01  0.85314903697E+02  0.78473408783E+02 0.  0.
          5    1    5    5  501    0  0.13680891150E+03  0.70984102496E+02  0.58279064051E+02  0.16484526193E+03  0.47000000000E+01 0. -1.
        -11    1    6    6    0    0 -0.30129902935E+01  0.43514379152E+02  0.35997971916E+02  0.56554692870E+02  0.00000000000E+00 0.  1.
         12    1    6    6    0    0 -0.47187604354E+00 -0.11670980110E+02 -0.26281462727E+02  0.28760210827E+02  0.00000000000E+00 0. -1.
         -5    1    3    3    0  503 -0.54508281471E+02 -0.11009538627E+03 -0.45659438082E+03  0.47285586115E+03  0.47000000000E+01 0.  1.
         13    1    4    4    0    0 -0.91529559598E+02 -0.46217742996E+01 -0.23957800768E+03  0.25650856290E+03  0.00000000000E+00 0. -1.
        -14    1    4    4    0    0  0.12713795904E+02  0.11889659031E+02 -0.21819145077E+02  0.27911999034E+02  0.00000000000E+00 0.  1.
</event>
<event>
12    1  0.8691829E-002  0.2187225E+03  0.7818608E-02  0.1135625E+00
         21   -1    0    0  503  502  0.00000000000E+00  0.00000000000E+00  0.91311253861E+03  0.91311253861E+03  0.00000000000E+00 0. -1.
         21   -1    0    0  501  503 -0.00000000000E+00 -0.00000000000E+00 -0.75454177973E+02  0.75454177973E+02  0.00000000000E+00 0. -1.
          6    2    1    2  501    0 -0.12877489177E+03  0.25563934112E+02  0.14250743715E+03  0.26105150766E+03  0.17493722454E+03 0.  0.
         24    2    3    3    0    0 -0.11560901502E+03  0.23060288327E+01  0.27639509076E+02  0.14302184457E+03  0.79501845507E+02 0.  0.
         -6    2    1    2    0  502  0.12877489177E+03 -0.25563934112E+02  0.69515092348E+03  0.72751520892E+03  0.16972650150E+03 0.  0.
        -24    2    5    5    0    0  0.10765088040E+03 -0.78476139227E+02  0.54731702953E+03  0.56901323572E+03  0.80454428926E+02 0.  0.
          5    1    3    3  501    0 -0.13165876753E+02  0.23257905279E+02  0.11486792807E+03  0.11802966309E+03  0.47000000000E+01 0. -1.
        -13    1    4    4    0    0 -0.28397011884E+02 -0.33124975721E+02 -0.37502770252E+01  0.43791767243E+02  0.00000000000E+00 0.  1.
         14    1    4    4    0    0 -0.87212003137E+02  0.35431004554E+02  0.31389786101E+02  0.99230077327E+02  0.00000000000E+00 0. -1.
         -5    1    5    5    0  502  0.21124011372E+02  0.52912205115E+02  0.14783389395E+03  0.15850197320E+03  0.47000000000E+01 0.  1.
         11    1    6    6    0    0  0.10739644829E+01 -0.18992238169E+00  0.15508670400E+03  0.15509053881E+03  0.00000000000E+00 0. -1.
        -12    1    6    6    0    0  0.10657691592E+03 -0.78286216845E+02  0.39223032553E+03  0.41392269691E+03  0.00000000000E+00 0.  1.
</event>
<event>
12    1  0.8691829E-002  0.2024653E+03  0.7818608E-02  0.1148525E+00
         21   -1    0    0  501  502  0.00000000000E+00  0.00000000000E+00  0.20421284836E+03  0.20421284836E+03  0.00000000000E+00 0.  1.
         21   -1    0    0  502  503 -0.00000000000E+00 -0.00000000000E+00 -0.19694554635E+03  0.19694554635E+03  0.00000000000E+00 0.  1.
         -6    2    1    2    0  503  0.93928758450E+02  0.33462874333E+02 -0.27814469251E+01  0.20248439701E+03  0.17620958817E+03 0.  0.
        -24    2    3    3    0    0  0.12458456567E+03  0.41396765429E+02  0.30962994472E+02  0.15597093155E+03  0.78314866214E+02 0.  0.
          6    2    1    2  501    0 -0.93928758450E+02 -0.33462874333E+02  0.10048748935E+02  0.19867399771E+03  0.17154592501E+03 0.  0.
         24    2    5    5    0    0 -0.16148840999E+02  0.39990401077E+02  0.16353322743E+02  0.91403606277E+02  0.78912425078E+02 0.  0.
          5    1    5    5  501    0 -0.77779917452E+02 -0.73453275411E+02 -0.63045738085E+01  0.10727039143E+03  0.47000000000E+01 0. -1.
        -11    1    6    6    0    0  0.88643562432E+01 -0.20218786529E+02 -0.52997317212E+01  0.22703816786E+02  0.00000000000E+00 0.  1.
         12    1    6    6    0    0 -0.25013197242E+02  0.60209187606E+02  0.21653054464E+02  0.68699789491E+02  0.00000000000E+00 0. -1.
         -5    1    3    3    0  503 -0.30655807217E+02 -0.79338910962E+01 -0.33744441397E+02  0.46513465461E+02  0.47000000000E+01 0.  1.
         13    1    4    4    0    0  0.10206165073E+03  0.25231307922E+01  0.40861415368E+02  0.10996636760E+03  0.00000000000E+00 0. -1.
        -14    1    4    4    0    0  0.22522914941E+02  0.38873634637E+02 -0.98984208961E+01  0.46004563943E+02  0.00000000000E+00 0.  1.
</event>
<event>
12    1  0.8691829E-002  0.1894140E+03  0.7818608E-02  0.1159034E+00
         21   -1    0    0  503  502  0.00000000000E+00  0.00000000000E+00  0.46392719525E+03  0.46392719525E+03  0.00000000000E+00 0. -1.
         21   -1    0    0  501  503 -0.00000000000E+00 -0.00000000000E+00 -0.79164079811E+02  0.79164079811E+02  0.00000000000E+00 0. -1.
          6    2    1    2  501    0  0.46291871818E+02  0.66458876359E+02  0.23442844273E+03  0.30126869903E+03  0.17101583147E+03 0.  0.
         24    2    3    3    0    0 -0.40024925845E+02  0.36421972388E+02  0.12568315951E+03  0.15914047600E+03  0.81245798396E+02 0.  0.
         -6    2    1    2    0  502 -0.46291871818E+02 -0.66458876359E+02  0.15033467271E+03  0.24182257603E+03  0.17122477862E+03 0.  0.
        -24    2    5    5    0    0  0.77049595769E+01 -0.63623510901E+01  0.14224334789E+02  0.83470549709E+02  0.81640400876E+02 0.  0.
          5    1    3    3  501    0  0.86316797663E+02  0.30036903971E+02  0.10874528322E+03  0.14212822303E+03  0.47000000000E+01 0. -1.
        -11    1    4    4    0    0 -0.25903493947E+02 -0.12436611584E+01 -0.12724163087E+01  0.25964528399E+02  0.00000000000E+00 0.  1.
         12    1    4    4    0    0 -0.14121431898E+02  0.37665633547E+02  0.12695557581E+03  0.13317594760E+03  0.00000000000E+00 0. -1.
         -5    1    5    5    0  502 -0.53996831395E+02 -0.60096525269E+02  0.13611033792E+03  0.15835202632E+03  0.47000000000E+01 0.  1.
         11    1    6    6    0    0 -0.23995731244E+02  0.80677690094E+01 -0.21765774862E+02  0.33386119422E+02  0.00000000000E+00 0. -1.
        -12    1    6    6    0    0  0.31700690821E+02 -0.14430120100E+02  0.35990109651E+02  0.50084430288E+02  0.00000000000E+00 0.  1.
</event>
<event>
12    1  0.8691829E-002  0.2068228E+03  0.7818608E-02  0.1144129E+00
         21   -1    0    0  503  502  0.00000000000E+00  0.00000000000E+00  0.61793068112E+03  0.61793068112E+03  0.00000000000E+00 0. -1.
         21   -1    0    0  501  503 -0.00000000000E+00 -0.00000000000E+00 -0.79570485223E+02  0.79570485223E+02  0.00000000000E+00 0. -1.
          6    2    1    2  501    0 -0.46554285473E+02 -0.10411884297E+03  0.14314527898E+03  0.25144007981E+03  0.17240506918E+03 0.  0.
         24    2    3    3    0    0 -0.26767524427E+02  0.17108763345E+02  0.56878552560E+02  0.10126789019E+03  0.77529386013E+02 0.  0.
         -6    2    1    2    0  502  0.46554285473E+02  0.10411884297E+03  0.39521491692E+03  0.44606108654E+03  0.17253297486E+03 0.  0.
        -24    2    5    5    0    0  0.61003443638E+02  0.63969845673E+02  0.12478263115E+03  0.17224284145E+03  0.79267459303E+02 0.  0.
          5    1    3    3  501    0 -0.19786761046E+02 -0.12122760632E+03  0.86266726423E+02  0.15017218961E+03  0.47000000000E+01 0. -1.
        -11    1    4    4    0    0  0.11369647229E+02 -0.19867427856E+02  0.38997919116E+02  0.45219699945E+02  0.00000000000E+00 0.  1.
         12    1    4    4    0    0 -0.38137171656E+02  0.36976191201E+02  0.17880633443E+02  0.56048190247E+02  0.00000000000E+00 0. -1.
         -5    1    5    5    0  502 -0.14449158166E+02  0.40148997298E+02  0.27043228577E+03  0.27381824509E+03  0.47000000000E+01 0.  1.
         11    1    6    6    0    0  0.13589931068E+02  0.54361697941E+02  0.10684498626E+03  0.12064713639E+03  0.00000000000E+00 0. -1.
        -12    1    6    6    0    0  0.47413512570E+02  0.96081477325E+01  0.17937644888E+02  0.51595705066E+02  0.00000000000E+00 0.  1.
</event>
<event>
12    1  0.8691829E-002  0.2401966E+03  0.7818608E-02  0.1120663E+00
         21   -1    0    0  503  502  0.00000000000E+00  0.00000000000E+00  0.10366004423E+04  0.10366004423E+04  0.00000000000E+00 0. -1.
         21   -1    0    0  501  503 -0.00000000000E+00 -0.00000000000E+00 -0.55069776089E+02  0.55069776089E+02  0.00000000000E+00 0.  1.
          6    2    1    2  501    0 -0.59815010317E+02  0.15656243853E+03  0.54966936157E+03  0.59750569020E+03  0.16366737658E+03 0.  0.
         24    2    3    3    0    0  0.85171211944E+01  0.76819630411E+02  0.17600047580E+03  0.20933211841E+03  0.82885290290E+02 0.  0.
         -6    2    1    2    0  502  0.59815010317E+02 -0.15656243853E+03  0.43186130465E+03  0.49416452820E+03  0.17206034365E+03 0.  0.
        -24    2    5    5    0    0  0.67169000814E+02 -0.54340501130E+02  0.93208171804E+02  0.14031224257E+03  0.59457525926E+02 0.  0.
          5    1    3    3  501    0 -0.68332131511E+02  0.79742808114E+02  0.37366888576E+03  0.38817357178E+03  0.47000000000E+01 0. -1.
        -13    1    4    4    0    0 -0.32189354739E+01  0.93111028572E+02  0.14781182472E+03  0.17472366958E+03  0.00000000000E+00 0.  1.
         14    1    4    4    0    0  0.11736056668E+02 -0.16291398161E+02  0.28188651088E+02  0.34608448829E+02  0.00000000000E+00 0. -1.
         -5    1    5    5    0  502 -0.73539904966E+01 -0.10222193740E+03  0.33865313284E+03  0.35385228563E+03  0.47000000000E+01 0.  1.
         11    1    6    6    0    0  0.57101846034E+02 -0.26732270324E+02  0.91180032387E+02  0.11085591280E+03  0.00000000000E+00 0. -1.
        -12    1    6    6    0    0  0.10067154780E+02 -0.27608230806E+02  0.20281394170E+01  0.29456329763E+02  0.00000000000E+00 0.  1.
</event>
<event>
12    1  0.8691829E-002  0.1846019E+03  0.7818608E-02  0.1164057E+00
         21   -1    0    0  501  502  0.00000000000E+00  0.00000000000E+00  0.13445237385E+03  0.13445237385E+03  0.00000000000E+00 0.  1.
         21   -1    0    0  502  503 -0.00000000000E+00 -0.00000000000E+00 -0.25102053502E+03  0.25102053502E+03  0.00000000000E+00 0. -1.
         -6    2    1    2    0  503 -0.67535631393E+02 -0.18649580095E+02 -0.71424094277E+02  0.19543115924E+03  0.16787813560E+03 0.  0.
        -24    2    3    3    0    0 -0.86187364787E+02 -0.62613869092E+02 -0.43547605209E+02  0.13993400158E+03  0.79601334333E+02 0.  0.
          6    2    1    2  501    0  0.67535631393E+02  0.18649580095E+02 -0.45144066895E+02  0.19004174962E+03  0.17078937753E+03 0.  0.
         24    2    5    5    0    0  0.10539607672E+03  0.20037893392E+02 -0.34877269039E+01  0.13353793209E+03  0.79437805276E+02 0.  0.
          5    1    5    5  501    0 -0.37860445332E+02 -0.13883132967E+01 -0.41656339991E+02  0.56503817534E+02  0.47000000000E+01 0. -1.
        -13    1    6    6    0    0  0.28436693768E+02 -0.10393471460E+02  0.31497403928E+02  0.43689315120E+02  0.00000000000E+00 0.  1.
         14    1    6    6    0    0  0.76959382956E+02  0.30431364852E+02 -0.34985130832E+02  0.89848616968E+02  0.00000000000E+00 0. -1.
         -5    1    3    3    0  503  0.18651733394E+02  0.43964288997E+02 -0.27876489068E+02  0.55497157660E+02  0.47000000000E+01 0.  1.
         11    1    4    4    0    0 -0.52106720362E+02 -0.65177250389E+02 -0.59231083990E+02  0.10233037470E+03  0.00000000000E+00 0. -1.
        -12    1    4    4    0    0 -0.34080644425E+02  0.25633812973E+01  0.15683478781E+02  0.37603626884E+02  0.00000000000E+00 0.  1.
</event>
<event>
12    1  0.8691829E-002  0.2367219E+03  0.7818608E-02  0.1122644E+00
         21   -1    0    0  501  502  0.00000000000E+00  0.00000000000E+00  0.49900199969E+03  0.49900199969E+03  0.00000000000E+00 0. -1.
         21   -1    0    0  502  503 -0.00000000000E+00 -0.00000000000E+00 -0.12481174075E+03  0.12481174075E+03  0.00000000000E+00 0.  1.
         -6    2    1    2    0  503 -0.23491088177E+02 -0.15538156212E+03  0.80173736185E+02  0.24634459450E+03  0.17193769277E+03 0.  0.
        -24    2    3    3    0    0 -0.75979920104E+02 -0.93200090720E+02  0.78152962457E+02  0.16481063600E+03  0.81212406864E+02 0.  0.
          6    2    1    2  501    0  0.23491088177E+02  0.15538156212E+03  0.29401652275E+03  0.37746914594E+03  0.17703666123E+03 0.  0.
         24    2    5    5    0    0 -0.51914353012E+02  0.63049233740E+02  0.17028826190E+03  0.20559124755E+03  0.81236463500E+02 0.  0.
          5    1    5    5  501    0  0.75405441189E+02  0.92332328379E+02  0.12372826085E+03  0.17187789840E+03  0.47000000000E+01 0. -1.
        -11    1    6    6    0    0  0.12390177532E+01 -0.15948930224E+02  0.48066115438E+02  0.50658217434E+02  0.00000000000E+00 0.  1.
         12    1    6    6    0    0 -0.53153370766E+02  0.78998163964E+02  0.12222214647E+03  0.15493303011E+03  0.00000000000E+00 0. -1.
         -5    1    3    3    0  503  0.52488831927E+02 -0.62181471398E+02  0.20207737276E+01  0.81533958501E+02  0.47000000000E+01 0.  1.
         13    1    4    4    0    0  0.41813360659E+01 -0.40836374484E+02  0.50638786971E+02  0.65187267147E+02  0.00000000000E+00 0. -1.
        -14    1    4    4    0    0 -0.80161256170E+02 -0.52363716236E+02  0.27514175486E+02  0.99623368852E+02  0.00000000000E+00 0.  1.
</event>
<event>
12    1  0.8691829E-002  0.1909001E+03  0.7818608E-02  0.1157729E+00
         21   -1    0    0  503  502  0.00000000000E+00  0.00000000000E+00  0.79017376705E+02  0.79017376705E+02  0.00000000000E+00 0.  1.
         21   -1    0    0  501  503 -0.00000000000E+00 -0.00000000000E+00 -0.50480482332E+03  0.50480482332E+03  0.00000000000E+00 0.  1.
          6    2    1    2  501    0  0.42202031271E+01 -0.81650692549E+02 -0.29932288199E+03  0.35483285079E+03  0.17212646108E+03 0.  0.
         24    2    3    3    0    0 -0.57997329575E+02 -0.51154379054E+02 -0.23481844839E+03  0.26004910499E+03  0.80655889860E+02 0.  0.
         -6    2    1    2    0  502 -0.42202031271E+01  0.81650692549E+02 -0.12646456462E+03  0.22898934924E+03  0.17250562383E+03 0.  0.
        -24    2    5    5    0    0 -0.15318823580E+02 -0.86154653732E+01 -0.11980998024E+02  0.82702864343E+02  0.79920753609E+02 0.  0.
          5    1    3    3  501    0  0.62217532702E+02 -0.30496313495E+02 -0.64504433601E+02  0.94783745792E+02  0.47000000000E+01 0. -1.
        -13    1    4    4    0    0 -0.31924673226E+02 -0.71673021313E+02 -0.16998134229E+03  0.18721608764E+03  0.00000000000E+00 0.  1.
         14    1    4    4    0    0 -0.26072656349E+02  0.20518642259E+02 -0.64837106101E+02  0.72833017353E+02  0.00000000000E+00 0. -1.
         -5    1    5    5    0  502  0.11098620453E+02  0.90266157922E+02 -0.11448356660E+03  0.14628648490E+03  0.47000000000E+01 0.  1.
         13    1    6    6    0    0 -0.21233792407E+02  0.11419753611E+02 -0.40630881660E+02  0.47245669187E+02  0.00000000000E+00 0. -1.
        -14    1    6    6    0    0  0.59149688267E+01 -0.20035218984E+02  0.28649883636E+02  0.35457195156E+02  0.00000000000E+00 0.  1.
</event>
<event>
12    1  0.8691829E-002  0.1996774E+03  0.7818608E-02  0.1150022E+00
         21   -1    0    0  503  502  0.00000000000E+00  0.00000000000E+00  0.77434847762E+02  0.77434847762E+02  0.00000000000E+00 0.  1.
         21   -1    0    0  501  503 -0.00000000000E+00 -0.00000000000E+00 -0.55281589033E+03  0.55281589033E+03  0.00000000000E+00 0. -1.
          6    2    1    2  501    0  0.51344341424E+02 -0.86879449211E+02 -0.32033783781E+03  0.37744757007E+03  0.17223837472E+03 0.  0.
         24    2    3    3    0    0 -0.28849110510E+02 -0.74380201536E+02 -0.23091602816E+03  0.25659405970E+03  0.78444973437E+02 0.  0.
         -6    2    1    2    0  502 -0.51344341424E+02  0.86879449211E+02 -0.15504320475E+03  0.25280316802E+03  0.17229848035E+03 0.  0.
        -24    2    5    5    0    0 -0.54546496457E+02  0.81030570129E+02 -0.18380578565E+03  0.22290602362E+03  0.79757475874E+02 0.  0.
          5    1    3    3  501    0  0.80193451934E+02 -0.12499247675E+02 -0.89421809659E+02  0.12085351037E+03  0.47000000000E+01 0. -1.
        -13    1    4    4    0    0 -0.55867527995E+02 -0.53749558496E+02 -0.15068882682E+03  0.16946184895E+03  0.00000000000E+00 0.  1.
         14    1    4    4    0    0  0.27018417484E+02 -0.20630643040E+02 -0.80227201338E+02  0.87132210749E+02  0.00000000000E+00 0. -1.
         -5    1    5    5    0  502  0.32021550332E+01  0.58488790827E+01  0.28762580897E+02  0.29897144399E+02  0.47000000000E+01 0.  1.
         13    1    6    6    0    0  0.17878403906E+02  0.37254477515E+02 -0.65587699794E+02  0.77519544538E+02  0.00000000000E+00 0. -1.
        -14    1    6    6    0    0 -0.72424900363E+02  0.43776092614E+02 -0.11821808585E+03  0.14538647908E+03  0.00000000000E+00 0.  1.
</event>
<event>
12    1  0.8691829E-002  0.2528842E+03  0.7818608E-02  0.1111982E+00
         21   -1    0    0  503  502  0.00000000000E+00  0.00000000000E+00  0.51271318493E+02  0.51271318493E+02  0.00000000000E+00 0.  1.
         21   -1    0    0  501  503 -0.00000000000E+00 -0.00000000000E+00 -0.15738354423E+04  0.15738354423E+04  0.00000000000E+00 0.  1.
          6    2    1    2  501    0 -0.41682466628E+02 -0.17741735947E+03 -0.11362694801E+04  0.11633991010E+04  0.17080629191E+03 0.  0.
         24    2    3    3    0    0 -0.23941914455E+02 -0.12763576613E+03 -0.10579534959E+04  0.10688030250E+04  0.78804838490E+02 0.  0.
         -6    2    1    2    0  502  0.41682466628E+02  0.17741735947E+03 -0.38629464363E+03  0.46170765971E+03  0.17531703816E+03 0.  0.
        -24    2    5    5    0    0  0.39014869649E+02  0.15389027129E+02 -0.13623493437E+03  0.16369382656E+03  0.80478129328E+02 0.  0.
          5    1    3    3  501    0 -0.17740552173E+02 -0.49781593340E+02 -0.78315984215E+02  0.94596076083E+02  0.47000000000E+01 0. -1.
        -13    1    4    4    0    0 -0.15820333698E+02 -0.45482779376E+02 -0.69109910850E+03  0.69277481474E+03  0.00000000000E+00 0.  1.
         14    1    4    4    0    0 -0.81215807573E+01 -0.82152986751E+02 -0.36685438743E+03  0.37602821022E+03  0.00000000000E+00 0. -1.
         -5    1    5    5    0  502  0.26675969787E+01  0.16202833234E+03 -0.25005970926E+03  0.29801383315E+03  0.47000000000E+01 0.  1.
         11    1    6    6    0    0 -0.21040402429E+02  0.21838838635E+02 -0.43746375137E+02  0.53229491308E+02  0.00000000000E+00 0. -1.
        -12    1    6    6    0    0  0.60055272078E+02 -0.64498115060E+01 -0.92488559235E+02  0.11046433525E+03  0.00000000000E+00 0.  1.
</event>
<event>
12    1  0.8691829E-002  0.2536265E+03  0.7818608E-02  0.1111128E+00
         21   -1    0    0  503  502  0.00000000000E+00  0.00000000000E+00  0.20423036417E+04  0.20423036417E+04  0.00000000000E+00 0.  1.
         21   -1    0    0  501  503 -0.00000000000E+00 -0.00000000000E+00 -0.75371680497E+02  0.75371680497E+02  0.00000000000E+00 0.  1.
          6    2    1    2  501    0 -0.25648380084E+01 -0.18544444402E+03  0.17443736094E+03  0.30732637468E+03  0.17211881789E+03 0.  0.
         24    2    3    3    0    0 -0.56705780205E+01 -0.40476727922E+02  0.13550767349E+03  0.15711687133E+03  0.68211881105E+02 0.  0.
         -6    2    1    2    0  502  0.25648380084E+01  0.18544444402E+03  0.17924946003E+04  0.18103489476E+04  0.17300346704E+03 0.  0.
        -24    2    5    5    0    0  0.64539082971E+02  0.14676483842E+03  0.12997257220E+04  0.13121720950E+04  0.82482990004E+02 0.  0.
          5    1    3    3  501    0  0.31057400121E+01 -0.14496771609E+03  0.38929687451E+02  0.15020950335E+03  0.47000000000E+01 0. -1.
        -13    1    4    4    0    0  0.25585296430E+02 -0.36618432477E+02  0.56241215046E+02  0.71823333676E+02  0.00000000000E+00 0.  1.
         14    1    4    4    0    0 -0.31255874451E+02 -0.38582954446E+01  0.79266458446E+02  0.85293537656E+02  0.00000000000E+00 0. -1.
         -5    1    5    5    0  502 -0.61974244962E+02  0.38679605597E+02  0.49276887833E+03  0.49817685251E+03  0.47000000000E+01 0.  1.
         13    1    6    6    0    0  0.49261522802E+02  0.94726925413E+02  0.53645628498E+03  0.54697827537E+03  0.00000000000E+00 0. -1.
        -14    1    6    6    0    0  0.15277560169E+02  0.52037913007E+02  0.76326943699E+03  0.76519381968E+03  0.00000000000E+00 0.  1.
</event>
<event>
12    1  0.8691829E-002  0.1895139E+03  0.7818608E-02  0.1158923E+00
         21   -1    0    0  503  502  0.00000000000E+00  0.00000000000E+00  0.55932852717E+02  0.55932852717E+02  0.00000000000E+00 0. -1.
         21   -1    0    0  501  503 -0.00000000000E+00 -0.00000000000E+00 -0.68893815153E+03  0.68893815153E+03  0.00000000000E+00 0. -1.
          6    2    1    2  501    0  0.13488318996E+00  0.78148608932E+02 -0.41401151009E+03  0.45532523230E+03  0.17265084248E+03 0.  0.
         24    2    3    3    0    0 -0.15301626561E+02  0.11823278813E+03 -0.29845556820E+03  0.33195468087E+03  0.83096642493E+02 0.  0.
         -6    2    1    2    0  502 -0.13488318996E+00 -0.78148608932E+02 -0.21899378872E+03  0.28954577194E+03  0.17254347650E+03 0.  0.
        -24    2    5    5    0    0  0.35599656146E+02 -0.63010558181E+02 -0.63334523470E+02  0.12905273552E+03  0.86056264866E+02 0.  0.
          5    1    3    3  501    0  0.15436509751E+02 -0.40084179197E+02 -0.11555594189E+03  0.12337055144E+03  0.47000000000E+01 0. -1.
        -11    1    4    4    0    0 -0.14400056283E+02 -0.96629845521E+01 -0.39341797577E+02  0.42994324370E+02  0.00000000000E+00 0.  1.
         12    1    4    4    0    0 -0.90157027783E+00  0.12789577268E+03 -0.25911377062E+03  0.28896035649E+03  0.00000000000E+00 0. -1.
         -5    1    5    5    0  502 -0.35734539336E+02 -0.15138050751E+02 -0.15565926525E+03  0.16049303642E+03  0.47000000000E+01 0.  1.
         13    1    6    6    0    0  0.87984926891E+01 -0.80123803185E+02 -0.43889570297E+02  0.91779800018E+02  0.00000000000E+00 0. -1.
        -14    1    6    6    0    0  0.26801163457E+02  0.17113245004E+02 -0.19444953173E+02  0.37272935505E+02  0.00000000000E+00 0.  1.
</event>
<event>
12    1  0.8691829E-002  0.1956012E+03  0.7818608E-02  0.1154508E+00
         21   -1    0    0  503  502  0.00000000000E+00  0.00000000000E+00  0.13444200874E+04  0.13444200874E+04  0.00000000000E+00 0.  1.
         21   -1    0    0  501  503 -0.00000000000E+00 -0.00000000000E+00 -0.27863697257E+02  0.27863697257E+02  0.00000000000E+00 0.  1.
          6    2    1    2  501    0 -0.37212337014E+02  0.85520749736E+02  0.63275362833E+03  0.66229673883E+03  0.17193388100E+03 0.  0.
         24    2    3    3    0    0 -0.85970717579E+02  0.39976841288E+02  0.47560799577E+03  0.49150895500E+03  0.79931064577E+02 0.  0.
         -6    2    1    2    0  502  0.37212337014E+02 -0.85520749736E+02  0.68380276177E+03  0.70998704579E+03  0.16672381809E+03 0.  0.
        -24    2    5    5    0    0 -0.11919796121E+02 -0.44395528899E+02  0.58552350980E+03  0.59257260177E+03  0.78685852084E+02 0.  0.
          5    1    3    3  501    0  0.48758380565E+02  0.45543908449E+02  0.15714563256E+03  0.17078778383E+03  0.47000000000E+01 0. -1.
        -13    1    4    4    0    0 -0.58203034594E+02 -0.37413775569E+01  0.13605527565E+03  0.14802914975E+03  0.00000000000E+00 0.  1.
         14    1    4    4    0    0 -0.27767682985E+02  0.43718218845E+02  0.33955272012E+03  0.34347980526E+03  0.00000000000E+00 0. -1.
         -5    1    5    5    0  502  0.49132133135E+02 -0.41125220837E+02  0.98279251974E+02  0.11741444402E+03  0.47000000000E+01 0.  1.
         13    1    6    6    0    0  0.30938857106E+01 -0.65176210092E+02  0.40022465078E+03  0.40550867017E+03  0.00000000000E+00 0. -1.
        -14    1    6    6    0    0 -0.15013681831E+02  0.20780681193E+02  0.18529885901E+03  0.18706393160E+03  0.00000000000E+00 0.  1.
</event>
<event>
12    1  0.8691829E-002  0.2220959E+03  0.7818608E-02  0.1132481E+00
         21   -1    0    0  501  502  0.00000000000E+00  0.00000000000E+00  0.22009527988E+03  0.22009527988E+03  0.00000000000E+00 0. -1.
         21   -1    0    0  502  503 -0.00000000000E+00 -0.00000000000E+00 -0.24492297408E+03  0.24492297408E+03  0.00000000000E+00 0. -1.
         -6    2    1    2    0  503  0.98832127271E+02  0.98301040769E+02 -0.81538775696E+02  0.23659070330E+03  0.17290374475E+03 0.  0.
        -24    2    3    3    0    0  0.11481714220E+03  0.56775556672E+02 -0.90920507466E+01  0.15144080907E+03  0.80282085705E+02 0.  0.
          6    2    1    2  501    0 -0.98832127271E+02 -0.98301040769E+02  0.56711081501E+02  0.22842755067E+03  0.17184910573E+03 0.  0.
         24    2    5    5    0    0 -0.27607908758E+02 -0.92879807460E+02 -0.16429220566E+02  0.12608560980E+03  0.78986115556E+02 0.  0.
          5    1    5    5  501    0 -0.71224218513E+02 -0.54212333087E+01  0.73140302067E+02  0.10234194086E+03  0.47000000000E+01 0. -1.
        -13    1    6    6    0    0  0.23161719246E+02 -0.27036016217E+02 -0.23474486959E+02  0.42643439698E+02  0.00000000000E+00 0.  1.
         14    1    6    6    0    0 -0.50769628003E+02 -0.65843791243E+02  0.70452663927E+01  0.83442170103E+02  0.00000000000E+00 0. -1.
         -5    1    3    3    0  503 -0.15985014930E+02  0.41525484097E+02 -0.72446724950E+02  0.85149894232E+02  0.47000000000E+01 0.  1.
         11    1    4    4    0    0  0.59832013058E+02  0.15757997728E+02 -0.42576228077E+02  0.75106054857E+02  0.00000000000E+00 0. -1.
        -12    1    4    4    0    0  0.54985129143E+02  0.41017558944E+02  0.33484177330E+02  0.76334754209E+02  0.00000000000E+00 0.  1.
</event>
<event>
12    1  0.8691829E-002  0.1861771E+03  0.7818608E-02  0.1162960E+00
         21   -1    0    0  501  502  0.00000000000E+00  0.00000000000E+00  0.63438261479E+02  0.63438261479E+02  0.00000000000E+00 0.  1.
         21   -1    0    0  502  503 -0.00000000000E+00 -0.00000000000E+00 -0.72806445516E+03  0.72806445516E+03  0.00000000000E+00 0.  1.
         -6    2    1    2    0  503 -0.69474358162E+02 -0.60173917957E+01 -0.53952608522E+03  0.57074540650E+03  0.17262394666E+03 0.  0.
        -24    2    3    3    0    0  0.57386146810E+01  0.51707456958E+02 -0.30970536539E+03  0.32209142461E+03  0.71546346171E+02 0.  0.
          6    2    1    2  501    0  0.69474358162E+02  0.60173917957E+01 -0.12510010846E+03  0.22075731014E+03  0.16799064676E+03 0.  0.
         24    2    5    5    0    0  0.68131273040E+02 -0.63180719236E+01 -0.19300556241E+02  0.11412897060E+03  0.89281140566E+02 0.  0.
          5    1    5    5  501    0  0.13430851221E+01  0.12335463719E+02 -0.10579955222E+03  0.10662833954E+03  0.47000000000E+01 0. -1.
        -11    1    6    6    0    0  0.87123694539E+02  0.20854234230E+01 -0.21186431440E+01  0.87174398706E+02  0.00000000000E+00 0.  1.
         12    1    6    6    0    0 -0.18992421499E+02 -0.84034953466E+01 -0.17181913097E+02  0.26954571896E+02  0.00000000000E+00 0. -1.
         -5    1    3    3    0  503 -0.75212972843E+02 -0.57724848754E+02 -0.22982071983E+03  0.24865398189E+03  0.47000000000E+01 0.  1.
         11    1    4    4    0    0 -0.50347330635E+01  0.46187122953E+02 -0.83444646480E+02  0.95507109107E+02  0.00000000000E+00 0. -1.
        -12    1    4    4    0    0  0.10773347745E+02  0.55203340047E+01 -0.22626071891E+03  0.22658431550E+03  0.00000000000E+00 0.  1.
</event>
<event>
12    1  0.8691829E-002  0.1995917E+03  0.7818608E-02  0.1150178E+00
         21   -1    0    0  501  502  0.00000000000E+00  0.00000000000E+00  0.90221197462E+03  0.90221197462E+03  0.00000000000E+00 0. -1.
         21   -1    0    0  502  503 -0.00000000000E+00 -0.00000000000E+00 -0.62096975453E+02  0.62096975453E+02  0.00000000000E+00 0. -1.
         -6    2    1    2    0  503  0.10483546229E+02  0.97819122445E+02  0.15984444472E+03  0.25536263085E+03  0.17315120926E+03 0.  0.
        -24    2    3    3    0    0 -0.72155371559E+01  0.33653329896E+01  0.15352321673E+02  0.81768738333E+02  0.79918979881E+02 0.  0.
          6    2    1    2  501    0 -0.10483546229E+02 -0.97819122445E+02  0.68027055444E+03  0.70894631922E+03  0.17366165622E+03 0.  0.
         24    2    5    5    0    0  0.38551797085E+02 -0.44682461866E+02  0.19883367981E+03  0.22208748563E+03  0.79405639538E+02 0.  0.
          5    1    5    5  501    0 -0.49035343314E+02 -0.53136660579E+02  0.48143687463E+03  0.48685883359E+03  0.47000000000E+01 0. -1.
        -11    1    6    6    0    0  0.19899447322E+02  0.95958872036E+01  0.91521492037E+01  0.23912985802E+02  0.00000000000E+00 0.  1.
         12    1    6    6    0    0  0.18652349763E+02 -0.54278349070E+02  0.18968153060E+03  0.19817449983E+03  0.00000000000E+00 0. -1.
         -5    1    3    3    0  503  0.17699083385E+02  0.94453789455E+02  0.14449212305E+03  0.17359389252E+03  0.47000000000E+01 0.  1.
         13    1    4    4    0    0 -0.31769880925E+02  0.24732350730E+02 -0.88308144351E+01  0.41218900885E+02  0.00000000000E+00 0. -1.
        -14    1    4    4    0    0  0.24554343769E+02 -0.21367017740E+02  0.24183136108E+02  0.40549837448E+02  0.00000000000E+00 0.  1.
</event>
<event>
12    1  0.8691829E-002  0.1859394E+03  0.7818608E-02  0.1164032E+00
         21   -1    0    0  501  502  0.00000000000E+00  0.00000000000E+00  0.37236875517E+03  0.37236875517E+03  0.00000000000E+00 0.  1.
         21   -1    0    0  502  503 -0.00000000000E+00 -0.00000000000E+00 -0.17012193117E+03  0.17012193117E+03  0.00000000000E+00 0.  1.
         -6    2    1    2    0  503 -0.27451705159E+02 -0.35004733808E+02 -0.87316947797E+02  0.19836768855E+03  0.17247191941E+03 0.  0.
        -24    2    3    3    0    0 -0.45074470052E+02 -0.84565019301E+02 -0.58060220999E+02  0.13799526270E+03  0.80552795884E+02 0.  0.
          6    2    1    2  501    0  0.27451705159E+02  0.35004733808E+02  0.28956377180E+03  0.34412299779E+03  0.18053955845E+03 0.  0.
         24    2    5    5    0    0  0.82911109281E+02  0.30160406238E+02  0.23844427222E+03  0.26839647501E+03  0.86006364275E+02 0.  0.
          5    1    5    5  501    0 -0.55459404122E+02  0.48443275695E+01  0.51119499575E+02  0.75726522778E+02  0.47000000000E+01 0. -1.
        -13    1    6    6    0    0  0.20797354638E+02  0.52667788123E+02  0.12240578073E+03  0.13486882895E+03  0.00000000000E+00 0.  1.
         14    1    6    6    0    0  0.62113754642E+02 -0.22507381885E+02  0.11603849149E+03  0.13352764606E+03  0.00000000000E+00 0. -1.
         -5    1    3    3    0  503  0.17622764893E+02  0.49560285493E+02 -0.29256726797E+02  0.60372425854E+02  0.47000000000E+01 0.  1.
         13    1    4    4    0    0 -0.51372343647E+01 -0.55031462113E+02  0.74637149599E+01  0.55772394966E+02  0.00000000000E+00 0. -1.
        -14    1    4    4    0    0 -0.39937235687E+02 -0.29533557187E+02 -0.65523935959E+02  0.82222867732E+02  0.00000000000E+00 0.  1.
</event>
<event>
12    1  0.8691829E-002  0.2302977E+03  0.7818608E-02  0.1126831E+00
         21   -1    0    0  503  502  0.00000000000E+00  0.00000000000E+00  0.95417191224E+02  0.95417191224E+02  0.00000000000E+00 0.  1.
         21   -1    0    0  501  503 -0.00000000000E+00 -0.00000000000E+00 -0.10748532595E+04  0.10748532595E+04  0.00000000000E+00 0. -1.
          6    2    1    2  501    0  0.12968670635E+03 -0.73078796512E+02 -0.89969592498E+03  0.92870328867E+03  0.17572105353E+03 0.  0.
         24    2    3    3    0    0  0.82802158761E+01  0.27820853958E+02 -0.35522860644E+03  0.36179321965E+03  0.62164371332E+02 0.  0.
         -6    2    1    2    0  502 -0.12968670635E+03  0.73078796512E+02 -0.79740143293E+02  0.24156716205E+03  0.17273404710E+03 0.  0.
        -24    2    5    5    0    0  0.36980265880E+01  0.25261690681E+02 -0.46781802861E+02  0.96012001397E+02  0.79861999202E+02 0.  0.
          5    1    3    3  501    0  0.12140649047E+03 -0.10089965047E+03 -0.54446731854E+03  0.56691006902E+03  0.47000000000E+01 0. -1.
        -11    1    4    4    0    0 -0.17317843745E+02 -0.97195910318E+01 -0.16610827486E+03  0.16729117472E+03  0.00000000000E+00 0.  1.
         12    1    4    4    0    0  0.25598059621E+02  0.37540444989E+02 -0.18912033158E+03  0.19450204493E+03  0.00000000000E+00 0. -1.
         -5    1    5    5    0  502 -0.13338473293E+03  0.47817105830E+02 -0.32958340432E+02  0.14555516066E+03  0.47000000000E+01 0.  1.
         11    1    6    6    0    0  0.15217142853E+02  0.43469292119E+02 -0.56061035438E+02  0.72553294125E+02  0.00000000000E+00 0. -1.
        -12    1    6    6    0    0 -0.11519116265E+02 -0.18207601438E+02  0.92792325769E+01  0.23458707272E+02  0.00000000000E+00 0.  1.
</event>
<event>
12    1  0.8691829E-002  0.2145685E+03  0.7818608E-02  0.1138275E+00
         21   -1    0    0  503  502  0.00000000000E+00  0.00000000000E+00  0.11405077121E+03  0.11405077121E+03  0.00000000000E+00 0. -1.
         21   -1    0    0  501  503 -0.00000000000E+00 -0.00000000000E+00 -0.48910108152E+03  0.48910108152E+03  0.00000000000E+00 0.  1.
          6    2    1    2  501    0 -0.12519711464E+03  0.25114091920E+02 -0.31604353920E+03  0.38199887344E+03  0.17243719294E+03 0.  0.
         24    2    3    3    0    0 -0.32135077909E+02  0.69934015398E+02 -0.20820537220E+03  0.23259830957E+03  0.69491487681E+02 0.  0.
         -6    2    1    2    0  502  0.12519711464E+03 -0.25114091920E+02 -0.59006771109E+02  0.22115297929E+03  0.17065112389E+03 0.  0.
        -24    2    5    5    0    0  0.34787456232E+02 -0.24512786889E+02  0.28299224894E+02  0.95380586298E+02  0.80533013607E+02 0.  0.
          5    1    3    3  501    0 -0.93062036733E+02 -0.44819923478E+02 -0.10783816701E+03  0.14940056387E+03  0.47000000000E+01 0. -1.
        -13    1    4    4    0    0 -0.19504596355E+01  0.26462163195E+02 -0.15606569385E+03  0.15830524682E+03  0.00000000000E+00 0.  1.
         14    1    4    4    0    0 -0.30184618274E+02  0.43471852202E+02 -0.52139678344E+02  0.74293062745E+02  0.00000000000E+00 0. -1.
         -5    1    5    5    0  502  0.90409658410E+02 -0.60130503059E+00 -0.87305996003E+02  0.12577239299E+03  0.47000000000E+01 0.  1.
         13    1    6    6    0    0 -0.25897944048E+02 -0.14409791589E+01  0.11132662762E+02  0.28226159976E+02  0.00000000000E+00 0. -1.
        -14    1    6    6    0    0  0.60685400280E+02 -0.23071807730E+02  0.17166562132E+02  0.67154426321E+02  0.00000000000E+00 0.  1.
</event>
<event>
12    1  0.8691829E-002  0.2297622E+03  0.7818608E-02  0.1128214E+00
         21   -1    0    0  501  502  0.00000000000E+00  0.00000000000E+00  0.69203506249E+03  0.69203506249E+03  0.00000000000E+00 0. -1.
         21   -1    0    0  502  503 -0.00000000000E+00 -0.00000000000E+00 -0.11969338529E+03  0.11969338529E+03  0.00000000000E+00 0. -1.
         -6    2    1    2    0  503  0.91176353124E+01 -0.14015147461E+03  0.31554443450E+02  0.22415590231E+03  0.17182729274E+03 0.  0.
        -24    2    3    3    0    0  0.53046673361E+02 -0.35487652221E+02  0.41174026279E+02  0.11014317286E+03  0.79767757107E+02 0.  0.
          6    2    1    2  501    0 -0.91176353124E+01  0.14015147461E+03  0.54078723375E+03  0.58757254548E+03  0.18183810630E+03 0.  0.
         24    2    5    5    0    0 -0.64186486002E+00  0.19085850247E+00  0.30189891704E+03  0.31053368429E+03  0.72717016944E+02 0.  0.
          5    1    5    5  501    0 -0.84757704524E+01  0.13996061611E+03  0.23888831671E+03  0.27703886118E+03  0.47000000000E+01 0. -1.
        -13    1    6    6    0    0 -0.80249209277E+01 -0.94916200064E+01  0.50195164132E+01  0.13404691390E+02  0.00000000000E+00 0.  1.
         14    1    6    6    0    0  0.73830560676E+01  0.96824785089E+01  0.29687940063E+03  0.29712899290E+03  0.00000000000E+00 0. -1.
         -5    1    3    3    0  503 -0.43929038048E+02 -0.10466382239E+03 -0.96195828293E+01  0.11401272945E+03  0.47000000000E+01 0.  1.
         13    1    4    4    0    0 -0.64656079356E+01 -0.12271532586E+02 -0.18232420537E+02  0.22908857602E+02  0.00000000000E+00 0. -1.
        -14    1    4    4    0    0  0.59512281296E+02 -0.23216119635E+02  0.59406446817E+02  0.87234315263E+02  0.00000000000E+00 0.  1.
</event>
<event>
12    1  0.8691829E-002  0.1757069E+03  0.7818608E-02  0.1172196E+00
         21   -1    0    0  501  502  0.00000000000E+00  0.00000000000E+00  0.92065408816E+02  0.92065408816E+02  0.00000000000E+00 0.  1.
         21   -1    0    0  502  503 -0.00000000000E+00 -0.00000000000E+00 -0.55752494046E+03  0.55752494046E+03  0.00000000000E+00 0.  1.
         -6    2    1    2    0  503 -0.17696381397E+01  0.35347385113E+02 -0.43864663771E+03  0.47252914621E+03  0.17210564195E+03 0.  0.
        -24    2    3    3    0    0  0.33896856129E+02  0.47581692090E+02 -0.15356557645E+03  0.18492685386E+03  0.84867783808E+02 0.  0.
          6    2    1    2  501    0  0.17696381397E+01 -0.35347385113E+02 -0.26812893935E+02  0.17706120307E+03  0.17140352708E+03 0.  0.
         24    2    5    5    0    0  0.19224442388E+02  0.35805397017E+02  0.19308988213E+02  0.90362260690E+02  0.78363865975E+02 0.  0.
          5    1    5    5  501    0 -0.17454804248E+02 -0.71152782130E+02 -0.46121882148E+02  0.86698942376E+02  0.47000000000E+01 0. -1.
        -13    1    6    6    0    0  0.14836562721E+02 -0.22507858122E+02  0.16935268414E+02  0.31835995145E+02  0.00000000000E+00 0.  1.
         14    1    6    6    0    0  0.43878796662E+01  0.58313255139E+02  0.23737197984E+01  0.58526265545E+02  0.00000000000E+00 0. -1.
         -5    1    3    3    0  503 -0.35666494269E+02 -0.12234306977E+02 -0.28508106125E+03  0.28760229235E+03  0.47000000000E+01 0.  1.
         11    1    4    4    0    0  0.39121693315E+01  0.46925991056E+02 -0.14681905212E+03  0.15418556278E+03  0.00000000000E+00 0. -1.
        -12    1    4    4    0    0  0.29984686798E+02  0.65570103326E+00 -0.67465243311E+01  0.30741291072E+02  0.00000000000E+00 0.  1.
</event>
<event>
12    1  0.8691829E-002  0.2528275E+03  0.7818608E-02  0.1111649E+00
         21   -1    0    0  501  502  0.00000000000E+00  0.00000000000E+00  0.12546984039E+03  0.12546984039E+03  0.00000000000E+00 0. -1.
         21   -1    0    0  502  503 -0.00000000000E+00 -0.00000000000E+00 -0.75528363394E+03  0.75528363394E+03  0.00000000000E+00 0.  1.
         -6    2    1    2    0  503  0.10346447711E+03  0.15446413241E+03 -0.56723507156E+03  0.62102926843E+03  0.17134077046E+03 0.  0.
        -24    2    3    3    0    0  0.21499481886E+02  0.97574869794E+01 -0.22794437009E+03  0.24314232268E+03  0.81253411904E+02 0.  0.
          6    2    1    2  501    0 -0.10346447711E+03 -0.15446413241E+03 -0.62578721996E+02  0.25972420590E+03  0.17022485265E+03 0.  0.
         24    2    5    5    0    0 -0.12465706177E+03 -0.85998647752E+02 -0.74570579465E+02  0.18690564454E+03  0.80235890799E+02 0.  0.
          5    1    5    5  501    0  0.21192584665E+02 -0.68465484654E+02  0.11991857468E+02  0.72818561365E+02  0.47000000000E+01 0. -1.
        -11    1    6    6    0    0 -0.32570430755E+02 -0.63091034318E+02 -0.55489197035E+02  0.90113054317E+02  0.00000000000E+00 0.  1.
         12    1    6    6    0    0 -0.92086631019E+02 -0.22907613435E+02 -0.19081382430E+02  0.96792590218E+02  0.00000000000E+00 0. -1.
         -5    1    3    3    0  503  0.81964995222E+02  0.14470664543E+03 -0.33929070147E+03  0.37788694576E+03  0.47000000000E+01 0.  1.
         13    1    4    4    0    0 -0.23919242319E+01  0.47853916153E+01  0.59366829795E+01  0.79915880300E+01  0.00000000000E+00 0. -1.
        -14    1    4    4    0    0  0.23891406118E+02  0.49720953641E+01 -0.23388105307E+03  0.23515073465E+03  0.00000000000E+00 0.  1.
</event>
<event>
12    1  0.8691829E-002  0.1984932E+03  0.7818608E-02  0.1151304E+00
         21   -1    0    0  503  502  0.00000000000E+00  0.00000000000E+00  0.13143512303E+03  0.13143512303E+03  0.00000000000E+00 0. -1.
         21   -1    0    0  501  503 -0.00000000000E+00 -0.00000000000E+00 -0.31869104519E+03  0.31869104519E+03  0.00000000000E+00 0. -1.
          6    2    1    2  501    0 -0.92838353849E+02 -0.27448875921E+02 -0.15163665769E+03  0.24978635300E+03  0.17328342522E+03 0.  0.
         24    2    3    3    0    0 -0.41363095462E+02  0.46056232973E+01 -0.16758346102E+03  0.18690882377E+03  0.71544214037E+02 0.  0.
         -6    2    1    2    0  502  0.92838353849E+02  0.27448875921E+02 -0.35619264466E+02  0.20033981521E+03  0.17174081874E+03 0.  0.
        -24    2    5    5    0    0  0.90746893175E+02 -0.38945643894E+02 -0.41128795931E+02  0.13351877507E+03  0.79899459579E+02 0.  0.
          5    1    3    3  501    0 -0.51475258388E+02 -0.32054499218E+02  0.15946803331E+02  0.62877529235E+02  0.47000000000E+01 0. -1.
        -11    1    4    4    0    0  0.18372071575E+02  0.10922879516E+02 -0.30514490050E+02  0.37255555476E+02  0.00000000000E+00 0.  1.
         12    1    4    4    0    0 -0.59735167036E+02 -0.63172562187E+01 -0.13706897097E+03  0.14965326829E+03  0.00000000000E+00 0. -1.
         -5    1    5    5    0  502  0.20914606746E+01  0.66394519814E+02  0.55095314656E+01  0.66821040145E+02  0.47000000000E+01 0.  1.
         13    1    6    6    0    0  0.67953776864E+02  0.49420447862E+01  0.16158721342E+01  0.68152407438E+02  0.00000000000E+00 0. -1.
        -14    1    6    6    0    0  0.22793116310E+02 -0.43887688680E+02 -0.42744668066E+02  0.65366367628E+02  0.00000000000E+00 0.  1.
</event>
<event>
12    1  0.8691829E-002  0.1817459E+03  0.7818608E-02  0.1166164E+00
         21   -1    0    0  503  502  0.00000000000E+00  0.00000000000E+00  0.17286929928E+03  0.17286929928E+03  0.00000000000E+00 0. -1.
         21   -1    0    0  501  503 -0.00000000000E+00 -0.00000000000E+00 -0.22798293851E+03  0.22798293851E+03  0.00000000000E+00 0. -1.
          6    2    1    2  501    0  0.56949077364E+02  0.16914687049E+02 -0.10839998803E+03  0.21161788259E+03  0.17176223909E+03 0.  0.
         24    2    3    3    0    0 -0.14432036409E+02 -0.39357690660E+02 -0.41558107839E+02  0.98694143525E+02  0.79095803619E+02 0.  0.
         -6    2    1    2    0  502 -0.56949077364E+02 -0.16914687049E+02  0.53286348801E+02  0.18923435521E+03  0.17158351369E+03 0.  0.
        -24    2    5    5    0    0 -0.86492848948E+02 -0.26638291386E+00  0.83074967305E+02  0.14385316679E+03  0.79443058368E+02 0.  0.
          5    1    3    3  501    0  0.71381113774E+02  0.56272377709E+02 -0.66841880186E+02  0.11292373906E+03  0.47000000000E+01 0. -1.
        -13    1    4    4    0    0 -0.21006571642E+02 -0.35519723200E+02  0.13264128383E+02  0.43345863587E+02  0.00000000000E+00 0.  1.
         14    1    4    4    0    0  0.65745352323E+01 -0.38379674602E+01 -0.54822236222E+02  0.55348279939E+02  0.00000000000E+00 0. -1.
         -5    1    5    5    0  502  0.29543771584E+02 -0.16648304136E+02 -0.29788618504E+02  0.45381188419E+02  0.47000000000E+01 0.  1.
         13    1    6    6    0    0 -0.26090551846E+02 -0.69669084705E+01 -0.13155847652E+02  0.30038825488E+02  0.00000000000E+00 0. -1.
        -14    1    6    6    0    0 -0.60402297102E+02  0.67005255566E+01  0.96230814957E+02  0.11381434130E+03  0.00000000000E+00 0.  1.
</event>
<event>
12    1  0.8691829E-002  0.1887582E+03  0.7818608E-02  0.1159664E+00
         21   -1    0    0  503  502  0.00000000000E+00  0.00000000000E+00  0.27797607864E+02  0.27797607864E+02  0.00000000000E+00 0. -1.
         21   -1    0    0  501  503 -0.00000000000E+00 -0.00000000000E+00 -0.20428185688E+04  0.20428185688E+04  0.00000000000E+00 0.  1.
          6    2    1    2  501    0  0.33627507351E+02  0.72952070376E+02 -0.16409704584E+04  0.16517910581E+04  0.17081229608E+03 0.  0.
         24    2    3    3    0    0  0.45915204688E+02  0.78173741377E+01 -0.13518786589E+04  0.13551605225E+04  0.81943979655E+02 0.  0.
         -6    2    1    2    0  502 -0.33627507351E+02 -0.72952070376E+02 -0.37405050253E+03  0.41882511855E+03  0.17043440867E+03 0.  0.
        -24    2    5    5    0    0  0.19675834563E+02 -0.73689657863E+02 -0.33433778048E+03  0.35218443588E+03  0.80217337734E+02 0.  0.
          5    1    3    3  501    0 -0.12287697338E+02  0.65134696238E+02 -0.28909179942E+03  0.29663053560E+03  0.47000000000E+01 0. -1.
        -11    1    4    4    0    0  0.67094477917E+02  0.16801570414E+02 -0.87612742054E+03  0.87885335453E+03  0.00000000000E+00 0.  1.
         12    1    4    4    0    0 -0.21179273229E+02 -0.89841962761E+01 -0.47575123841E+03  0.47630716795E+03  0.00000000000E+00 0. -1.
         -5    1    5    5    0  502 -0.53303341914E+02  0.73758748757E+00 -0.39712722048E+02  0.66640682671E+02  0.47000000000E+01 0.  1.
         11    1    6    6    0    0  0.42336174139E+02 -0.12463181891E+02 -0.16171278078E+03  0.16762668645E+03  0.00000000000E+00 0. -1.
        -12    1    6    6    0    0 -0.22660339575E+02 -0.61226475972E+02 -0.17262499970E+03  0.18455774942E+03  0.00000000000E+00 0.  1.
</event>
<event>
12    1  0.8691829E-002  0.1968740E+03  0.7818608E-02  0.1152785E+00
         21   -1    0    0  501  502  0.00000000000E+00  0.00000000000E+00  0.48631792841E+03  0.48631792841E+03  0.00000000000E+00 0. -1.
         21   -1    0    0  502  503 -0.00000000000E+00 -0.00000000000E+00 -0.47044681901E+03  0.47044681901E+03  0.00000000000E+00 0. -1.
         -6    2    1    2    0  503 -0.38304054520E+02  0.84720718095E+02 -0.42843626792E+03  0.47150506086E+03  0.17353554703E+03 0.  0.
        -24    2    3    3    0    0 -0.58298275745E+02 -0.95348947565E+01 -0.20932431135E+03  0.23209739819E+03  0.81011923502E+02 0.  0.
          6    2    1    2  501    0  0.38304054520E+02 -0.84720718095E+02  0.44430737731E+03  0.48525968656E+03  0.17153167988E+03 0.  0.
         24    2    5    5    0    0  0.18925510883E+02  0.11723655567E+02  0.12241684879E+03  0.14864024637E+03  0.81316781237E+02 0.  0.
          5    1    5    5  501    0  0.19378543637E+02 -0.96444373662E+02  0.32189052852E+03  0.33661944019E+03  0.47000000000E+01 0. -1.
        -13    1    6    6    0    0  0.31020613481E+02  0.10236501103E+02  0.13016375642E+03  0.13420010395E+03  0.00000000000E+00 0.  1.
         14    1    6    6    0    0 -0.12095102597E+02  0.14871544640E+01 -0.77469076279E+01  0.14440142417E+02  0.00000000000E+00 0. -1.
         -5    1    3    3    0  503  0.19994221225E+02  0.94255612852E+02 -0.21911195656E+03  0.23940766267E+03  0.47000000000E+01 0.  1.
         11    1    4    4    0    0 -0.22512720586E+02  0.26045080484E+01 -0.18666540100E+03  0.18803610818E+03  0.00000000000E+00 0. -1.
        -12    1    4    4    0    0 -0.35785555159E+02 -0.12139402805E+02 -0.22658910353E+02  0.44061290005E+02  0.00000000000E+00 0.  1.
</event>
<event>
12    1  0.8691829E-002  0.2052991E+03  0.7818608E-02  0.1145429E+00
         21   -1    0    0  501  502  0.00000000000E+00  0.00000000000E+00  0.15801559085E+03  0.15801559085E+03  0.00000000000E+00 0. -1.
         21   -1    0    0  502  503 -0.00000000000E+00 -0.00000000000E+00 -0.69201092846E+03  0.69201092846E+03  0.00000000000E+00 0. -1.
         -6    2    1    2    0  503 -0.83807160571E+02 -0.72253339720E+02 -0.60028936071E+03  0.63428910497E+03  0.17242727984E+03 0.  0.
        -24    2    3    3    0    0 -0.12587035693E+03 -0.59358293949E+02 -0.49599278362E+03  0.52099541280E+03  0.77850015628E+02 0.  0.
          6    2    1    2  501    0  0.83807160571E+02  0.72253339720E+02  0.66294023096E+02  0.21573741434E+03  0.17292642709E+03 0.  0.
         24    2    5    5    0    0  0.12624326524E+02 -0.27661663486E+02  0.29802985670E+02  0.87660525168E+02  0.76626421494E+02 0.  0.
          5    1    5    5  501    0  0.71182834046E+02  0.99915003205E+02  0.36491037427E+02  0.12807688918E+03  0.47000000000E+01 0. -1.
        -11    1    6    6    0    0  0.39263898387E+02 -0.12150939283E+02 -0.47277153475E+01  0.41372096084E+02  0.00000000000E+00 0.  1.
         12    1    6    6    0    0 -0.26639571863E+02 -0.15510724202E+02  0.34530701017E+02  0.46288429084E+02  0.00000000000E+00 0. -1.
         -5    1    3    3    0  503  0.42063196359E+02 -0.12895045771E+02 -0.10429657709E+03  0.11329369217E+03  0.47000000000E+01 0.  1.
         11    1    4    4    0    0 -0.78329669827E+01  0.15228261733E+02 -0.91306326465E+02  0.92898334644E+02  0.00000000000E+00 0. -1.
        -12    1    4    4    0    0 -0.11803738995E+03 -0.74586555682E+02 -0.40468645716E+03  0.42809707815E+03  0.00000000000E+00 0.  1.
</event>
<event>
12    1  0.8691829E-002  0.1761218E+03  0.7818608E-02  0.1171800E+00
         21   -1    0    0  503  502  0.00000000000E+00  0.00000000000E+00  0.26153753037E+03  0.26153753037E+03  0.00000000000E+00 0. -1.
         21   -1    0    0  501  503 -0.00000000000E+00 -0.00000000000E+00 -0.11950737143E+03  0.11950737143E+03  0.00000000000E+00 0. -1.
          6    2    1    2  501    0  0.32983932615E+02  0.18646536602E+02  0.50105082331E+02  0.18237660294E+03  0.17121645040E+03 0.  0.
         24    2    3    3    0    0 -0.66700330195E+01  0.70515031505E+02  0.47924995568E+02  0.11688140821E+03  0.79671822983E+02 0.  0.
         -6    2    1    2    0  502 -0.32983932615E+02 -0.18646536602E+02  0.91925076610E+02  0.19866829886E+03  0.17199779104E+03 0.  0.
        -24    2    5    5    0    0  0.97770292631E+01 -0.61958832919E+02  0.69778431988E+02  0.13372972218E+03  0.95289672818E+02 0.  0.
          5    1    3    3  501    0  0.39653965634E+02 -0.51868494902E+02  0.21800867630E+01  0.65495194726E+02  0.47000000000E+01 0. -1.
        -13    1    4    4    0    0 -0.94458033887E+01  0.12859531987E+02 -0.21385933219E+02  0.26682370664E+02  0.00000000000E+00 0.  1.
         14    1    4    4    0    0  0.27757703692E+01  0.57655499518E+02  0.69310928787E+02  0.90199037551E+02  0.00000000000E+00 0. -1.
         -5    1    5    5    0  502 -0.42760961878E+02  0.43312296316E+02  0.22146644622E+02  0.64938576678E+02  0.47000000000E+01 0.  1.
         13    1    6    6    0    0 -0.22157055188E+02 -0.43629381217E+02 -0.61756171399E+01  0.49321356906E+02  0.00000000000E+00 0. -1.
        -14    1    6    6    0    0  0.31934084451E+02 -0.18329451702E+02  0.75954049128E+02  0.84408365274E+02  0.00000000000E+00 0.  1.
</event>
<event>
12    1  0.8691829E-002  0.2818474E+03  0.7818608E-02  0.1094993E+00
         21   -1    0    0  503  502  0.00000000000E+00  0.00000000000E+00  0.14585943993E+03  0.14585943993E+03  0.00000000000E+00 0. -1.
         21   -1    0    0  501  503 -0.00000000000E+00 -0.00000000000E+00 -0.67906319569E+03  0.67906319569E+03  0.00000000000E+00 0.  1.
          6    2    1    2  501    0 -0.21116928542E+03 -0.69380974213E+02 -0.45223486801E+03  0.53167548321E+03  0.16957669921E+03 0.  0.
         24    2    3    3    0    0 -0.13856144360E+03 -0.10174842772E+03 -0.24518484822E+03  0.30983916644E+03  0.79578156994E+02 0.  0.
         -6    2    1    2    0  502  0.21116928542E+03  0.69380974213E+02 -0.80968887755E+02  0.29324715241E+03  0.17329669623E+03 0.  0.
        -24    2    5    5    0    0  0.18976404751E+03 -0.27184274566E+01 -0.59688915365E+02  0.21494367128E+03  0.81364805856E+02 0.  0.
          5    1    3    3  501    0 -0.72607841823E+02  0.32367453510E+02 -0.20705001980E+03  0.22183631677E+03  0.47000000000E+01 0. -1.
        -13    1    4    4    0    0 -0.32222262195E+02 -0.10551360503E+02 -0.11020394111E+03  0.11530183878E+03  0.00000000000E+00 0.  1.
         14    1    4    4    0    0 -0.10633918140E+03 -0.91197067220E+02 -0.13498090710E+03  0.19453732766E+03  0.00000000000E+00 0. -1.
         -5    1    5    5    0  502  0.21405237909E+02  0.72099401670E+02 -0.21279972390E+02  0.78303481123E+02  0.47000000000E+01 0.  1.
         11    1    6    6    0    0  0.17895571242E+03  0.15603473435E+02 -0.68042989027E+02  0.19208972838E+03  0.00000000000E+00 0. -1.
        -12    1    6    6    0    0  0.10808335087E+02 -0.18321900892E+02  0.83540736613E+01  0.22853942907E+02  0.00000000000E+00 0.  1.
</event>
<event>
12    1  0.8691829E-002  0.1859005E+03  0.7818608E-02  0.1165441E+00
         21   -1    0    0  501  502  0.00000000000E+00  0.00000000000E+00  0.22493955219E+03  0.22493955219E+03  0.00000000000E+00 0. -1.
         21   -1    0    0  502  503 -0.00000000000E+00 -0.00000000000E+00 -0.22232970105E+03  0.22232970105E+03  0.00000000000E+00 0. -1.
         -6    2    1    2    0  503  0.54076195832E+01  0.10667833974E+02 -0.13243514586E+03  0.21749515605E+03  0.17211051687E+03 0.  0.
        -24    2    3    3    0    0 -0.47876161443E+02 -0.37504465959E+02 -0.83670280875E+02  0.13054785099E+03  0.79644922587E+02 0.  0.
          6    2    1    2  501    0 -0.54076195832E+01 -0.10667833974E+02  0.13504499700E+03  0.22977409719E+03  0.18551533493E+03 0.  0.
         24    2    5    5    0    0  0.80802204591E+01 -0.30149919084E+02  0.16807181429E+03  0.18885546904E+03  0.80274191651E+02 0.  0.
          5    1    5    5  501    0 -0.13487840042E+02  0.19482085111E+02 -0.33026817291E+02  0.40918628149E+02  0.47000000000E+01 0. -1.
        -13    1    6    6    0    0 -0.23995409573E+02 -0.42736638146E+02  0.12075130362E+03  0.13031913614E+03  0.00000000000E+00 0.  1.
         14    1    6    6    0    0  0.32075630032E+02  0.12586719061E+02  0.47320510671E+02  0.58536332895E+02  0.00000000000E+00 0. -1.
         -5    1    3    3    0  503  0.53283781027E+02  0.48172299933E+02 -0.48764864982E+02  0.86947305065E+02  0.47000000000E+01 0.  1.
         11    1    4    4    0    0 -0.41577742793E+02 -0.49453734264E+02 -0.93634982273E+02  0.11376242980E+03  0.00000000000E+00 0. -1.
        -12    1    4    4    0    0 -0.62984186502E+01  0.11949268305E+02  0.99647013972E+01  0.16785421188E+02  0.00000000000E+00 0.  1.
</event>
<event>
12    1  0.8691829E-002  0.1849999E+03  0.7818608E-02  0.1163178E+00
         21   -1    0    0  503  502  0.00000000000E+00  0.00000000000E+00  0.74182856534E+02  0.74182856534E+02  0.00000000000E+00 0.  1.
         21   -1    0    0  501  503 -0.00000000000E+00 -0.00000000000E+00 -0.51785990799E+03  0.51785990799E+03  0.00000000000E+00 0.  1.
          6    2    1    2  501    0  0.47893124703E+02 -0.47647849890E+02 -0.32108480779E+03  0.37056769165E+03  0.17222337618E+03 0.  0.
         24    2    3    3    0    0  0.81049044085E+02 -0.55605463072E+02 -0.30867664547E+03  0.33397956393E+03  0.81241384726E+02 0.  0.
         -6    2    1    2    0  502 -0.47893124703E+02  0.47647849890E+02 -0.12259224366E+03  0.22147507288E+03  0.17163414785E+03 0.  0.
        -24    2    5    5    0    0  0.35399230221E+02  0.30521790439E+02 -0.89863774758E+02  0.13023823285E+03  0.81864608289E+02 0.  0.
          5    1    3    3  501    0 -0.33155919381E+02  0.79576131824E+01 -0.12408162320E+02  0.36588127716E+02  0.47000000000E+01 0. -1.
        -11    1    4    4    0    0 -0.16278384289E+02 -0.12805514683E+02 -0.61899347827E+02  0.65272477069E+02  0.00000000000E+00 0.  1.
         12    1    4    4    0    0  0.97327428374E+02 -0.42799948389E+02 -0.24677729765E+03  0.26870708686E+03  0.00000000000E+00 0. -1.
         -5    1    5    5    0  502 -0.83292354925E+02  0.17126059451E+02 -0.32728468901E+02  0.91236840025E+02  0.47000000000E+01 0.  1.
         13    1    6    6    0    0 -0.10701385879E+02 -0.21888796690E+02 -0.20634714705E+02  0.31928522221E+02  0.00000000000E+00 0. -1.
        -14    1    6    6    0    0  0.46100616100E+02  0.52410587129E+02 -0.69229060053E+02  0.98309710629E+02  0.00000000000E+00 0.  1.
</event>
<event>
12    1  0.8691829E-002  0.1902303E+03  0.7818608E-02  0.1158619E+00
         21   -1    0    0  501  502  0.00000000000E+00  0.00000000000E+00  0.11515628011E+03  0.11515628011E+03  0.00000000000E+00 0.  1.
         21   -1    0    0  502  503 -0.00000000000E+00 -0.00000000000E+00 -0.31165079766E+03  0.31165079766E+03  0.00000000000E+00 0.  1.
         -6    2    1    2    0  503  0.67985715536E+02  0.40683503351E+02 -0.95575849596E+02  0.21289040996E+03  0.17294617274E+03 0.  0.
        -24    2    3    3    0    0  0.88981853477E+02 -0.74820318177E+01 -0.23710693500E+02  0.12374195374E+03  0.82317210110E+02 0.  0.
          6    2    1    2  501    0 -0.67985715536E+02 -0.40683503351E+02 -0.10091866796E+03  0.21391666780E+03  0.17116821627E+03 0.  0.
         24    2    5    5    0    0 -0.72312344374E+02  0.34038192342E+02 -0.55930195546E+02  0.12646322777E+03  0.80480354848E+02 0.  0.
          5    1    5    5  501    0  0.43266288380E+01 -0.74721695693E+02 -0.44988472413E+02  0.87453440038E+02  0.47000000000E+01 0. -1.
        -11    1    6    6    0    0 -0.65092822362E+02 -0.73837721080E+01 -0.13813274338E+02  0.66950744294E+02  0.00000000000E+00 0.  1.
         12    1    6    6    0    0 -0.72195220115E+01  0.41421964450E+02 -0.42116921208E+02  0.59512483472E+02  0.00000000000E+00 0. -1.
         -5    1    3    3    0  503 -0.20996137942E+02  0.48165535169E+02 -0.71865156096E+02  0.89148456225E+02  0.47000000000E+01 0.  1.
         11    1    4    4    0    0  0.70986656348E+02 -0.41901644637E+02 -0.19232080531E+02  0.84644705235E+02  0.00000000000E+00 0. -1.
        -12    1    4    4    0    0  0.17995197130E+02  0.34419612820E+02 -0.44786129683E+01  0.39097248503E+02  0.00000000000E+00 0.  1.
</event>
<event>
12    1  0.8691829E-002  0.2097289E+03  0.7818608E-02  0.1143825E+00
         21   -1    0    0  501  502  0.00000000000E+00  0.00000000000E+00  0.17989957580E+03  0.17989957580E+03  0.00000000000E+00 0. -1.
         21   -1    0    0  502  503 -0.00000000000E+00 -0.00000000000E+00 -0.26266830676E+03  0.26266830676E+03  0.00000000000E+00 0.  1.
         -6    2    1    2    0  503  0.27306089963E+02  0.98381733321E+02 -0.11490967236E+03  0.23039042828E+03  0.17161272867E+03 0.  0.
        -24    2    3    3    0    0 -0.51297813215E+02  0.52861349721E+02 -0.70577872142E+02  0.12920704314E+03  0.79293354235E+02 0.  0.
          6    2    1    2  501    0 -0.27306089963E+02 -0.98381733321E+02  0.32140941405E+02  0.21217745429E+03  0.18319837334E+03 0.  0.
         24    2    5    5    0    0 -0.35408877111E+02  0.22720286468E+01 -0.15511449025E+02  0.10042023854E+03  0.92653486524E+02 0.  0.
          5    1    5    5  501    0  0.81027871481E+01 -0.10065376197E+03  0.47652390430E+02  0.11175721575E+03  0.47000000000E+01 0. -1.
        -13    1    6    6    0    0  0.11802997821E+01  0.59692968155E+01  0.36342988155E+02  0.36848858871E+02  0.00000000000E+00 0.  1.
         14    1    6    6    0    0 -0.36589176893E+02 -0.36972681688E+01 -0.51854437180E+02  0.63571379668E+02  0.00000000000E+00 0. -1.
         -5    1    3    3    0  503  0.78603903178E+02  0.45520383600E+02 -0.44331800221E+02  0.10118338514E+03  0.47000000000E+01 0.  1.
         11    1    4    4    0    0 -0.76110205470E+01 -0.34456981140E+00  0.16516930778E+02  0.18189430020E+02  0.00000000000E+00 0. -1.
        -12    1    4    4    0    0 -0.43686792668E+02  0.53205919532E+02 -0.87094802921E+02  0.11101761312E+03  0.00000000000E+00 0.  1.
</event>
<event>
12    1  0.8691829E-002  0.2028951E+03  0.7818608E-02  0.1147476E+00
         21   -1    0    0  503  502  0.00000000000E+00  0.00000000000E+00  0.14548062670E+04  0.14548062670E+04  0.00000000000E+00 0.  1.
         21   -1    0    0  501  503 -0.00000000000E+00 -0.00000000000E+00 -0.97602512456E+02  0.97602512456E+02  0.00000000000E+00 0.  1.
          6    2    1    2  501    0  0.26408696886E+02 -0.10245902163E+03  0.24392394335E+02  0.20435608096E+03  0.17312177372E+03 0.  0.
         24    2    3    3    0    0 -0.11434896878E+02 -0.10707799210E+03  0.65407197833E+02  0.14816198355E+03  0.77957800006E+02 0.  0.
         -6    2    1    2    0  502 -0.26408696886E+02  0.10245902163E+03  0.13328113602E+04  0.13480526985E+04  0.17223439160E+03 0.  0.
        -24    2    5    5    0    0  0.36348204467E+02  0.92159115766E+02  0.10721593744E+04  0.10797132411E+04  0.80252502493E+02 0.  0.
          5    1    3    3  501    0  0.37843593764E+02  0.46189704730E+01 -0.41014803498E+02  0.56194097406E+02  0.47000000000E+01 0. -1.
        -13    1    4    4    0    0 -0.37656137921E+02 -0.22472809586E+02  0.27882852330E+02  0.51966001846E+02  0.00000000000E+00 0.  1.
         14    1    4    4    0    0  0.26221241043E+02 -0.84605182516E+02  0.37524345503E+02  0.96195981704E+02  0.00000000000E+00 0. -1.
         -5    1    5    5    0  502 -0.62756901353E+02  0.10299905863E+02  0.26065198573E+03  0.26833945739E+03  0.47000000000E+01 0.  1.
         13    1    6    6    0    0  0.59986266338E+02  0.58252187536E+02  0.81158088634E+03  0.81587695431E+03  0.00000000000E+00 0. -1.
        -14    1    6    6    0    0 -0.23638061871E+02  0.33906928230E+02  0.26057848810E+03  0.26383628676E+03  0.00000000000E+00 0.  1.
</event>
<event>
12    1  0.8691829E-002  0.2647797E+03  0.7818608E-02  0.1104374E+00
         21   -1    0    0  501  502  0.00000000000E+00  0.00000000000E+00  0.82024270924E+02  0.82024270924E+02  0.00000000000E+00 0.  1.
         21   -1    0    0  502  503 -0.00000000000E+00 -0.00000000000E+00 -0.14905885295E+04  0.14905885295E+04  0.00000000000E+00 0.  1.
         -6    2    1    2    0  503 -0.19807992255E+03 -0.35849752989E+02 -0.12181009263E+04  0.12464463163E+04  0.17128249222E+03 0.  0.
        -24    2    3    3    0    0 -0.10571164505E+03  0.22071305675E+02 -0.43211397254E+03  0.45291980176E+03  0.82169137318E+02 0.  0.
          6    2    1    2  501    0  0.19807992255E+03  0.35849752989E+02 -0.19046333225E+03  0.32616648415E+03  0.17200998210E+03 0.  0.
         24    2    5    5    0    0  0.17141970967E+03  0.62476786773E+02 -0.20516479510E+03  0.28544807445E+03  0.78102140238E+02 0.  0.
          5    1    5    5  501    0  0.26660212877E+02 -0.26627033784E+02  0.14701462842E+02  0.40718409700E+02  0.47000000000E+01 0. -1.
        -13    1    6    6    0    0  0.92904010226E+02  0.67420287708E+02 -0.89467021137E+02  0.14553693065E+03  0.00000000000E+00 0.  1.
         14    1    6    6    0    0  0.78515699447E+02 -0.49435009345E+01 -0.11569777396E+03  0.13991114380E+03  0.00000000000E+00 0. -1.
         -5    1    3    3    0  503 -0.92368277504E+02 -0.57921058664E+02 -0.78598695378E+03  0.79352651452E+03  0.47000000000E+01 0.  1.
         13    1    4    4    0    0 -0.78480273110E+02 -0.56311451533E+01 -0.16277795681E+03  0.18079692001E+03  0.00000000000E+00 0. -1.
        -14    1    4    4    0    0 -0.27231371936E+02  0.27702450828E+02 -0.26933601573E+03  0.27212288175E+03  0.00000000000E+00 0.  1.
</event>
<event>
12    1  0.8691829E-002  0.2265657E+03  0.7818608E-02  0.1129092E+00
         21   -1    0    0  503  502  0.00000000000E+00  0.00000000000E+00  0.72014448749E+03  0.72014448749E+03  0.00000000000E+00 0.  1.
         21   -1    0    0  501  503 -0.00000000000E+00 -0.00000000000E+00 -0.20852110560E+03  0.20852110560E+03  0.00000000000E+00 0. -1.
          6    2    1    2  501    0  0.12437661113E+03 -0.80590024664E+02 -0.12090340898E+03  0.25680666696E+03  0.17137017366E+03 0.  0.
         24    2    3    3    0    0  0.11890058448E+03 -0.86261347692E+02 -0.15064372108E+03  0.22568228846E+03  0.81612471638E+02 0.  0.
         -6    2    1    2    0  502 -0.12437661113E+03  0.80590024664E+02  0.63252679087E+03  0.67185892613E+03  0.17128917646E+03 0.  0.
        -24    2    5    5    0    0 -0.11639353794E+03  0.34147963228E+01  0.29073650935E+03  0.32134154871E+03  0.71927439492E+02 0.  0.
          5    1    3    3  501    0  0.54760266520E+01  0.56713230279E+01  0.29740312108E+02  0.31124378501E+02  0.47000000000E+01 0. -1.
        -11    1    4    4    0    0  0.18994275146E+02 -0.31834541845E+02 -0.20887073161E+00  0.37071069175E+02  0.00000000000E+00 0.  1.
         12    1    4    4    0    0  0.99906309334E+02 -0.54426805847E+02 -0.15043485035E+03  0.18861121929E+03  0.00000000000E+00 0. -1.
         -5    1    5    5    0  502 -0.79830731948E+01  0.77175228341E+02  0.34179028153E+03  0.35051737742E+03  0.47000000000E+01 0.  1.
         11    1    6    6    0    0 -0.62863031009E+02  0.84082207496E+01  0.71350006238E+02  0.95463512579E+02  0.00000000000E+00 0. -1.
        -12    1    6    6    0    0 -0.53530506929E+02 -0.49934244268E+01  0.21938650311E+03  0.22587803613E+03  0.00000000000E+00 0.  1.
</event>
<event>
12    1  0.8691829E-002  0.1777459E+03  0.7818608E-02  0.1170025E+00
         21   -1    0    0  503  502  0.00000000000E+00  0.00000000000E+00  0.70011123312E+02  0.70011123312E+02  0.00000000000E+00 0.  1.
         21   -1    0    0  501  503 -0.00000000000E+00 -0.00000000000E+00 -0.50854658152E+03  0.50854658152E+03  0.00000000000E+00 0.  1.
          6    2    1    2  501    0  0.46620344555E+02  0.16041216506E+01 -0.31659627991E+03  0.36307962925E+03  0.17151554738E+03 0.  0.
         24    2    3    3    0    0  0.55933274768E+02  0.12694987638E+02 -0.79547072046E+02  0.12554193766E+03  0.78379509466E+02 0.  0.
         -6    2    1    2    0  502 -0.46620344555E+02 -0.16041216506E+01 -0.12193917829E+03  0.21547807557E+03  0.17142230927E+03 0.  0.
        -24    2    5    5    0    0 -0.66820493093E+02  0.51958407271E+02 -0.68143335126E+02  0.13678199405E+03  0.83073132780E+02 0.  0.
          5    1    3    3  501    0 -0.93129302125E+01 -0.11090865988E+02 -0.23704920786E+03  0.23753769159E+03  0.47000000000E+01 0. -1.
        -11    1    4    4    0    0  0.15409114512E+02  0.41521448362E+02 -0.53334618003E+02  0.69325702027E+02  0.00000000000E+00 0.  1.
         12    1    4    4    0    0  0.40524160255E+02 -0.28826460723E+02 -0.26212454044E+02  0.56216235637E+02  0.00000000000E+00 0. -1.
         -5    1    5    5    0  502  0.20200148538E+02 -0.53562528921E+02 -0.53795843168E+02  0.78696081526E+02  0.47000000000E+01 0.  1.
         11    1    6    6    0    0  0.12552881898E+02 -0.11076498053E+02 -0.14259735440E+02  0.21990991517E+02  0.00000000000E+00 0. -1.
        -12    1    6    6    0    0 -0.79373374991E+02  0.63034905324E+02 -0.53883599686E+02  0.11479100253E+03  0.00000000000E+00 0.  1.
</event>
<event>
12    1  0.8691829E-002  0.1786548E+03  0.7818608E-02  0.1169513E+00
         21   -1    0    0  501  502  0.00000000000E+00  0.00000000000E+00  0.27205442516E+03  0.27205442516E+03  0.00000000000E+00 0.  1.
         21   -1    0    0  502  503 -0.00000000000E+00 -0.00000000000E+00 -0.20310357167E+03  0.20310357167E+03  0.00000000000E+00 0.  1.
         -6    2    1    2    0  503  0.24227243412E+02 -0.31048354886E+02 -0.12079596959E+03  0.21565995568E+03  0.17426012323E+03 0.  0.
        -24    2    3    3    0    0  0.38993667809E+02 -0.75900687961E+02 -0.42126254519E+02  0.12378616648E+03  0.79164216219E+02 0.  0.
          6    2    1    2  501    0 -0.24227243412E+02  0.31048354886E+02  0.18974682309E+03  0.25949804116E+03  0.17258162368E+03 0.  0.
         24    2    5    5    0    0 -0.62770824158E+02 -0.18771028587E+02  0.91660604006E+02  0.14283367231E+03  0.87791023111E+02 0.  0.
          5    1    5    5  501    0  0.38543580746E+02  0.49819383473E+02  0.98086219080E+02  0.11666436885E+03  0.47000000000E+01 0. -1.
        -13    1    6    6    0    0 -0.79106029698E+02 -0.10650476060E+02  0.95217300210E+02  0.12424786048E+03  0.00000000000E+00 0.  1.
         14    1    6    6    0    0  0.16335205540E+02 -0.81205525270E+01 -0.35566962046E+01  0.18585811827E+02  0.00000000000E+00 0. -1.
         -5    1    3    3    0  503 -0.14766424397E+02  0.44852333074E+02 -0.78669715075E+02  0.91873789198E+02  0.47000000000E+01 0.  1.
         13    1    4    4    0    0  0.61906401878E+02 -0.53767593919E+02 -0.18322528942E+02  0.84018282630E+02  0.00000000000E+00 0. -1.
        -14    1    4    4    0    0 -0.22912734069E+02 -0.22133094042E+02 -0.23803725577E+02  0.39767883848E+02  0.00000000000E+00 0.  1.
</event>
<event>
12    1  0.8691829E-002  0.1900056E+03  0.7818608E-02  0.1160022E+00
         21   -1    0    0  501  502  0.00000000000E+00  0.00000000000E+00  0.36838459962E+03  0.36838459962E+03  0.00000000000E+00 0. -1.
         21   -1    0    0  502  503 -0.00000000000E+00 -0.00000000000E+00 -0.96065927721E+02  0.96065927721E+02  0.00000000000E+00 0. -1.
         -6    2    1    2    0  503  0.55968744960E+02  0.33470412710E+02  0.10914960168E+03  0.21912496610E+03  0.17846385148E+03 0.  0.
        -24    2    3    3    0    0  0.90042704136E+02  0.67482937798E+00  0.25364447900E+02  0.12279933621E+03  0.79549844717E+02 0.  0.
          6    2    1    2  501    0 -0.55968744960E+02 -0.33470412710E+02  0.16316907022E+03  0.24532556123E+03  0.17119496657E+03 0.  0.
         24    2    5    5    0    0 -0.92956611321E+02 -0.56028260313E+01  0.14212879006E+03  0.19424241299E+03  0.94112691987E+02 0.  0.
          5    1    5    5  501    0  0.36987866361E+02 -0.27867586679E+02  0.21040280156E+02  0.51083148242E+02  0.47000000000E+01 0. -1.
        -13    1    6    6    0    0  0.11685225120E+02  0.21273362587E+02  0.23367699571E+02  0.33691984582E+02  0.00000000000E+00 0.  1.
         14    1    6    6    0    0 -0.10464183644E+03 -0.26876188618E+02  0.11876109049E+03  0.16055042841E+03  0.00000000000E+00 0. -1.
         -5    1    3    3    0  503 -0.34073959176E+02  0.32795583332E+02  0.83785153777E+02  0.96325629889E+02  0.47000000000E+01 0.  1.
         11    1    4    4    0    0  0.16201931538E+02  0.39768254340E+01  0.43587902305E+02  0.46671436163E+02  0.00000000000E+00 0. -1.
        -12    1    4    4    0    0  0.73840772598E+02 -0.33019960560E+01 -0.18223454405E+02  0.76127900051E+02  0.00000000000E+00 0.  1.
</event>
<event>
12    1  0.8691829E-002  0.1949765E+03  0.7818608E-02  0.1154108E+00
         21   -1    0    0  501  502  0.00000000000E+00  0.00000000000E+00  0.85078360319E+02  0.85078360319E+02  0.00000000000E+00 0. -1.
         21   -1    0    0  502  503 -0.00000000000E+00 -0.00000000000E+00 -0.57521204487E+03  0.57521204487E+03  0.00000000000E+00 0. -1.
         -6    2    1    2    0  503  0.25901457888E+02  0.88077190602E+02 -0.40128273106E+03  0.44602347744E+03  0.17169925788E+03 0.  0.
        -24    2    3    3    0    0  0.70751046775E+02  0.11663208076E+02 -0.23943224822E+03  0.26144760918E+03  0.76715772926E+02 0.  0.
          6    2    1    2  501    0 -0.25901457888E+02 -0.88077190602E+02 -0.88850953484E+02  0.21426692774E+03  0.17200973043E+03 0.  0.
         24    2    5    5    0    0 -0.55713080634E+01 -0.86728035842E+02  0.52139406399E+01  0.11790599418E+03  0.79510040950E+02 0.  0.
          5    1    5    5  501    0 -0.20330149824E+02 -0.13491547601E+01 -0.94064894124E+02  0.96360933563E+02  0.47000000000E+01 0. -1.
        -11    1    6    6    0    0  0.28212083945E+02 -0.38943730839E+02 -0.22573332395E+02  0.53123358211E+02  0.00000000000E+00 0.  1.
         12    1    6    6    0    0 -0.33783392009E+02 -0.47784305003E+02  0.27787273035E+02  0.64782635968E+02  0.00000000000E+00 0. -1.
         -5    1    3    3    0  503 -0.44849588887E+02  0.76413982527E+02 -0.16185048284E+03  0.18457586827E+03  0.47000000000E+01 0.  1.
         11    1    4    4    0    0  0.51492097290E+02 -0.25327391128E+02 -0.17937790453E+03  0.18833307054E+03  0.00000000000E+00 0. -1.
        -12    1    4    4    0    0  0.19258949485E+02  0.36990599204E+02 -0.60054343688E+02  0.73114538640E+02  0.00000000000E+00 0.  1.
</event>
<event>
12    1  0.8691829E-002  0.2111235E+03  0.7818608E-02  0.1141148E+00
         21   -1    0    0  503  502  0.00000000000E+00  0.00000000000E+00  0.35260257991E+02  0.35260257991E+02  0.00000000000E+00 0. -1.
         21   -1    0    0  501  503 -0.00000000000E+00 -0.00000000000E+00 -0.16413509823E+04  0.16413509823E+04  0.00000000000E+00 0. -1.
          6    2    1    2  501    0  0.14374277297E+02 -0.12087536627E+03 -0.12158385001E+04  0.12340325801E+04  0.17249833750E+03 0.  0.
         24    2    3    3    0    0  0.69712492728E+02 -0.50050654243E+02 -0.61716819191E+03  0.62863462354E+03  0.83186616536E+02 0.  0.
         -6    2    1    2    0  502 -0.14374277297E+02  0.12087536627E+03 -0.39025222423E+03  0.44257866020E+03  0.16959244655E+03 0.  0.
        -24    2    5    5    0    0  0.74580378890E+01  0.13200906279E+03 -0.38795647695E+03  0.41751933778E+03  0.79562267601E+02 0.  0.
          5    1    3    3  501    0 -0.55338215431E+02 -0.70824712025E+02 -0.59867030820E+03  0.60539795659E+03  0.47000000000E+01 0. -1.
        -13    1    4    4    0    0  0.15983189963E+02 -0.16918694098E+02 -0.29452151670E+02  0.37538431099E+02  0.00000000000E+00 0.  1.
         14    1    4    4    0    0  0.53729302765E+02 -0.33131960145E+02 -0.58771604024E+03  0.59109619244E+03  0.00000000000E+00 0. -1.
         -5    1    5    5    0  502 -0.21832315186E+02 -0.11133696520E+02 -0.22957472827E+01  0.25059322420E+02  0.47000000000E+01 0.  1.
         11    1    6    6    0    0 -0.13635718751E+02  0.60431160761E+02 -0.27673512864E+03  0.28358453667E+03  0.00000000000E+00 0. -1.
        -12    1    6    6    0    0  0.21093756640E+02  0.71577902027E+02 -0.11122134831E+03  0.13393480111E+03  0.00000000000E+00 0.  1.
</event>
<event>
12    1  0.8691829E-002  0.2043938E+03  0.7818608E-02  0.1146239E+00
         21   -1    0    0  503  502  0.00000000000E+00  0.00000000000E+00  0.18123960468E+04  0.18123960468E+04  0.00000000000E+00 0.  1.
         21   -1    0    0  501  503 -0.00000000000E+00 -0.00000000000E+00 -0.52990767677E+02  0.52990767677E+02  0.00000000000E+00 0.  1.
          6    2    1    2  501    0 -0.10209905928E+03  0.40435819353E+02  0.17693130946E+03  0.26976759489E+03  0.17149517076E+03 0.  0.
         24    2    3    3    0    0 -0.13335787493E+03  0.12941596134E+02  0.11112937928E+03  0.19176099336E+03  0.80440859779E+02 0.  0.
         -6    2    1    2    0  502  0.10209905928E+03 -0.40435819353E+02  0.15824739696E+04  0.15956192195E+04  0.17238780657E+03 0.  0.
        -24    2    5    5    0    0  0.66708576083E+02 -0.79755954896E+02  0.13869220921E+04  0.13929836201E+04  0.77713768700E+02 0.  0.
          5    1    3    3  501    0  0.31258815645E+02  0.27494223219E+02  0.65801930183E+02  0.78006601527E+02  0.47000000000E+01 0. -1.
        -11    1    4    4    0    0 -0.74863133700E+02  0.42310408611E+02  0.39190137275E+02  0.94501462019E+02  0.00000000000E+00 0.  1.
         12    1    4    4    0    0 -0.58494741228E+02 -0.29368812477E+02  0.71939242002E+02  0.97259531345E+02  0.00000000000E+00 0. -1.
         -5    1    5    5    0  502  0.35390483200E+02  0.39320135543E+02  0.19555187753E+03  0.20263559945E+03  0.47000000000E+01 0.  1.
         11    1    6    6    0    0  0.15176817419E+02  0.48573000812E+01  0.54806479018E+03  0.54829640104E+03  0.00000000000E+00 0. -1.
        -12    1    6    6    0    0  0.51531758664E+02 -0.84613254977E+02  0.83885730191E+03  0.84468721905E+03  0.00000000000E+00 0.  1.
</event>
<event>
12    1  0.8691829E-002  0.2014107E+03  0.7818608E-02  0.1148734E+00
         21   -1    0    0  503  502  0.00000000000E+00  0.00000000000E+00  0.44265218479E+02  0.44265218479E+02  0.00000000000E+00 0.  1.
         21   -1    0    0  501  503 -0.00000000000E+00 -0.00000000000E+00 -0.14035852233E+04  0.14035852233E+04  0.00000000000E+00 0.  1.
          6    2    1    2  501    0  0.99210942689E+02  0.27667720763E+02 -0.11069057454E+04  0.11249275179E+04  0.17208508772E+03 0.  0.
         24    2    3    3    0    0  0.42173367405E+02 -0.47295081062E+02 -0.68679815348E+03  0.69436371840E+03  0.80211297208E+02 0.  0.
         -6    2    1    2    0  502 -0.99210942689E+02 -0.27667720763E+02 -0.25241425948E+03  0.32292292393E+03  0.17308362861E+03 0.  0.
        -24    2    5    5    0    0 -0.55071037159E+02  0.52507434735E+02 -0.11665381225E+03  0.15912617228E+03  0.76962178743E+02 0.  0.
          5    1    3    3  501    0  0.57037575284E+02  0.74962801825E+02 -0.42010759189E+03  0.43056379947E+03  0.47000000000E+01 0. -1.
        -11    1    4    4    0    0 -0.14626913499E+02 -0.34519582886E+02 -0.39759949798E+03  0.39936312923E+03  0.00000000000E+00 0.  1.
         12    1    4    4    0    0  0.56800280904E+02 -0.12775498176E+02 -0.28919865550E+03  0.29500058916E+03  0.00000000000E+00 0. -1.
         -5    1    5    5    0  502 -0.44139905530E+02 -0.80175155497E+02 -0.13576044723E+03  0.16379675165E+03  0.47000000000E+01 0.  1.
         13    1    6    6    0    0  0.19751274599E+02  0.10587378032E+02 -0.22207340505E+02  0.31549507035E+02  0.00000000000E+00 0. -1.
        -14    1    6    6    0    0 -0.74822311758E+02  0.41920056703E+02 -0.94446471746E+02  0.12757666525E+03  0.00000000000E+00 0.  1.
</event>
<event>
12    1  0.8691829E-002  0.1796650E+03  0.7818608E-02  0.1168695E+00
         21   -1    0    0  503  502  0.00000000000E+00  0.00000000000E+00  0.15883924594E+04  0.15883924594E+04  0.00000000000E+00 0.  1.
         21   -1    0    0  501  503 -0.00000000000E+00 -0.00000000000E+00 -0.21453240276E+02  0.21453240276E+02  0.00000000000E+00 0.  1.
          6    2    1    2  501    0  0.35701845139E+02 -0.23328468597E+02  0.58313865864E+03  0.61018867701E+03  0.17452990334E+03 0.  0.
         24    2    3    3    0    0 -0.25161237805E+02 -0.47025951171E+02  0.39564986045E+03  0.41159354869E+03  0.10012946259E+03 0.  0.
         -6    2    1    2    0  502 -0.35701845139E+02  0.23328468597E+02  0.98380056046E+03  0.99965702264E+03  0.17213884210E+03 0.  0.
        -24    2    5    5    0    0 -0.59342024576E+02  0.54236643579E+02  0.45958041550E+03  0.47397363528E+03  0.83509036892E+02 0.  0.
          5    1    3    3  501    0  0.60863082944E+02  0.23697482574E+02  0.18748879819E+03  0.19859512832E+03  0.47000000000E+01 0. -1.
        -11    1    4    4    0    0  0.15300546394E+02 -0.11037238055E+02  0.85302356024E+01  0.20704885010E+02  0.00000000000E+00 0.  1.
         12    1    4    4    0    0 -0.40461784199E+02 -0.35988713116E+02  0.38711962485E+03  0.39088866368E+03  0.00000000000E+00 0. -1.
         -5    1    5    5    0  502  0.23640179437E+02 -0.30908174982E+02  0.52422014496E+03  0.52568338736E+03  0.47000000000E+01 0.  1.
         11    1    6    6    0    0 -0.67596581287E+02  0.28022475732E+02  0.41645858687E+03  0.42283839883E+03  0.00000000000E+00 0. -1.
        -12    1    6    6    0    0  0.82545567113E+01  0.26214167847E+02  0.43121828630E+02  0.51135236450E+02  0.00000000000E+00 0.  1.
</event>
<event>
12    1  0.8691829E-002  0.3113739E+03  0.7818608E-02  0.1079727E+00
         21   -1    0    0  503  502  0.00000000000E+00  0.00000000000E+00  0.17696499207E+03  0.17696499207E+03  0.00000000000E+00 0. -1.
         21   -1    0    0  501  503 -0.00000000000E+00 -0.00000000000E+00 -0.15233889824E+04  0.15233889824E+04  0.00000000000E+00 0.  1.
          6    2    1    2  501    0  0.24381358141E+03  0.89298063449E+02 -0.13538649368E+04  0.13892098329E+04  0.17185600437E+03 0.  0.
         24    2    3    3    0    0  0.16758997921E+03  0.12826432056E+03 -0.95642847253E+03  0.98263113225E+03  0.79185743317E+02 0.  0.
         -6    2    1    2    0  502 -0.24381358141E+03 -0.89298063449E+02  0.74409464699E+01  0.31114414153E+03  0.17127785177E+03 0.  0.
        -24    2    5    5    0    0 -0.10349517917E+03 -0.80844322242E+02  0.21347009110E+02  0.16980699734E+03  0.10550670594E+03 0.  0.
          5    1    3    3  501    0  0.76223602202E+02 -0.38966257111E+02 -0.39743646427E+03  0.40657870069E+03  0.47000000000E+01 0. -1.
        -11    1    4    4    0    0  0.13710489232E+03  0.75152530849E+02 -0.55670961645E+03  0.57824843402E+03  0.00000000000E+00 0.  1.
         12    1    4    4    0    0  0.30485086890E+02  0.53111789711E+02 -0.39971885607E+03  0.40438269823E+03  0.00000000000E+00 0. -1.
         -5    1    5    5    0  502 -0.14031840224E+03 -0.84537412075E+01 -0.13906062640E+02  0.14133714419E+03  0.47000000000E+01 0.  1.
         13    1    6    6    0    0 -0.74928542894E+02 -0.52176562765E+02  0.63620085009E+02  0.11128430014E+03  0.00000000000E+00 0. -1.
        -14    1    6    6    0    0 -0.28566636275E+02 -0.28667759477E+02 -0.42273075899E+02  0.58522697199E+02  0.00000000000E+00 0.  1.
</event>
<event>
12    1  0.8691829E-002  0.2158653E+03  0.7818608E-02  0.1137158E+00
         21   -1    0    0  501  502  0.00000000000E+00  0.00000000000E+00  0.12481581152E+04  0.12481581152E+04  0.00000000000E+00 0.  1.
         21   -1    0    0  502  503 -0.00000000000E+00 -0.00000000000E+00 -0.40715768889E+02  0.40715768889E+02  0.00000000000E+00 0. -1.
         -6    2    1    2    0  503  0.11888762149E+03 -0.53377493742E+02  0.79221532059E+03  0.82088743547E+03  0.17107788915E+03 0.  0.
        -24    2    3    3    0    0  0.43915687151E+02 -0.79971508436E+02  0.31981537864E+03  0.34181350829E+03  0.78933948916E+02 0.  0.
          6    2    1    2  501    0 -0.11888762149E+03  0.53377493742E+02  0.41522702569E+03  0.46798644859E+03  0.17208837792E+03 0.  0.
         24    2    5    5    0    0 -0.13920220415E+03  0.72736735479E+02  0.28622695931E+03  0.33588584437E+03  0.78902103141E+02 0.  0.
          5    1    5    5  501    0  0.20314582665E+02 -0.19359241737E+02  0.12900006638E+03  0.13210060422E+03  0.47000000000E+01 0. -1.
        -13    1    6    6    0    0 -0.40125812083E+02  0.34345774565E+02  0.17179015361E+03  0.17972637509E+03  0.00000000000E+00 0.  1.
         14    1    6    6    0    0 -0.99076392072E+02  0.38390960914E+02  0.11443680570E+03  0.15615946928E+03  0.00000000000E+00 0. -1.
         -5    1    3    3    0  503  0.74971934339E+02  0.26594014695E+02  0.47239994195E+03  0.47907392718E+03  0.47000000000E+01 0.  1.
         11    1    4    4    0    0  0.52142663057E+02 -0.33659311289E+02  0.25030031815E+03  0.25787992518E+03  0.00000000000E+00 0. -1.
        -12    1    4    4    0    0 -0.82269759062E+01 -0.46312197147E+02  0.69515060494E+02  0.83933583104E+02  0.00000000000E+00 0.  1.
</event>
<event>
12    1  0.8691829E-002  0.1792998E+03  0.7818608E-02  0.1168564E+00
         21   -1    0    0  501  502  0.00000000000E+00  0.00000000000E+00  0.64589922241E+03  0.64589922241E+03  0.00000000000E+00 0.  1.
         21   -1    0    0  502  503 -0.00000000000E+00 -0.00000000000E+00 -0.50623532601E+02  0.50623532601E+02  0.00000000000E+00 0.  1.
         -6    2    1    2    0  503 -0.50760679719E+01  0.51606049409E+02  0.24982887654E+03  0.30731595915E+03  0.17128829613E+03 0.  0.
        -24    2    3    3    0    0  0.29061448247E+02  0.79135607020E+01  0.23382722039E+03  0.24941477969E+03  0.81396382694E+02 0.  0.
          6    2    1    2  501    0  0.50760679719E+01 -0.51606049409E+02  0.34544681328E+03  0.38920679587E+03  0.17163763674E+03 0.  0.
         24    2    5    5    0    0 -0.46517016598E+02 -0.72491338888E+02  0.18742194710E+03  0.22160014319E+03  0.80998828142E+02 0.  0.
          5    1    5    5  501    0  0.51593084570E+02  0.20885289479E+02  0.15802486618E+03  0.16760665268E+03  0.47000000000E+01 0. -1.
        -13    1    6    6    0    0  0.29980461602E+00  0.58860141962E+01 -0.55665332497E+01  0.81068698241E+01  0.00000000000E+00 0.  1.
         14    1    6    6    0    0 -0.46816821214E+02 -0.78377353084E+02  0.19298848035E+03  0.21349327337E+03  0.00000000000E+00 0. -1.
         -5    1    3    3    0  503 -0.34137516219E+02  0.43692488707E+02  0.16001656149E+02  0.57901179457E+02  0.47000000000E+01 0.  1.
         11    1    4    4    0    0  0.12468620691E+02  0.68024164490E+00 -0.22128238650E+01  0.12681712033E+02  0.00000000000E+00 0. -1.
        -12    1    4    4    0    0  0.16592827557E+02  0.72333190571E+01  0.23604004425E+03  0.23673306766E+03  0.00000000000E+00 0.  1.
</event>
<event>
12    1  0.8691829E-002  0.1932468E+03  0.7818608E-02  0.1155881E+00
         21   -1    0    0  501  502  0.00000000000E+00  0.00000000000E+00  0.30429489091E+03  0.30429489091E+03  0.00000000000E+00 0. -1.
         21   -1    0    0  502  503 -0.00000000000E+00 -0.00000000000E+00 -0.16377071193E+03  0.16377071193E+03  0.00000000000E+00 0. -1.
         -6    2    1    2    0  503 -0.77559182596E+02  0.37182261372E+02 -0.47992592212E+02  0.19911704633E+03  0.17305017153E+03 0.  0.
        -24    2    3    3    0    0  0.10748840691E+02  0.30511427574E+02  0.18046218603E+02  0.88545704952E+02  0.80425064941E+02 0.  0.
          6    2    1    2  501    0  0.77559182596E+02 -0.37182261372E+02  0.18851677119E+03  0.26894855651E+03  0.17145496687E+03 0.  0.
         24    2    5    5    0    0  0.99517674718E+02 -0.64595379998E+02  0.18361037860E+03  0.23317402455E+03  0.81123510132E+02 0.  0.
          5    1    5    5  501    0 -0.21958492122E+02  0.27413118626E+02  0.49063925925E+01  0.35774531965E+02  0.47000000000E+01 0. -1.
        -11    1    6    6    0    0  0.36637269080E+02  0.17261325623E+02  0.52725156449E+02  0.66484471649E+02  0.00000000000E+00 0.  1.
         12    1    6    6    0    0  0.62880405638E+02 -0.81856705621E+02  0.13088522215E+03  0.16668955290E+03  0.00000000000E+00 0. -1.
         -5    1    3    3    0  503 -0.88308023287E+02  0.66708337979E+01 -0.66038810815E+02  0.11057134138E+03  0.47000000000E+01 0.  1.
         13    1    4    4    0    0  0.30499443337E+02  0.28367080301E+02 -0.19558537543E+02  0.46015689493E+02  0.00000000000E+00 0. -1.
        -14    1    4    4    0    0 -0.19750602646E+02  0.21443472731E+01  0.37604756146E+02  0.42530015459E+02  0.00000000000E+00 0.  1.
</event>
<event>
12    1  0.8691829E-002  0.1843975E+03  0.7818608E-02  0.1164999E+00
         21   -1    0    0  503  502  0.00000000000E+00  0.00000000000E+00  0.16911294636E+03  0.16911294636E+03  0.00000000000E+00 0. -1.
         21   -1    0    0  501  503 -0.00000000000E+00 -0.00000000000E+00 -0.19480413540E+03  0.19480413540E+03  0.00000000000E+00 0. -1.
          6    2    1    2  501    0 -0.44690172521E+02 -0.53296423938E+01 -0.14726300339E+02  0.17919389631E+03  0.17282352833E+03 0.  0.
         24    2    3    3    0    0  0.12549918388E+02  0.47911411079E+02 -0.35249587827E+01  0.10008259601E+03  0.86897047862E+02 0.  0.
         -6    2    1    2    0  502  0.44690172521E+02  0.53296423938E+01 -0.10964888702E+02  0.18472318544E+03  0.17882060801E+03 0.  0.
        -24    2    5    5    0    0  0.31091247623E+02  0.72160680610E+02  0.11321640110E+02  0.11281979335E+03  0.80164186099E+02 0.  0.
          5    1    3    3  501    0 -0.57240090909E+02 -0.53241053472E+02 -0.11201341556E+02  0.79111300297E+02  0.47000000000E+01 0. -1.
        -11    1    4    4    0    0  0.43083263384E+02  0.97492262664E+01  0.16653002328E+02  0.47207388014E+02  0.00000000000E+00 0.  1.
         12    1    4    4    0    0 -0.30533344996E+02  0.38162184812E+02 -0.20177961111E+02  0.52875207999E+02  0.00000000000E+00 0. -1.
         -5    1    5    5    0  502  0.13598924898E+02 -0.66831038216E+02 -0.22286528812E+02  0.71903392090E+02  0.47000000000E+01 0.  1.
         11    1    6    6    0    0  0.54870522837E+02  0.28937985057E+02 -0.72575273395E+00  0.62037955903E+02  0.00000000000E+00 0. -1.
        -12    1    6    6    0    0 -0.23779275214E+02  0.43222695553E+02  0.12047392844E+02  0.50781837451E+02  0.00000000000E+00 0.  1.
</event>
<event>
12    1  0.8691829E-002  0.2131594E+03  0.7818608E-02  0.1139208E+00
         21   -1    0    0  501  502  0.00000000000E+00  0.00000000000E+00  0.21572558321E+03  0.21572558321E+03  0.00000000000E+00 0. -1.
         21   -1    0    0  502  503 -0.00000000000E+00 -0.00000000000E+00 -0.42578608013E+03  0.42578608013E+03  0.00000000000E+00 0.  1.
         -6    2    1    2    0  503  0.10610259577E+03 -0.67061635873E+02 -0.33329210584E+03  0.39529437905E+03  0.17151966201E+03 0.  0.
        -24    2    3    3    0    0  0.35669792495E+02 -0.78818241803E+01 -0.26842918278E+03  0.28263418786E+03  0.80581640181E+02 0.  0.
          6    2    1    2  501    0 -0.10610259577E+03  0.67061635873E+02  0.12323160892E+03  0.24621728429E+03  0.17228435161E+03 0.  0.
         24    2    5    5    0    0 -0.11408975544E+03  0.13620128233E+02  0.13232229812E+03  0.19122164730E+03  0.76515015686E+02 0.  0.
          5    1    5    5  501    0  0.79871596708E+01  0.53441507639E+02 -0.90906891974E+01  0.54995636995E+02  0.47000000000E+01 0. -1.
        -11    1    6    6    0    0 -0.46321841025E+02 -0.19487298159E+02  0.16285735388E+02  0.52827009404E+02  0.00000000000E+00 0.  1.
         12    1    6    6    0    0 -0.67767914413E+02  0.33107426392E+02  0.11603656273E+03  0.13839463789E+03  0.00000000000E+00 0. -1.
         -5    1    3    3    0  503  0.70432803272E+02 -0.59179811692E+02 -0.64862923065E+02  0.11266019118E+03  0.47000000000E+01 0.  1.
         11    1    4    4    0    0  0.34489278017E+02  0.69794695625E+01 -0.38254446273E+02  0.51977167614E+02  0.00000000000E+00 0. -1.
        -12    1    4    4    0    0  0.11805144785E+01 -0.14861293743E+02 -0.23017473650E+03  0.23065702025E+03  0.00000000000E+00 0.  1.
</event>
<event>
12    1  0.8691829E-002  0.2202724E+03  0.7818608E-02  0.1133756E+00
         21   -1    0    0  501  502  0.00000000000E+00  0.00000000000E+00  0.45054305420E+03  0.45054305420E+03  0.00000000000E+00 0.  1.
         21   -1    0    0  502  503 -0.00000000000E+00 -0.00000000000E+00 -0.11961598933E+03  0.11961598933E+03  0.00000000000E+00 0.  1.
         -6    2    1    2    0  503  0.74599284892E+02  0.11459082713E+03  0.74567897265E+02  0.23216503754E+03  0.17217468566E+03 0.  0.
        -24    2    3    3    0    0  0.98989152405E+02  0.13301252753E+03  0.80697855313E+02  0.20063899959E+03  0.79073886525E+02 0.  0.
          6    2    1    2  501    0 -0.74599284892E+02 -0.11459082713E+03  0.25635916760E+03  0.33799400600E+03  0.17269572753E+03 0.  0.
         24    2    5    5    0    0 -0.74015195432E+02 -0.14841905504E+03  0.23216096776E+03  0.29613312880E+03  0.79307313467E+02 0.  0.
          5    1    5    5  501    0 -0.58408946007E+00  0.33828227907E+02  0.24198199838E+02  0.41860877191E+02  0.47000000000E+01 0. -1.
        -13    1    6    6    0    0  0.42372047310E+01 -0.73983003370E+02  0.11480931939E+03  0.13664779000E+03  0.00000000000E+00 0.  1.
         14    1    6    6    0    0 -0.78252400163E+02 -0.74436051668E+02  0.11735164837E+03  0.15948533881E+03  0.00000000000E+00 0. -1.
         -5    1    3    3    0  503 -0.24389867513E+02 -0.18421700402E+02 -0.61299580477E+01  0.31526037947E+02  0.47000000000E+01 0.  1.
         11    1    4    4    0    0  0.60319457382E+02  0.20511169168E+02  0.38358040398E+02  0.74367225729E+02  0.00000000000E+00 0. -1.
        -12    1    4    4    0    0  0.38669695023E+02  0.11250135837E+03  0.42339814914E+02  0.12627177386E+03  0.00000000000E+00 0.  1.
</event>
<event>
12    1  0.8691829E-002  0.1804581E+03  0.7818608E-02  0.1167369E+00
         21   -1    0    0  501  502  0.00000000000E+00  0.00000000000E+00  0.16985652334E+04  0.16985652334E+04  0.00000000000E+00 0.  1.
         21   -1    0    0  502  503 -0.00000000000E+00 -0.00000000000E+00 -0.28754450991E+02  0.28754450991E+02  0.00000000000E+00 0.  1.
         -6    2    1    2    0  503  0.20853745289E+02 -0.48738885129E+02  0.33618385798E+03  0.38153890197E+03  0.17245866094E+03 0.  0.
        -24    2    3    3    0    0 -0.10469078074E+02 -0.93898622697E+02  0.25818490743E+03  0.28600646010E+03  0.78826999559E+02 0.  0.
          6    2    1    2  501    0 -0.20853745289E+02  0.48738885129E+02  0.13336269244E+04  0.13457807824E+04  0.17249574823E+03 0.  0.
         24    2    5    5    0    0  0.12509505202E+02 -0.25801095687E+02  0.92157664400E+03  0.92568931759E+03  0.82310495523E+02 0.  0.
          5    1    5    5  501    0 -0.33363250491E+02  0.74539980817E+02  0.41205028038E+03  0.42009146479E+03  0.47000000000E+01 0. -1.
        -11    1    6    6    0    0 -0.24368993625E+02 -0.39512156380E+02  0.57979551887E+03  0.58165101397E+03  0.00000000000E+00 0.  1.
         12    1    6    6    0    0  0.36878498828E+02  0.13711060692E+02  0.34178112513E+03  0.34403830362E+03  0.00000000000E+00 0. -1.
         -5    1    3    3    0  503  0.31322823363E+02  0.45159737568E+02  0.77998950553E+02  0.95532441861E+02  0.47000000000E+01 0.  1.
         11    1    4    4    0    0  0.97971993831E+01 -0.49610111766E+02  0.21514937135E+03  0.22101221753E+03  0.00000000000E+00 0. -1.
        -12    1    4    4    0    0 -0.20266277457E+02 -0.44288510931E+02  0.43035536071E+02  0.64994242571E+02  0.00000000000E+00 0.  1.
</event>
<event>
12    1  0.8691829E-002  0.1889747E+03  0.7818608E-02  0.1159457E+00
         21   -1    0    0  501  502  0.00000000000E+00  0.00000000000E+00  0.15783207828E+03  0.15783207828E+03  0.00000000000E+00 0. -1.
         21   -1    0    0  502  503 -0.00000000000E+00 -0.00000000000E+00 -0.24210776444E+03  0.24210776444E+03  0.00000000000E+00 0.  1.
         -6    2    1    2    0  503  0.75255497997E+02  0.30735607784E+01 -0.93837740134E+02  0.21072342280E+03  0.17299133704E+03 0.  0.
        -24    2    3    3    0    0  0.80598002212E+02  0.14571151103E+02  0.11909135656E+01  0.11473763240E+03  0.80342701032E+02 0.  0.
          6    2    1    2  501    0 -0.75255497997E+02 -0.30735607784E+01  0.95620539693E+01  0.18921641992E+03  0.17331642720E+03 0.  0.
         24    2    5    5    0    0 -0.79079235146E+02 -0.54049414254E+02 -0.23581937050E+02  0.12811181499E+03  0.81741450756E+02 0.  0.
          5    1    5    5  501    0  0.38237371490E+01  0.50975853476E+02  0.33143991020E+02  0.61104604934E+02  0.47000000000E+01 0. -1.
        -13    1    6    6    0    0 -0.12700426219E+02 -0.40726561562E+02 -0.39963612906E+02  0.58455487333E+02  0.00000000000E+00 0.  1.
         14    1    6    6    0    0 -0.66378808927E+02 -0.13322852693E+02  0.16381675856E+02  0.69656327654E+02  0.00000000000E+00 0. -1.
         -5    1    3    3    0  503 -0.53425042156E+01 -0.11497590325E+02 -0.95028653700E+02  0.95985790399E+02  0.47000000000E+01 0.  1.
         13    1    4    4    0    0  0.47711865051E+02  0.21832653538E+02  0.38046392605E+02  0.64812150230E+02  0.00000000000E+00 0. -1.
        -14    1    4    4    0    0  0.32886137161E+02 -0.72615024343E+01 -0.36855479039E+02  0.49925482173E+02  0.00000000000E+00 0.  1.
</event>
<event>
12    1  0.8691829E-002  0.2143341E+03  0.7818608E-02  0.1138684E+00
         21   -1    0    0  501  502  0.00000000000E+00  0.00000000000E+00  0.47587250526E+02  0.47587250526E+02  0.00000000000E+00 0.  1.
         21   -1    0    0  502  503 -0.00000000000E+00 -0.00000000000E+00 -0.95496928618E+03  0.95496928618E+03  0.00000000000E+00 0. -1.
         -6    2    1    2    0  503 -0.46980077150E+02 -0.11922411472E+03 -0.46939721428E+03  0.51494008685E+03  0.16854682167E+03 0.  0.
        -24    2    3    3    0    0 -0.12556760201E+02 -0.65980819538E+01 -0.27921120743E+03  0.29119381267E+03  0.81447721113E+02 0.  0.
          6    2    1    2  501    0  0.46980077150E+02  0.11922411472E+03 -0.43798482138E+03  0.48761644986E+03  0.17180681370E+03 0.  0.
         24    2    5    5    0    0 -0.93653628905E+01  0.61828123661E+02 -0.10725312241E+03  0.14721278491E+03  0.79107173365E+02 0.  0.
          5    1    5    5  501    0  0.56345440041E+02  0.57395991062E+02 -0.33073169897E+03  0.34040366495E+03  0.47000000000E+01 0. -1.
        -13    1    6    6    0    0  0.31422385765E+02  0.44989504807E+02 -0.45340447494E+02  0.71184113740E+02  0.00000000000E+00 0.  1.
         14    1    6    6    0    0 -0.40787748655E+02  0.16838618853E+02 -0.61912674911E+02  0.76028671171E+02  0.00000000000E+00 0. -1.
         -5    1    3    3    0  503 -0.34423316950E+02 -0.11262603277E+03 -0.19018600685E+03  0.22374627418E+03  0.47000000000E+01 0.  1.
         11    1    4    4    0    0 -0.46550570163E+02 -0.35845250884E+01 -0.19067927580E+03  0.19631197269E+03  0.00000000000E+00 0. -1.
        -12    1    4    4    0    0  0.33993809962E+02 -0.30135568653E+01 -0.88531931625E+02  0.94881839980E+02  0.00000000000E+00 0.  1.
</event>
<event>
12    1  0.8691829E-002  0.2820753E+03  0.7818608E-02  0.1094738E+00
         21   -1    0    0  503  502  0.00000000000E+00  0.00000000000E+00  0.47739632244E+03  0.47739632244E+03  0.00000000000E+00 0. -1.
         21   -1    0    0  501  503 -0.00000000000E+00 -0.00000000000E+00 -0.16941296776E+03  0.16941296776E+03  0.00000000000E+00 0.  1.
          6    2    1    2  501    0  0.16247484287E+03 -0.15209202071E+03  0.10774555780E+03  0.30195298843E+03  0.17331025551E+03 0.  0.
         24    2    3    3    0    0  0.46258194609E+02 -0.12378558923E+03  0.28305877080E+02  0.15828560776E+03  0.82403994303E+02 0.  0.
         -6    2    1    2    0  502 -0.16247484287E+03  0.15209202071E+03  0.20023779688E+03  0.34485630177E+03  0.17117428616E+03 0.  0.
        -24    2    5    5    0    0 -0.65659257804E+02  0.59442664276E+02  0.17087195906E+03  0.20759158237E+03  0.77797623414E+02 0.  0.
          5    1    3    3  501    0  0.11621664826E+03 -0.28306431483E+02  0.79439680719E+02  0.14366738067E+03  0.47000000000E+01 0. -1.
        -11    1    4    4    0    0  0.35864422131E+02 -0.48845343392E+02 -0.25190451513E+02  0.65625324329E+02  0.00000000000E+00 0.  1.
         12    1    4    4    0    0  0.10393772479E+02 -0.74940245834E+02  0.53496328593E+02  0.92660283428E+02  0.00000000000E+00 0. -1.
         -5    1    5    5    0  502 -0.96815585068E+02  0.92649356434E+02  0.29365837821E+02  0.13726471939E+03  0.47000000000E+01 0.  1.
         13    1    6    6    0    0 -0.62905895962E+02  0.74183362602E+02  0.11952192047E+03  0.15409676345E+03  0.00000000000E+00 0. -1.
        -14    1    6    6    0    0 -0.27533618421E+01 -0.14740698326E+02  0.51350038584E+02  0.53494818919E+02  0.00000000000E+00 0.  1.
</event>
<event>
12    1  0.8691829E-002  0.2687861E+03  0.7818608E-02  0.1102468E+00
         21   -1    0    0  501  502  0.00000000000E+00  0.00000000000E+00  0.45409935888E+03  0.45409935888E+03  0.00000000000E+00 0.  1.
         21   -1    0    0  502  503 -0.00000000000E+00 -0.00000000000E+00 -0.15825504526E+03  0.15825504526E+03  0.00000000000E+00 0. -1.
         -6    2    1    2    0  503 -0.92367165555E+02  0.17942045961E+03  0.17507828855E+03  0.32077780113E+03  0.17754603904E+03 0.  0.
        -24    2    3    3    0    0 -0.95925763965E+02  0.19545603903E+03  0.11207789479E+03  0.25550190173E+03  0.72903716632E+02 0.  0.
          6    2    1    2  501    0  0.92367165555E+02 -0.17942045961E+03  0.12076602506E+03  0.29157660301E+03  0.17236324437E+03 0.  0.
         24    2    5    5    0    0  0.43314169398E+02 -0.71355716911E+02  0.12857931958E+03  0.17255004035E+03  0.79203026423E+02 0.  0.
          5    1    5    5  501    0  0.49052996157E+02 -0.10806474270E+03 -0.78132945119E+01  0.11902656266E+03  0.47000000000E+01 0. -1.
        -13    1    6    6    0    0 -0.19907911210E+02 -0.49473146758E+01  0.10479394389E+02  0.23035159171E+02  0.00000000000E+00 0.  1.
         14    1    6    6    0    0  0.63222080608E+02 -0.66408402235E+02  0.11809992519E+03  0.14951488118E+03  0.00000000000E+00 0. -1.
         -5    1    3    3    0  503  0.35585984104E+01 -0.16035579416E+02  0.63000393759E+02  0.65275899409E+02  0.47000000000E+01 0.  1.
         11    1    4    4    0    0  0.67371280564E+01  0.56181203778E+02  0.27870280032E+02  0.63075106512E+02  0.00000000000E+00 0. -1.
        -12    1    4    4    0    0 -0.10266289202E+03  0.13927483525E+03  0.84207614761E+02  0.19242679521E+03  0.00000000000E+00 0.  1.
</event>
<event>
12    1  0.8691829E-002  0.2550600E+03  0.7818608E-02  0.1110521E+00
         21   -1    0    0  503  502  0.00000000000E+00  0.00000000000E+00  0.41450127153E+03  0.41450127153E+03  0.00000000000E+00 0. -1.
         21   -1    0    0  501  503 -0.00000000000E+00 -0.00000000000E+00 -0.18194791230E+03  0.18194791230E+03  0.00000000000E+00 0. -1.
          6    2    1    2  501    0  0.65028995060E+02  0.17478913170E+03  0.29847053504E+01  0.25507743040E+03  0.17399878240E+03 0.  0.
         24    2    3    3    0    0  0.52119045215E+02  0.64638125632E+02  0.60097835735E+02  0.13024189618E+03  0.80353714920E+02 0.  0.
         -6    2    1    2    0  502 -0.65028995060E+02 -0.17478913170E+03  0.22956865388E+03  0.34137175343E+03  0.17044910219E+03 0.  0.
        -24    2    5    5    0    0 -0.56137253701E+02 -0.18798436773E+03  0.14896893834E+03  0.25908213401E+03  0.80263901031E+02 0.  0.
          5    1    3    3  501    0  0.12909949845E+02  0.11015100606E+03 -0.57113130385E+02  0.12483553422E+03  0.47000000000E+01 0. -1.
        -11    1    4    4    0    0  0.14896716728E+01 -0.10700916706E+02 -0.10639475028E+02  0.15163349528E+02  0.00000000000E+00 0.  1.
         12    1    4    4    0    0  0.50629373542E+02  0.75339042338E+02  0.70737310764E+02  0.11507854665E+03  0.00000000000E+00 0. -1.
         -5    1    5    5    0  502 -0.88917413593E+01  0.13195236037E+02  0.80599715538E+02  0.82289619414E+02  0.47000000000E+01 0.  1.
         11    1    6    6    0    0 -0.38831162000E+02 -0.12364049246E+03  0.14174907528E+03  0.19206152884E+03  0.00000000000E+00 0. -1.
        -12    1    6    6    0    0 -0.17306091701E+02 -0.64343875271E+02  0.72198630630E+01  0.67020605171E+02  0.00000000000E+00 0.  1.
</event>
<event>
12    1  0.8691829E-002  0.1721370E+03  0.7818608E-02  0.1175657E+00
         21   -1    0    0  501  502  0.00000000000E+00  0.00000000000E+00  0.28215705985E+02  0.28215705985E+02  0.00000000000E+00 0.  1.
         21   -1    0    0  502  503 -0.00000000000E+00 -0.00000000000E+00 -0.22945096431E+04  0.22945096431E+04  0.00000000000E+00 0.  1.
         -6    2    1    2    0  503  0.79137848984E+00  0.30669539416E+01 -0.19884422136E+04  0.19958725624E+04  0.17203143871E+03 0.  0.
        -24    2    3    3    0    0  0.45634240429E+02  0.27146762812E+02 -0.71557071696E+03  0.72197513462E+03  0.79920043863E+02 0.  0.
          6    2    1    2  501    0 -0.79137848984E+00 -0.30669539416E+01 -0.27785172354E+03  0.32685278674E+03  0.17210790638E+03 0.  0.
         24    2    5    5    0    0  0.76370575206E+01  0.47687729564E+02 -0.25259122832E+03  0.26934401306E+03  0.80071371595E+02 0.  0.
          5    1    5    5  501    0 -0.84284360104E+01 -0.50754683506E+02 -0.25260495219E+02  0.57508773679E+02  0.47000000000E+01 0. -1.
        -13    1    6    6    0    0 -0.27467209006E+01  0.66922408170E+02 -0.14737554868E+03  0.16188176408E+03  0.00000000000E+00 0.  1.
         14    1    6    6    0    0  0.10383778421E+02 -0.19234678605E+02 -0.10521567963E+03  0.10746224898E+03  0.00000000000E+00 0. -1.
         -5    1    3    3    0  503 -0.44842861939E+02 -0.24079808870E+02 -0.12728714966E+04  0.12738974277E+04  0.47000000000E+01 0.  1.
         13    1    4    4    0    0  0.42622609685E+02  0.43574153004E+02 -0.67946788102E+03  0.68219644898E+03  0.00000000000E+00 0. -1.
        -14    1    4    4    0    0  0.30116307447E+01 -0.16427390192E+02 -0.36102835936E+02  0.39778685636E+02  0.00000000000E+00 0.  1.
</event>
<event>
12    1  0.8691829E-002  0.2140749E+03  0.7818608E-02  0.1139609E+00
         21   -1    0    0  503  502  0.00000000000E+00  0.00000000000E+00  0.84147913008E+02  0.84147913008E+02  0.00000000000E+00 0.  1.
         21   -1    0    0  501  503 -0.00000000000E+00 -0.00000000000E+00 -0.55571977665E+03  0.55571977665E+03  0.00000000000E+00 0.  1.
          6    2    1    2  501    0  0.12509844301E+03  0.18333995301E+02 -0.30288843012E+03  0.36732016525E+03  0.16491496862E+03 0.  0.
         24    2    3    3    0    0  0.93061308712E+01 -0.26149239016E+02 -0.12631800885E+03  0.15148267696E+03  0.78869355813E+02 0.  0.
         -6    2    1    2    0  502 -0.12509844301E+03 -0.18333995301E+02 -0.16868343353E+03  0.27254752441E+03  0.17274923007E+03 0.  0.
        -24    2    5    5    0    0 -0.41734459508E+02 -0.54272684461E+02 -0.14378427486E+03  0.17829678847E+03  0.80178162186E+02 0.  0.
          5    1    3    3  501    0  0.11579231214E+03  0.44483234317E+02 -0.17657042127E+03  0.21583748829E+03  0.47000000000E+01 0. -1.
        -11    1    4    4    0    0  0.31099969681E+02 -0.44955463462E+02 -0.87125083762E+02  0.10285417848E+03  0.00000000000E+00 0.  1.
         12    1    4    4    0    0 -0.21793838810E+02  0.18806224446E+02 -0.39192925088E+02  0.48628498485E+02  0.00000000000E+00 0. -1.
         -5    1    5    5    0  502 -0.83363983500E+02  0.35938689161E+02 -0.24899158669E+02  0.94250735944E+02  0.47000000000E+01 0.  1.
         13    1    6    6    0    0  0.37828302478E+01 -0.76417856876E+01 -0.98676399625E+02  0.99044124188E+02  0.00000000000E+00 0. -1.
        -14    1    6    6    0    0 -0.45517289756E+02 -0.46630898774E+02 -0.45107875235E+02  0.79252664280E+02  0.00000000000E+00 0.  1.
</event>
<event>
12    1  0.8691829E-002  0.2284750E+03  0.7818608E-02  0.1127853E+00
         21   -1    0    0  501  502  0.00000000000E+00  0.00000000000E+00  0.17728259048E+03  0.17728259048E+03  0.00000000000E+00 0.  1.
         21   -1    0    0  502  503 -0.00000000000E+00 -0.00000000000E+00 -0.30226466124E+03  0.30226466124E+03  0.00000000000E+00 0.  1.
         -6    2    1    2    0  503  0.11661593592E+03  0.96635886194E+02 -0.21687717597E+02  0.22950200038E+03  0.17106443252E+03 0.  0.
        -24    2    3    3    0    0  0.13766905534E+03  0.41764138935E+02  0.62302119579E+01  0.16426670874E+03  0.79042545245E+02 0.  0.
          6    2    1    2  501    0 -0.11661593592E+03 -0.96635886194E+02 -0.10329435316E+03  0.25004525134E+03  0.17004450392E+03 0.  0.
         24    2    5    5    0    0 -0.55538917212E+02 -0.43157483440E+02 -0.12742246973E+03  0.16522427643E+03  0.78201253362E+02 0.  0.
          5    1    5    5  501    0 -0.61077018708E+02 -0.53478402754E+02  0.24128116574E+02  0.84820974911E+02  0.47000000000E+01 0. -1.
        -13    1    6    6    0    0 -0.26892031661E+02 -0.53613307138E+02 -0.38635334980E+02  0.71346038279E+02  0.00000000000E+00 0.  1.
         14    1    6    6    0    0 -0.28646885551E+02  0.10455823698E+02 -0.88787134750E+02  0.93878238150E+02  0.00000000000E+00 0. -1.
         -5    1    3    3    0  503 -0.21053119424E+02  0.54871747259E+02 -0.27917929555E+02  0.65235291640E+02  0.47000000000E+01 0.  1.
         11    1    4    4    0    0  0.48565990828E+01  0.74312680889E+01 -0.22433081131E+02  0.24125783491E+02  0.00000000000E+00 0. -1.
        -12    1    4    4    0    0  0.13281245626E+03  0.34332870846E+02  0.28663293089E+02  0.14014092525E+03  0.00000000000E+00 0.  1.
</event>
<event>
12    1  0.8691829E-002  0.1795118E+03  0.7818608E-02  0.1168403E+00
         21   -1    0    0  503  502  0.00000000000E+00  0.00000000000E+00  0.32502944633E+04  0.32502944633E+04  0.00000000000E+00 0. -1.
         21   -1    0    0  501  503 -0.00000000000E+00 -0.00000000000E+00 -0.11892714773E+02  0.11892714773E+02  0.00000000000E+00 0. -1.
          6    2    1    2  501    0 -0.47550662510E+02  0.20793080658E+02  0.95107147941E+03  0.96786436916E+03  0.17184603702E+03 0.  0.
         24    2    3    3    0    0 -0.10611993078E+02  0.64409459218E+02  0.79083163773E+03  0.79767109480E+03  0.81260712553E+02 0.  0.
         -6    2    1    2    0  502  0.47550662510E+02 -0.20793080658E+02  0.22873302691E+04  0.22943228089E+04  0.17130082823E+03 0.  0.
        -24    2    5    5    0    0  0.75812605719E+02 -0.27312665444E+02  0.21827379576E+04  0.21856817299E+04  0.79787843635E+02 0.  0.
          5    1    3    3  501    0 -0.36938669431E+02 -0.43616378561E+02  0.16023984168E+03  0.17019327436E+03  0.47000000000E+01 0. -1.
        -11    1    4    4    0    0  0.87266997707E+01 -0.11034170742E+02  0.33036563867E+03  0.33066503206E+03  0.00000000000E+00 0.  1.
         12    1    4    4    0    0 -0.19338692849E+02  0.75443629961E+02  0.46046599906E+03  0.46700606273E+03  0.00000000000E+00 0. -1.
         -5    1    5    5    0  502 -0.28261943209E+02  0.65195847866E+01  0.10459231152E+03  0.10864107901E+03  0.47000000000E+01 0.  1.
         13    1    6    6    0    0  0.69855500523E+02 -0.23606614201E+02  0.92821913318E+03  0.93114328778E+03  0.00000000000E+00 0. -1.
        -14    1    6    6    0    0  0.59571051958E+01 -0.37060512428E+01  0.12545188244E+04  0.12545384421E+04  0.00000000000E+00 0.  1.
</event>
<event>
12    1  0.8691829E-002  0.2095450E+03  0.7818608E-02  0.1142547E+00
         21   -1    0    0  503  502  0.00000000000E+00  0.00000000000E+00  0.49700048803E+03  0.49700048803E+03  0.00000000000E+00 0. -1.
         21   -1    0    0  501  503 -0.00000000000E+00 -0.00000000000E+00 -0.10286074876E+03  0.10286074876E+03  0.00000000000E+00 0.  1.
          6    2    1    2  501    0  0.11060282804E+03  0.47847323575E+02  0.80713096861E+02  0.22455226147E+03  0.17142567539E+03 0.  0.
         24    2    3    3    0    0  0.63264993619E+02  0.97599319302E+02  0.61208577564E+02  0.15300753477E+03  0.78337278367E+02 0.  0.
         -6    2    1    2    0  502 -0.11060282804E+03 -0.47847323575E+02  0.31342664241E+03  0.37530897532E+03  0.16762522137E+03 0.  0.
        -24    2    5    5    0    0 -0.22350938503E+02 -0.46658881971E+02  0.22972092931E+03  0.25357752989E+03  0.94091671177E+02 0.  0.
          5    1    3    3  501    0  0.47337834423E+02 -0.49751995728E+02  0.19504519297E+02  0.71544726708E+02  0.47000000000E+01 0. -1.
        -13    1    4    4    0    0  0.68914087571E+02  0.53641697126E+02  0.14334557257E+02  0.88498941621E+02  0.00000000000E+00 0.  1.
         14    1    4    4    0    0 -0.56490939519E+01  0.43957622177E+02  0.46874020307E+02  0.64508593146E+02  0.00000000000E+00 0. -1.
         -5    1    5    5    0  502 -0.88251889539E+02 -0.11884416039E+01  0.83705713102E+02  0.12173144543E+03  0.47000000000E+01 0.  1.
         13    1    6    6    0    0 -0.36141187731E+02  0.53619015436E+01  0.16691788897E+03  0.17086988353E+03  0.00000000000E+00 0. -1.
        -14    1    6    6    0    0  0.13790249227E+02 -0.52020783514E+02  0.62803040336E+02  0.82707646362E+02  0.00000000000E+00 0.  1.
</event>
<event>
12    1  0.8691829E-002  0.1757649E+03  0.7818608E-02  0.1172484E+00
         21   -1    0    0  503  502  0.00000000000E+00  0.00000000000E+00  0.46905456733E+02  0.46905456733E+02  0.00000000000E+00 0. -1.
         21   -1    0    0  501  503 -0.00000000000E+00 -0.00000000000E+00 -0.67404131445E+03  0.67404131445E+03  0.00000000000E+00 0. -1.
          6    2    1    2  501    0 -0.24614295202E+01 -0.41196773530E+02 -0.24860422066E+03  0.30446238853E+03  0.17085097223E+03 0.  0.
         24    2    3    3    0    0  0.34830424998E+02  0.17871485157E+02 -0.14515823042E+03  0.17955080182E+03  0.98158189097E+02 0.  0.
         -6    2    1    2    0  502  0.24614295202E+01  0.41196773530E+02 -0.37853163705E+03  0.41648438265E+03  0.16872998536E+03 0.  0.
        -24    2    5    5    0    0 -0.55864252782E+02  0.15887727685E+02 -0.15310010882E+03  0.18221125799E+03  0.79925368862E+02 0.  0.
          5    1    3    3  501    0 -0.37291854518E+02 -0.59068258687E+02 -0.10344599024E+03  0.12491158671E+03  0.47000000000E+01 0. -1.
        -13    1    4    4    0    0  0.20681373254E+02  0.21827303662E+02  0.34064724010E+01  0.30261434848E+02  0.00000000000E+00 0.  1.
         14    1    4    4    0    0  0.14149051743E+02 -0.39558185049E+01 -0.14856470282E+03  0.14928936697E+03  0.00000000000E+00 0. -1.
         -5    1    5    5    0  502  0.58325682302E+02  0.25309045845E+02 -0.22543152824E+03  0.23427312467E+03  0.47000000000E+01 0.  1.
         11    1    6    6    0    0  0.12863297801E+02  0.15422366155E+02 -0.79264615109E+01  0.21590335806E+02  0.00000000000E+00 0. -1.
        -12    1    6    6    0    0 -0.68727550582E+02  0.46536153027E+00 -0.14517364731E+03  0.16062092218E+03  0.00000000000E+00 0.  1.
</event>
<event>
12    1  0.8691829E-002  0.3307182E+03  0.7818608E-02  0.1071018E+00
         21   -1    0    0  501  502  0.00000000000E+00  0.00000000000E+00  0.45023768330E+03  0.45023768330E+03  0.00000000000E+00 0.  1.
         21   -1    0    0  502  503 -0.00000000000E+00 -0.00000000000E+00 -0.24247920941E+03  0.24247920941E+03  0.00000000000E+00 0. -1.
         -6    2    1    2    0  503 -0.79255365336E+02 -0.26870305992E+03  0.83459839784E+02  0.34108660440E+03  0.17576057437E+03 0.  0.
        -24    2    3    3    0    0 -0.91691635151E+02 -0.87531611997E+02  0.58778399686E+02  0.15775898010E+03  0.73238353857E+02 0.  0.
          6    2    1    2  501    0  0.79255365336E+02  0.26870305992E+03  0.12429863411E+03  0.35163028831E+03  0.17236868007E+03 0.  0.
         24    2    5    5    0    0  0.54064584178E+02  0.65435377399E+02  0.11561080808E+02  0.11778381701E+03  0.80836879475E+02 0.  0.
          5    1    5    5  501    0  0.25190781158E+02  0.20326768252E+03  0.11273755330E+03  0.23384647129E+03  0.47000000000E+01 0. -1.
        -13    1    6    6    0    0 -0.13618851192E+02 -0.10821879686E+00  0.18882812417E+02  0.23281868994E+02  0.00000000000E+00 0.  1.
         14    1    6    6    0    0  0.67683435370E+02  0.65543596196E+02 -0.73217316086E+01  0.94501948020E+02  0.00000000000E+00 0. -1.
         -5    1    3    3    0  503  0.12436269815E+02 -0.18117144792E+03  0.24681440098E+02  0.18332762431E+03  0.47000000000E+01 0.  1.
         13    1    4    4    0    0 -0.69169369571E+01  0.11284080214E+02 -0.31181627638E+01  0.13597699149E+02  0.00000000000E+00 0. -1.
        -14    1    4    4    0    0 -0.84774698194E+02 -0.98815692211E+02  0.61896562450E+02  0.14416128095E+03  0.00000000000E+00 0.  1.
</event>
<event>
12    1  0.8691829E-002  0.2193974E+03  0.7818608E-02  0.1134434E+00
         21   -1    0    0  503  502  0.00000000000E+00  0.00000000000E+00  0.76985967490E+03  0.76985967490E+03  0.00000000000E+00 0.  1.
         21   -1    0    0  501  503 -0.00000000000E+00 -0.00000000000E+00 -0.13484058188E+03  0.13484058188E+03  0.00000000000E+00 0.  1.
          6    2    1    2  501    0  0.10223886363E+03  0.90754123425E+02 -0.13929926344E+02  0.21983921224E+03  0.17159877690E+03 0.  0.
         24    2    3    3    0    0  0.90330817481E+02  0.11756726294E+03  0.26921903723E+02  0.16932477832E+03  0.77229358096E+02 0.  0.
         -6    2    1    2    0  502 -0.10223886363E+03 -0.90754123425E+02  0.64894901936E+03  0.68486104455E+03  0.17091145207E+03 0.  0.
        -24    2    5    5    0    0 -0.33661135117E+02  0.11678286614E+02  0.18178238699E+03  0.20168193089E+03  0.79757824888E+02 0.  0.
          5    1    3    3  501    0  0.11908046148E+02 -0.26813139516E+02 -0.40851830068E+02  0.50514433914E+02  0.47000000000E+01 0. -1.
        -13    1    4    4    0    0  0.38925461418E+02  0.44137565344E+02 -0.26970662201E+02  0.64735869814E+02  0.00000000000E+00 0.  1.
         14    1    4    4    0    0  0.51405356063E+02  0.73429697597E+02  0.53892565924E+02  0.10458890851E+03  0.00000000000E+00 0. -1.
         -5    1    5    5    0  502 -0.68577728511E+02 -0.10243241004E+03  0.46716663237E+03  0.48317911366E+03  0.47000000000E+01 0.  1.
         11    1    6    6    0    0 -0.19055630757E+02  0.91649244230E+01  0.19443254718E+01  0.21234248392E+02  0.00000000000E+00 0. -1.
        -12    1    6    6    0    0 -0.14605504360E+02  0.25133621911E+01  0.17983806152E+03  0.18044768249E+03  0.00000000000E+00 0.  1.
</event>
<event>
12    1  0.8691829E-002  0.1789129E+03  0.7818608E-02  0.1168917E+00
         21   -1    0    0  501  502  0.00000000000E+00  0.00000000000E+00  0.10248048784E+03  0.10248048784E+03  0.00000000000E+00 0. -1.
         21   -1    0    0  502  503 -0.00000000000E+00 -0.00000000000E+00 -0.31681924826E+03  0.31681924826E+03  0.00000000000E+00 0. -1.
         -6    2    1    2    0  503  0.33849009918E+02 -0.34773207310E+02 -0.13311520774E+03  0.22281287171E+03  0.17196216400E+03 0.  0.
        -24    2    3    3    0    0  0.28109992360E+02 -0.80615604931E+02 -0.48601290806E+02  0.12638075103E+03  0.79504473676E+02 0.  0.
          6    2    1    2  501    0 -0.33849009918E+02  0.34773207310E+02 -0.81223552674E+02  0.19648686439E+03  0.17220595503E+03 0.  0.
         24    2    5    5    0    0  0.11775085890E+02  0.52396508398E+02 -0.10435943686E+03  0.14217758344E+03  0.80246659951E+02 0.  0.
          5    1    5    5  501    0 -0.45624095809E+02 -0.17623301088E+02  0.23135884182E+02  0.54309280942E+02  0.47000000000E+01 0. -1.
        -11    1    6    6    0    0 -0.26023123182E+02  0.52538994755E+02 -0.67016850415E+02  0.89043849589E+02  0.00000000000E+00 0.  1.
         12    1    6    6    0    0  0.37798209072E+02 -0.14248635645E+00 -0.37342586440E+02  0.53133733856E+02  0.00000000000E+00 0. -1.
         -5    1    3    3    0  503  0.57390175585E+01  0.45842397620E+02 -0.84513916937E+02  0.96432120677E+02  0.47000000000E+01 0.  1.
         11    1    4    4    0    0  0.29312746530E+02  0.36771868974E-01 -0.33153066946E+02  0.44253410143E+02  0.00000000000E+00 0. -1.
        -12    1    4    4    0    0 -0.12027541703E+01 -0.80652376800E+02 -0.15448223860E+02  0.82127340889E+02  0.00000000000E+00 0.  1.
</event>
<event>
12    1  0.8691829E-002  0.2215487E+03  0.7818608E-02  0.1132745E+00
         21   -1    0    0  503  502  0.00000000000E+00  0.00000000000E+00  0.49682872502E+03  0.49682872502E+03  0.00000000000E+00 0.  1.
         21   -1    0    0  501  503 -0.00000000000E+00 -0.00000000000E+00 -0.10959710599E+03  0.10959710599E+03  0.00000000000E+00 0.  1.
          6    2    1    2  501    0 -0.11991979560E+03 -0.72034268176E+02  0.98269614400E+02  0.24230652789E+03  0.17171442332E+03 0.  0.
         24    2    3    3    0    0 -0.15304239112E+03 -0.52865767514E+02  0.65069739534E+02  0.19142569218E+03  0.78695373245E+02 0.  0.
         -6    2    1    2    0  502  0.11991979560E+03  0.72034268176E+02  0.28896200463E+03  0.36411930311E+03  0.17179677999E+03 0.  0.
        -24    2    5    5    0    0  0.13856350867E+03  0.12582034942E+02  0.22865581450E+03  0.27727989592E+03  0.72405149259E+02 0.  0.
          5    1    3    3  501    0  0.33122595521E+02 -0.19168500662E+02  0.33199874867E+02  0.50880835713E+02  0.47000000000E+01 0. -1.
        -11    1    4    4    0    0 -0.34682534656E+01  0.25598134732E+01  0.27120012659E+02  0.27460453634E+02  0.00000000000E+00 0.  1.
         12    1    4    4    0    0 -0.14957413765E+03 -0.55425580987E+02  0.37949726874E+02  0.16396523855E+03  0.00000000000E+00 0. -1.
         -5    1    5    5    0  502 -0.18643713076E+02  0.59452233234E+02  0.60306190129E+02  0.86839407193E+02  0.47000000000E+01 0.  1.
         13    1    6    6    0    0  0.16744938848E+01 -0.16405911292E+02  0.30932818274E+02  0.35054202337E+02  0.00000000000E+00 0. -1.
        -14    1    6    6    0    0  0.13688901479E+03  0.28987946234E+02  0.19772299622E+03  0.24222569358E+03  0.00000000000E+00 0.  1.
</event>
<event>
12    1  0.8691829E-002  0.1900413E+03  0.7818608E-02  0.1160585E+00
         21   -1    0    0  503  502  0.00000000000E+00  0.00000000000E+00  0.46535933966E+03  0.46535933966E+03  0.00000000000E+00 0. -1.
         21   -1    0    0  501  503 -0.00000000000E+00 -0.00000000000E+00 -0.10674013807E+03  0.10674013807E+03  0.00000000000E+00 0. -1.
          6    2    1    2  501    0  0.22943341337E+02  0.51316550793E+02  0.23667724199E+02  0.19150944264E+03  0.18153765492E+03 0.  0.
         24    2    3    3    0    0 -0.44305791391E+02  0.53730792558E+02 -0.24824899511E+02  0.10843177434E+03  0.79316913906E+02 0.  0.
         -6    2    1    2    0  502 -0.22943341337E+02 -0.51316550793E+02  0.33495147739E+03  0.38059003509E+03  0.17174544333E+03 0.  0.
        -24    2    5    5    0    0  0.46820905493E+02 -0.23984332275E+02  0.24698941714E+03  0.26494612324E+03  0.80157536470E+02 0.  0.
          5    1    3    3  501    0  0.67249132728E+02 -0.24142417648E+01  0.48492623710E+02  0.83077668301E+02  0.47000000000E+01 0. -1.
        -13    1    4    4    0    0 -0.59084501089E+01 -0.50050294123E+01  0.22497864726E+02  0.23793150682E+02  0.00000000000E+00 0.  1.
         14    1    4    4    0    0 -0.38397341282E+02  0.58735821970E+02 -0.47322764237E+02  0.84638623660E+02  0.00000000000E+00 0. -1.
         -5    1    5    5    0  502 -0.69764246830E+02 -0.27332218518E+02  0.87962060245E+02  0.11564391185E+03  0.47000000000E+01 0.  1.
         13    1    6    6    0    0  0.28213089705E+02 -0.45423835536E+02  0.84516306842E+02  0.10001154627E+03  0.00000000000E+00 0. -1.
        -14    1    6    6    0    0  0.18607815788E+02  0.21439503261E+02  0.16247311030E+03  0.16493457697E+03  0.00000000000E+00 0.  1.
</event>
<event>
12    1  0.8691829E-002  0.2629938E+03  0.7818608E-02  0.1105747E+00
         21   -1    0    0  503  502  0.00000000000E+00  0.00000000000E+00  0.31141157308E+03  0.31141157308E+03  0.00000000000E+00 0.  1.
         21   -1    0    0  501  503 -0.00000000000E+00 -0.00000000000E+00 -0.28905589272E+03  0.28905589272E+03  0.00000000000E+00 0.  1.
          6    2    1    2  501    0 -0.46160802978E+02 -0.19085628950E+03 -0.13563380669E+03  0.29590925576E+03  0.17495375147E+03 0.  0.
         24    2    3    3    0    0 -0.89354017342E+02 -0.16694706261E+03 -0.13605883453E+03  0.24631514778E+03  0.79395739457E+02 0.  0.
         -6    2    1    2    0  502  0.46160802978E+02  0.19085628950E+03  0.15798948705E+03  0.30455821004E+03  0.17099146853E+03 0.  0.
        -24    2    5    5    0    0  0.36185639899E+02  0.29271473991E+02  0.92001094091E+02  0.12967049038E+03  0.78638508613E+02 0.  0.
          5    1    3    3  501    0  0.43193214364E+02 -0.23909226897E+02  0.42502783568E+00  0.49594107983E+02  0.47000000000E+01 0. -1.
        -11    1    4    4    0    0 -0.90099033420E+01 -0.59277644772E+02 -0.75967518069E+01  0.60437804113E+02  0.00000000000E+00 0.  1.
         12    1    4    4    0    0 -0.80344114000E+02 -0.10766941783E+03 -0.12846208272E+03  0.18587734367E+03  0.00000000000E+00 0. -1.
         -5    1    5    5    0  502  0.99751630788E+01  0.16158481551E+03  0.65988392962E+02  0.17488771966E+03  0.47000000000E+01 0.  1.
         13    1    6    6    0    0 -0.17586485017E+02  0.27063098449E+02  0.14662868164E+02  0.35449900644E+02  0.00000000000E+00 0. -1.
        -14    1    6    6    0    0  0.53772124916E+02  0.22083755425E+01  0.77338225927E+02  0.94220589736E+02  0.00000000000E+00 0.  1.
</event>
<event>
12    1  0.8691829E-002  0.1768539E+03  0.7818608E-02  0.1171451E+00
         21   -1    0    0  501  502  0.00000000000E+00  0.00000000000E+00  0.16431665902E+03  0.16431665902E+03  0.00000000000E+00 0.  1.
         21   -1    0    0  502  503 -0.00000000000E+00 -0.00000000000E+00 -0.28998046900E+03  0.28998046900E+03  0.00000000000E+00 0.  1.
         -6    2    1    2    0  503  0.85183947356E+01 -0.32923527621E+02 -0.19786242630E+03  0.26538057348E+03  0.17355341345E+03 0.  0.
        -24    2    3    3    0    0  0.16535269704E+02  0.45937077196E+02 -0.77728542415E+02  0.12137534672E+03  0.79414219637E+02 0.  0.
          6    2    1    2  501    0 -0.85183947356E+01  0.32923527621E+02  0.72198616325E+02  0.18891655454E+03  0.17123172212E+03 0.  0.
         24    2    5    5    0    0 -0.30841554846E+02  0.56559602298E+02 -0.90833620493E+01  0.10124764608E+03  0.77578271780E+02 0.  0.
          5    1    5    5  501    0  0.22323160110E+02 -0.23636074677E+02  0.81281978375E+02  0.87668908468E+02  0.47000000000E+01 0. -1.
        -11    1    6    6    0    0  0.82410609114E+01  0.37947220373E+02  0.24972786707E+02  0.46168676555E+02  0.00000000000E+00 0.  1.
         12    1    6    6    0    0 -0.39082615757E+02  0.18612381925E+02 -0.34056148756E+02  0.55078969520E+02  0.00000000000E+00 0. -1.
         -5    1    3    3    0  503 -0.80168749684E+01 -0.78860604816E+02 -0.12013388389E+03  0.14400522676E+03  0.47000000000E+01 0.  1.
         11    1    4    4    0    0 -0.72466371000E+01  0.15992948716E+02  0.13701145237E+02  0.22271271600E+02  0.00000000000E+00 0. -1.
        -12    1    4    4    0    0  0.23781906804E+02  0.29944128480E+02 -0.91429687652E+02  0.99104075122E+02  0.00000000000E+00 0.  1.
</event>
<event>
12    1  0.8691829E-002  0.1788957E+03  0.7818608E-02  0.1169010E+00
         21   -1    0    0  503  502  0.00000000000E+00  0.00000000000E+00  0.56918910559E+03  0.56918910559E+03  0.00000000000E+00 0.  1.
         21   -1    0    0  501  503 -0.00000000000E+00 -0.00000000000E+00 -0.17794589352E+03  0.17794589352E+03  0.00000000000E+00 0.  1.
          6    2    1    2  501    0  0.19875044664E+02 -0.44579034826E+02 -0.11346400231E+03  0.21184371708E+03  0.17210860786E+03 0.  0.
         24    2    3    3    0    0 -0.13591440756E+02  0.35233256788E+02 -0.76569590037E+02  0.11764554727E+03  0.80941108390E+02 0.  0.
         -6    2    1    2    0  502 -0.19875044664E+02  0.44579034826E+02  0.50470721438E+03  0.53529128203E+03  0.17153739132E+03 0.  0.
        -24    2    5    5    0    0 -0.12443660136E+02 -0.32430771492E+02  0.16463034134E+03  0.18649319528E+03  0.80436080071E+02 0.  0.
          5    1    3    3  501    0  0.33466485419E+02 -0.79812291614E+02 -0.36894412269E+02  0.94198169811E+02  0.47000000000E+01 0. -1.
        -13    1    4    4    0    0  0.43148359394E+01 -0.93058321927E+01 -0.68139386130E+02  0.68907127819E+02  0.00000000000E+00 0.  1.
         14    1    4    4    0    0 -0.17906276695E+02  0.44539088981E+02 -0.84302039067E+01  0.48738419448E+02  0.00000000000E+00 0. -1.
         -5    1    5    5    0  502 -0.74313845273E+01  0.77009806318E+02  0.34007687304E+03  0.34879808675E+03  0.47000000000E+01 0.  1.
         13    1    6    6    0    0 -0.46089759788E+02 -0.21605151960E+02  0.80545534489E+02  0.95281853858E+02  0.00000000000E+00 0. -1.
        -14    1    6    6    0    0  0.33646099651E+02 -0.10825619532E+02  0.84084806855E+02  0.91211341421E+02  0.00000000000E+00 0.  1.
</event>
<event>
12    1  0.8691829E-002  0.2389333E+03  0.7818608E-02  0.1120939E+00
         21   -1    0    0  503  502  0.00000000000E+00  0.00000000000E+00  0.24431488874E+03  0.24431488874E+03  0.00000000000E+00 0. -1.
         21   -1    0    0  501  503 -0.00000000000E+00 -0.00000000000E+00 -0.23962105960E+03  0.23962105960E+03  0.00000000000E+00 0.  1.
          6    2    1    2  501    0 -0.15221958495E+03 -0.55663249298E+02 -0.43135897494E+02  0.24026237080E+03  0.17203517606E+03 0.  0.
         24    2    3    3    0    0 -0.15446561883E+03  0.44102745075E+00 -0.93375592803E+01  0.17455733139E+03  0.80766639296E+02 0.  0.
         -6    2    1    2    0  502  0.15221958495E+03  0.55663249298E+02  0.47829726629E+02  0.24367357754E+03  0.17555606021E+03 0.  0.
        -24    2    5    5    0    0  0.83877876464E+02 -0.36113794056E+02  0.26054424025E+02  0.12709798571E+03  0.84471064156E+02 0.  0.
          5    1    3    3  501    0  0.22460338754E+01 -0.56104276749E+02 -0.33798338213E+02  0.65705039409E+02  0.47000000000E+01 0. -1.
        -11    1    4    4    0    0 -0.57342436386E+02  0.38448832905E+02 -0.12746199369E+02  0.70206362681E+02  0.00000000000E+00 0.  1.
         12    1    4    4    0    0 -0.97123182443E+02 -0.38007805455E+02  0.34086400888E+01  0.10435096871E+03  0.00000000000E+00 0. -1.
         -5    1    5    5    0  502  0.68341708491E+02  0.91777043354E+02  0.21775302604E+02  0.11657559183E+03  0.47000000000E+01 0.  1.
         13    1    6    6    0    0  0.20851022052E+02 -0.17578525298E+02  0.50180162550E+02  0.57112331294E+02  0.00000000000E+00 0. -1.
        -14    1    6    6    0    0  0.63026854412E+02 -0.18535268758E+02 -0.24125738525E+02  0.69985654419E+02  0.00000000000E+00 0.  1.
</event>
<event>
12    1  0.8691829E-002  0.1807953E+03  0.7818608E-02  0.1167285E+00
         21   -1    0    0  503  502  0.00000000000E+00  0.00000000000E+00  0.49090253842E+02  0.49090253842E+02  0.00000000000E+00 0.  1.
         21   -1    0    0  501  503 -0.00000000000E+00 -0.00000000000E+00 -0.67504248155E+03  0.67504248155E+03  0.00000000000E+00 0.  1.
          6    2    1    2  501    0  0.41279866749E+02  0.27225210938E+02 -0.36407196932E+03  0.40649151311E+03  0.17390144300E+03 0.  0.
         24    2    3    3    0    0  0.48037517737E+02  0.82598257973E+02 -0.25919287459E+03  0.28760688544E+03  0.80041857698E+02 0.  0.
         -6    2    1    2    0  502 -0.41279866749E+02 -0.27225210938E+02 -0.26188025839E+03  0.31764122228E+03  0.17282776643E+03 0.  0.
        -24    2    5    5    0    0 -0.43362813838E+02  0.16603394837E+02 -0.25755931661E+03  0.27330110624E+03  0.78744439505E+02 0.  0.
          5    1    3    3  501    0 -0.67576509879E+01 -0.55373047036E+02 -0.10487909472E+03  0.11888462767E+03  0.47000000000E+01 0. -1.
        -13    1    4    4    0    0  0.30707430557E+02 -0.50718902974E+01 -0.38500945152E+02  0.49507505898E+02  0.00000000000E+00 0.  1.
         14    1    4    4    0    0  0.17330087180E+02  0.87670148271E+02 -0.22069192944E+03  0.23809937955E+03  0.00000000000E+00 0. -1.
         -5    1    5    5    0  502  0.20829470893E+01 -0.43828605775E+02 -0.43209417721E+01  0.44340116041E+02  0.47000000000E+01 0.  1.
         13    1    6    6    0    0 -0.53722269957E+01 -0.56196206518E+01  0.35226943146E+01  0.85352407346E+01  0.00000000000E+00 0. -1.
        -14    1    6    6    0    0 -0.37990586843E+02  0.22223015489E+02 -0.26108201093E+03  0.26476586551E+03  0.00000000000E+00 0.  1.
</event>
<event>
12    1  0.8691829E-002  0.2369851E+03  0.7818608E-02  0.1121966E+00
         21   -1    0    0  503  502  0.00000000000E+00  0.00000000000E+00  0.54092401084E+02  0.54092401084E+02  0.00000000000E+00 0.  1.
         21   -1    0    0  501  503 -0.00000000000E+00 -0.00000000000E+00 -0.14130850474E+04  0.14130850474E+04  0.00000000000E+00 0. -1.
          6    2    1    2  501    0  0.15806078559E+03  0.39549529135E+02 -0.10583221675E+04  0.10843397675E+04  0.17087874107E+03 0.  0.
         24    2    3    3    0    0  0.32102230495E+02 -0.15959111570E+01 -0.23973995013E+03  0.25508863467E+03  0.81005356066E+02 0.  0.
         -6    2    1    2    0  502 -0.15806078559E+03 -0.39549529135E+02 -0.30067047889E+03  0.38283768097E+03  0.17208886048E+03 0.  0.
        -24    2    5    5    0    0 -0.24532999715E+02  0.18430973158E+02 -0.15430673790E+03  0.17635319506E+03  0.79676290071E+02 0.  0.
          5    1    3    3  501    0  0.12595855509E+03  0.41145440292E+02 -0.81858221732E+03  0.82925113287E+03  0.47000000000E+01 0. -1.
        -13    1    4    4    0    0  0.43685753692E+02 -0.26537401362E+02 -0.20215740718E+03  0.20851929413E+03  0.00000000000E+00 0.  1.
         14    1    4    4    0    0 -0.11583523197E+02  0.24941490205E+02 -0.37582542958E+02  0.46569340542E+02  0.00000000000E+00 0. -1.
         -5    1    5    5    0  502 -0.13352778587E+03 -0.57980502293E+02 -0.14636374099E+03  0.20648448591E+03  0.47000000000E+01 0.  1.
         13    1    6    6    0    0 -0.52480173666E+02  0.15071361709E+02 -0.79668711121E+02  0.96583736226E+02  0.00000000000E+00 0. -1.
        -14    1    6    6    0    0  0.27947173951E+02  0.33596114486E+01 -0.74638026780E+02  0.79769458833E+02  0.00000000000E+00 0.  1.
</event>
<event>
12    1  0.8691829E-002  0.1921642E+03  0.7818608E-02  0.1156761E+00
         21   -1    0    0  503  502  0.00000000000E+00  0.00000000000E+00  0.15741444503E+03  0.15741444503E+03  0.00000000000E+00 0. -1.
         21   -1    0    0  501  503 -0.00000000000E+00 -0.00000000000E+00 -0.23349706234E+03  0.23349706234E+03  0.00000000000E+00 0.  1.
          6    2    1    2  501    0  0.79052500758E+02  0.30971738014E+02 -0.32036702904E+02  0.19376401912E+03  0.17120046244E+03 0.  0.
         24    2    3    3    0    0  0.13546386612E+02 -0.26993953385E+02 -0.57777318498E+02  0.10246373620E+03  0.79046951826E+02 0.  0.
         -6    2    1    2    0  502 -0.79052500758E+02 -0.30971738014E+02 -0.44045914402E+02  0.19714748826E+03  0.17239067005E+03 0.  0.
        -24    2    5    5    0    0 -0.56162965805E+02  0.22231471482E+02 -0.80987255039E+02  0.12829064430E+03  0.79063499069E+02 0.  0.
          5    1    3    3  501    0  0.65506114146E+02  0.57965691398E+02  0.25740615595E+02  0.91300282918E+02  0.47000000000E+01 0. -1.
        -13    1    4    4    0    0  0.41648189258E+02 -0.30874353254E+02 -0.20806733895E+02  0.55863382754E+02  0.00000000000E+00 0.  1.
         14    1    4    4    0    0 -0.28101802646E+02  0.38803998691E+01 -0.36970584603E+02  0.46600353443E+02  0.00000000000E+00 0. -1.
         -5    1    5    5    0  502 -0.22889534953E+02 -0.53203209496E+02  0.36941340637E+02  0.68856843952E+02  0.47000000000E+01 0.  1.
         11    1    6    6    0    0 -0.42752409694E+01  0.21976047045E+02  0.92298698534E+01  0.24216003522E+02  0.00000000000E+00 0. -1.
        -12    1    6    6    0    0 -0.51887724835E+02  0.25542443727E+00 -0.90217124892E+02  0.10407464078E+03  0.00000000000E+00 0.  1.
</event>
<event>
12    1  0.8691829E-002  0.1941434E+03  0.7818608E-02  0.1155283E+00
         21   -1    0    0  501  502  0.00000000000E+00  0.00000000000E+00  0.10002140397E+04  0.10002140397E+04  0.00000000000E+00 0.  1.
         21   -1    0    0  502  503 -0.00000000000E+00 -0.00000000000E+00 -0.84132229417E+02  0.84132229417E+02  0.00000000000E+00 0.  1.
         -6    2    1    2    0  503 -0.80029455725E+02 -0.32680003354E+02  0.52069166931E+02  0.19879022570E+03  0.17127071929E+03 0.  0.
        -24    2    3    3    0    0 -0.10030151302E+02  0.40751579575E+02  0.15493742028E+02  0.90846019291E+02  0.79067363722E+02 0.  0.
          6    2    1    2  501    0  0.80029455725E+02  0.32680003354E+02  0.86401264334E+03  0.88555604340E+03  0.17383601972E+03 0.  0.
         24    2    5    5    0    0  0.88338433372E+02  0.66660894777E+02  0.45079742430E+03  0.47083608085E+03  0.78872958445E+02 0.  0.
          5    1    5    5  501    0 -0.83089776468E+01 -0.33980891423E+02  0.41321521904E+03  0.41471996255E+03  0.47000000000E+01 0. -1.
        -13    1    6    6    0    0  0.20057760246E+02  0.61787001195E+02  0.26448862758E+03  0.27234937375E+03  0.00000000000E+00 0.  1.
         14    1    6    6    0    0  0.68280673126E+02  0.48738935826E+01  0.18630879671E+03  0.19848670710E+03  0.00000000000E+00 0. -1.
         -5    1    3    3    0  503 -0.69999304423E+02 -0.73431582929E+02  0.36575424903E+02  0.10794420641E+03  0.47000000000E+01 0.  1.
         13    1    4    4    0    0  0.21543508880E+01  0.60221492305E+01  0.43894062278E+02  0.44357594754E+02  0.00000000000E+00 0. -1.
        -14    1    4    4    0    0 -0.12184502190E+02  0.34729430345E+02 -0.28400320249E+02  0.46488424537E+02  0.00000000000E+00 0.  1.
</event>
<event>
12    1  0.8691829E-002  0.1816072E+03  0.7818608E-02  0.1167926E+00
         21   -1    0    0  501  502  0.00000000000E+00  0.00000000000E+00  0.36559406560E+02  0.36559406560E+02  0.00000000000E+00 0. -1.
         21   -1    0    0  502  503 -0.00000000000E+00 -0.00000000000E+00 -0.96780845336E+03  0.96780845336E+03  0.00000000000E+00 0. -1.
         -6    2    1    2    0  503  0.20742888762E+02  0.10685979106E+02 -0.29674749066E+03  0.34438799854E+03  0.17320381849E+03 0.  0.
        -24    2    3    3    0    0  0.20412266952E+02 -0.15434502567E+02 -0.50727625754E+02  0.96940523703E+02  0.78544819113E+02 0.  0.
          6    2    1    2  501    0 -0.20742888762E+02 -0.10685979106E+02 -0.63450155614E+03  0.65997986139E+03  0.18010201305E+03 0.  0.
         24    2    5    5    0    0 -0.71853823822E+02  0.34205614516E+02 -0.39602589168E+03  0.41194696961E+03  0.80813382740E+02 0.  0.
          5    1    5    5  501    0  0.51110935060E+02 -0.44891593621E+02 -0.23847566446E+03  0.24803289177E+03  0.47000000000E+01 0. -1.
        -11    1    6    6    0    0 -0.16093002688E+02 -0.14837887328E+02 -0.23595635508E+02  0.32185426063E+02  0.00000000000E+00 0.  1.
         12    1    6    6    0    0 -0.55760821134E+02  0.49043501843E+02 -0.37243025617E+03  0.37976154355E+03  0.00000000000E+00 0. -1.
         -5    1    3    3    0  503  0.33062181015E+00  0.26120481672E+02 -0.24601986491E+03  0.24744747483E+03  0.47000000000E+01 0.  1.
         13    1    4    4    0    0  0.25368543614E+02 -0.28583271834E+02 -0.65950512737E+02  0.76223595849E+02  0.00000000000E+00 0. -1.
        -14    1    4    4    0    0 -0.49562766622E+01  0.13148769267E+02  0.15222886983E+02  0.20716927854E+02  0.00000000000E+00 0.  1.
</event>
<event>
12    1  0.8691829E-002  0.1953075E+03  0.7818608E-02  0.1154037E+00
         21   -1    0    0  501  502  0.00000000000E+00  0.00000000000E+00  0.22864531156E+03  0.22864531156E+03  0.00000000000E+00 0.  1.
         21   -1    0    0  502  503 -0.00000000000E+00 -0.00000000000E+00 -0.16792443871E+03  0.16792443871E+03  0.00000000000E+00 0.  1.
         -6    2    1    2    0  503 -0.25462811256E+02 -0.86566066742E+02  0.76899467510E+01  0.19419069230E+03  0.17178140478E+03 0.  0.
        -24    2    3    3    0    0 -0.57019118292E+01 -0.10290274409E+03  0.52153100795E+02  0.14265000701E+03  0.83711361452E+02 0.  0.
          6    2    1    2  501    0  0.25462811256E+02  0.86566066742E+02  0.53030926099E+02  0.20237905798E+03  0.17321364068E+03 0.  0.
         24    2    5    5    0    0  0.65768392051E+02  0.62150168926E+01  0.40882166250E+02  0.11154672111E+03  0.80045060088E+02 0.  0.
          5    1    5    5  501    0 -0.40305580795E+02  0.80351049850E+02  0.12148759849E+02  0.90832336869E+02  0.47000000000E+01 0. -1.
        -13    1    6    6    0    0 -0.10831062993E+02  0.22102785219E+02  0.16393895279E+02  0.29573718779E+02  0.00000000000E+00 0.  1.
         14    1    6    6    0    0  0.76599455044E+02 -0.15887768327E+02  0.24488270970E+02  0.81973002328E+02  0.00000000000E+00 0. -1.
         -5    1    3    3    0  503 -0.19760899427E+02  0.16336677351E+02 -0.44463154044E+02  0.51540685294E+02  0.47000000000E+01 0.  1.
         13    1    4    4    0    0 -0.21500570581E+01  0.13594890590E+02  0.14911892781E+02  0.20293061420E+02  0.00000000000E+00 0. -1.
        -14    1    4    4    0    0 -0.35518547712E+01 -0.11649763468E+03  0.37241208014E+02  0.12235694559E+03  0.00000000000E+00 0.  1.
</event>
<event>
12    1  0.8691829E-002  0.1798980E+03  0.7818608E-02  0.1168643E+00
         21   -1    0    0  503  502  0.00000000000E+00  0.00000000000E+00  0.37400201411E+03  0.37400201411E+03  0.00000000000E+00 0. -1.
         21   -1    0    0  501  503 -0.00000000000E+00 -0.00000000000E+00 -0.28724482415E+03  0.28724482415E+03  0.00000000000E+00 0.  1.
          6    2    1    2  501    0  0.49972938335E+02 -0.35738995039E+01 -0.23388050155E+03  0.29506503554E+03  0.17278084057E+03 0.  0.
         24    2    3    3    0    0  0.76135291638E+02  0.42349650822E+02 -0.19995431745E+03  0.23208474360E+03  0.79319124987E+02 0.  0.
         -6    2    1    2    0  502 -0.49972938335E+02  0.35738995039E+01  0.32063769152E+03  0.36618180272E+03  0.16961873746E+03 0.  0.
        -24    2    5    5    0    0 -0.63325916054E+02 -0.53317056360E+02  0.24386285674E+03  0.26958289937E+03  0.79705499133E+02 0.  0.
          5    1    3    3  501    0 -0.26162353303E+02 -0.45923550326E+02 -0.33926184106E+02  0.62980291940E+02  0.47000000000E+01 0. -1.
        -11    1    4    4    0    0  0.39724712864E+02  0.56459477880E+02 -0.78647067221E+02  0.10464743971E+03  0.00000000000E+00 0.  1.
         12    1    4    4    0    0  0.36410578774E+02 -0.14109827059E+02 -0.12130725023E+03  0.12743730389E+03  0.00000000000E+00 0. -1.
         -5    1    5    5    0  502  0.13352977719E+02  0.56890955864E+02  0.76774834780E+02  0.96598903351E+02  0.47000000000E+01 0.  1.
         13    1    6    6    0    0 -0.40020437404E+02 -0.41985156684E+02  0.58370716667E+02  0.82289302804E+02  0.00000000000E+00 0. -1.
        -14    1    6    6    0    0 -0.23305478650E+02 -0.11331899675E+02  0.18549214007E+03  0.18729359656E+03  0.00000000000E+00 0.  1.
</event>
<event>
12    1  0.8691829E-002  0.2367513E+03  0.7818608E-02  0.1122841E+00
         21   -1    0    0  501  502  0.00000000000E+00  0.00000000000E+00  0.28233498081E+03  0.28233498081E+03  0.00000000000E+00 0. -1.
         21   -1    0    0  502  503 -0.00000000000E+00 -0.00000000000E+00 -0.34239380668E+03  0.34239380668E+03  0.00000000000E+00 0. -1.
         -6    2    1    2    0  503 -0.14834089271E+03 -0.43259778778E+02 -0.23562213805E+03  0.33401940546E+03  0.17937319303E+03 0.  0.
        -24    2    3    3    0    0 -0.14190102972E+03 -0.47676792669E+02 -0.97472203772E+02  0.19556913934E+03  0.79608284506E+02 0.  0.
          6    2    1    2  501    0  0.14834089271E+03  0.43259778778E+02  0.17556331219E+03  0.29070938203E+03  0.17266452820E+03 0.  0.
         24    2    5    5    0    0  0.12303557902E+03  0.13765217188E+02  0.44650526156E+02  0.15406921366E+03  0.80102548043E+02 0.  0.
          5    1    5    5  501    0  0.25305313697E+02  0.29494561591E+02  0.13091278603E+03  0.13664016837E+03  0.47000000000E+01 0. -1.
        -13    1    6    6    0    0  0.29624434877E+02  0.40242523609E+02  0.98677149156E+01  0.50935642196E+02  0.00000000000E+00 0.  1.
         14    1    6    6    0    0  0.93411144139E+02 -0.26477306421E+02  0.34782811241E+02  0.10313357146E+03  0.00000000000E+00 0. -1.
         -5    1    3    3    0  503 -0.64398629963E+01  0.44170138903E+01 -0.13814993428E+03  0.13845026612E+03  0.47000000000E+01 0.  1.
         11    1    4    4    0    0 -0.83716133082E+02  0.13842560381E+02 -0.47345169006E+02  0.97167754138E+02  0.00000000000E+00 0. -1.
        -12    1    4    4    0    0 -0.58184896634E+02 -0.61519353050E+02 -0.50127034766E+02  0.98401385206E+02  0.00000000000E+00 0.  1.
</event>
<event>
12    1  0.8691829E-002  0.1774234E+03  0.7818608E-02  0.1171260E+00
         21   -1    0    0  503  502  0.00000000000E+00  0.00000000000E+00  0.23881266548E+03  0.23881266548E+03  0.00000000000E+00 0.  1.
         21   -1    0    0  501  503 -0.00000000000E+00 -0.00000000000E+00 -0.12914586288E+03  0.12914586288E+03  0.00000000000E+00 0.  1.
          6    2    1    2  501    0  0.16720558123E+02 -0.32176620270E+02  0.60899528600E+02  0.18758413947E+03  0.17367827971E+03 0.  0.
         24    2    3    3    0    0  0.77878439760E+02 -0.28886313824E+02  0.44043365226E+02  0.12388694293E+03  0.80676428425E+02 0.  0.
         -6    2    1    2    0  502 -0.16720558123E+02  0.32176620270E+02  0.48767273994E+02  0.18037438889E+03  0.16982862303E+03 0.  0.
        -24    2    5    5    0    0 -0.25449722240E+00 -0.45958655049E+02  0.23011515506E+02  0.96340458210E+02  0.81484300939E+02 0.  0.
          5    1    3    3  501    0 -0.61157881638E+02 -0.32903064462E+01  0.16856163374E+02  0.63697196536E+02  0.47000000000E+01 0. -1.
        -13    1    4    4    0    0  0.27107039013E+02 -0.22285497252E+02  0.60643169056E+02  0.70064462497E+02  0.00000000000E+00 0.  1.
         14    1    4    4    0    0  0.50771400747E+02 -0.66008165713E+01 -0.16599803830E+02  0.53822480437E+02  0.00000000000E+00 0. -1.
         -5    1    5    5    0  502 -0.16466060900E+02  0.78135275318E+02  0.25755758489E+02  0.84033930683E+02  0.47000000000E+01 0.  1.
         11    1    6    6    0    0  0.28017900325E+02 -0.15479682829E+02  0.40171712470E+02  0.51365258705E+02  0.00000000000E+00 0. -1.
        -12    1    6    6    0    0 -0.28272397547E+02 -0.30478972219E+02 -0.17160196965E+02  0.44975199505E+02  0.00000000000E+00 0.  1.
</event>
<event>
12    1  0.8691829E-002  0.1827068E+03  0.7818608E-02  0.1165424E+00
         21   -1    0    0  501  502  0.00000000000E+00  0.00000000000E+00  0.69625252766E+03  0.69625252766E+03  0.00000000000E+00 0.  1.
         21   -1    0    0  502  503 -0.00000000000E+00 -0.00000000000E+00 -0.63817766578E+02  0.63817766578E+02  0.00000000000E+00 0.  1.
         -6    2    1    2    0  503 -0.94826848140E+01  0.58572826512E+02  0.12586248837E+03  0.22186285193E+03  0.17280353518E+03 0.  0.
        -24    2    3    3    0    0  0.47859032077E+02  0.53132804710E+01  0.10798268823E+03  0.14144874251E+03  0.77645140857E+02 0.  0.
          6    2    1    2  501    0  0.94826848140E+01 -0.58572826512E+02  0.50657227271E+03  0.53820744231E+03  0.17184611186E+03 0.  0.
         24    2    5    5    0    0 -0.35112912696E+02 -0.76052361231E+02  0.23275567835E+03  0.26019320023E+03  0.80674762814E+02 0.  0.
          5    1    5    5  501    0  0.44595597510E+02  0.17479534719E+02  0.27381659437E+03  0.27801424208E+03  0.47000000000E+01 0. -1.
        -11    1    6    6    0    0 -0.59658120393E+02 -0.67996872657E+02  0.17986143668E+03  0.20132759976E+03  0.00000000000E+00 0.  1.
         12    1    6    6    0    0  0.24545207697E+02 -0.80554885739E+01  0.52894241670E+02  0.58865600472E+02  0.00000000000E+00 0. -1.
         -5    1    3    3    0  503 -0.57341716891E+02  0.53259546041E+02  0.17879800137E+02  0.80414109418E+02  0.47000000000E+01 0.  1.
         11    1    4    4    0    0  0.18277551523E+02  0.29960354798E+02  0.94245281323E+02  0.10056771252E+03  0.00000000000E+00 0. -1.
        -12    1    4    4    0    0  0.29581480555E+02 -0.24647074327E+02  0.13737406911E+02  0.40881029993E+02  0.00000000000E+00 0.  1.
</event>
<event>
12    1  0.8691829E-002  0.2210546E+03  0.7818608E-02  0.1133492E+00
         21   -1    0    0  503  502  0.00000000000E+00  0.00000000000E+00  0.16144515340E+03  0.16144515340E+03  0.00000000000E+00 0.  1.
         21   -1    0    0  501  503 -0.00000000000E+00 -0.00000000000E+00 -0.77442834678E+03  0.77442834678E+03  0.00000000000E+00 0.  1.
          6    2    1    2  501    0  0.78421056667E+01 -0.13771513196E+03 -0.67339376296E+03  0.70874840771E+03  0.17273734175E+03 0.  0.
         24    2    3    3    0    0  0.25524605922E+02 -0.15587577114E+02 -0.39525508173E+03  0.40442780954E+03  0.80254566407E+02 0.  0.
         -6    2    1    2    0  502 -0.78421056667E+01  0.13771513196E+03  0.60410569586E+02  0.22712509247E+03  0.17002768750E+03 0.  0.
        -24    2    5    5    0    0 -0.48042439895E+02  0.13725798234E+03  0.11537483027E+02  0.16366688222E+03  0.74201786204E+02 0.  0.
          5    1    3    3  501    0 -0.17682500255E+02 -0.12212755485E+03 -0.27813868124E+03  0.30432059817E+03  0.47000000000E+01 0. -1.
        -13    1    4    4    0    0  0.13715740073E+02 -0.31897713886E+02 -0.66163651619E+02  0.74720910544E+02  0.00000000000E+00 0.  1.
         14    1    4    4    0    0  0.11808865849E+02  0.16310136772E+02 -0.32909143011E+03  0.32970689900E+03  0.00000000000E+00 0. -1.
         -5    1    5    5    0  502  0.40200334228E+02  0.45714962941E+00  0.48873086559E+02  0.63458210246E+02  0.47000000000E+01 0.  1.
         11    1    6    6    0    0  0.15002833434E+02  0.11884250226E+02 -0.10156236470E+02  0.21667246104E+02  0.00000000000E+00 0. -1.
        -12    1    6    6    0    0 -0.63045273329E+02  0.12537373211E+03  0.21693719498E+02  0.14199963612E+03  0.00000000000E+00 0.  1.
</event>
<event>
12    1  0.8691829E-002  0.2144271E+03  0.7818608E-02  0.1139357E+00
         21   -1    0    0  501  502  0.00000000000E+00  0.00000000000E+00  0.29859545140E+03  0.29859545140E+03  0.00000000000E+00 0.  1.
         21   -1    0    0  502  503 -0.00000000000E+00 -0.00000000000E+00 -0.39449899454E+03  0.39449899454E+03  0.00000000000E+00 0. -1.
         -6    2    1    2    0  503  0.55590999949E+02  0.10273354059E+03 -0.32134953775E+03  0.38632175997E+03  0.17981778881E+03 0.  0.
        -24    2    3    3    0    0  0.28751116739E+02  0.10656786609E+03 -0.33029355690E+03  0.35738792404E+03  0.80305402821E+02 0.  0.
          6    2    1    2  501    0 -0.55590999949E+02 -0.10273354059E+03  0.22544599461E+03  0.30677268598E+03  0.17215993941E+03 0.  0.
         24    2    5    5    0    0 -0.36304300523E+02  0.21489788735E+01  0.15717669312E+03  0.18006393652E+03  0.79974296047E+02 0.  0.
          5    1    5    5  501    0 -0.19286699425E+02 -0.10488251946E+03  0.68269301491E+02  0.12670874946E+03  0.47000000000E+01 0. -1.
        -11    1    6    6    0    0  0.10651369753E+02  0.28431214187E+02  0.83351657525E+02  0.88708987312E+02  0.00000000000E+00 0.  1.
         12    1    6    6    0    0 -0.46955670276E+02 -0.26282235313E+02  0.73825035591E+02  0.91354949204E+02  0.00000000000E+00 0. -1.
         -5    1    3    3    0  503  0.26839883210E+02 -0.38343255032E+01  0.89440191498E+01  0.28933835925E+02  0.47000000000E+01 0.  1.
         13    1    4    4    0    0 -0.12541404217E+02  0.60993326329E+02 -0.90634293758E+02  0.10996384807E+03  0.00000000000E+00 0. -1.
        -14    1    4    4    0    0  0.41292520956E+02  0.45574539763E+02 -0.23965926314E+03  0.24742407598E+03  0.00000000000E+00 0.  1.
</event>
<event>
12    1  0.8691829E-002  0.2475708E+03  0.7818608E-02  0.1114951E+00
         21   -1    0    0  503  502  0.00000000000E+00  0.00000000000E+00  0.20844070479E+03  0.20844070479E+03  0.00000000000E+00 0. -1.
         21   -1    0    0  501  503 -0.00000000000E+00 -0.00000000000E+00 -0.29575371512E+03  0.29575371512E+03  0.00000000000E+00 0.  1.
          6    2    1    2  501    0 -0.64843137792E+02  0.16555896853E+03 -0.20730305628E+02  0.24843724954E+03  0.17226989525E+03 0.  0.
         24    2    3    3    0    0  0.19240567947E+02  0.63426807932E+02 -0.45480178125E+02  0.11376841875E+03  0.80508677068E+02 0.  0.
         -6    2    1    2    0  502  0.64843137792E+02 -0.16555896853E+03 -0.66582704698E+02  0.25575717036E+03  0.17135947318E+03 0.  0.
        -24    2    5    5    0    0  0.10576603675E+03 -0.89620988291E+02 -0.41143829728E+02  0.16569892887E+03  0.80900829603E+02 0.  0.
          5    1    3    3  501    0 -0.84083705739E+02  0.10213216059E+03  0.24749872497E+02  0.13466883079E+03  0.47000000000E+01 0. -1.
        -11    1    4    4    0    0 -0.25724029258E+02  0.29905231974E+02  0.31008957929E+01  0.39568474009E+02  0.00000000000E+00 0.  1.
         12    1    4    4    0    0  0.44964597206E+02  0.33521575958E+02 -0.48581073918E+02  0.74199944741E+02  0.00000000000E+00 0. -1.
         -5    1    5    5    0  502 -0.40922898962E+02 -0.75937980235E+02 -0.25438874970E+02  0.90058241496E+02  0.47000000000E+01 0.  1.
         13    1    6    6    0    0 -0.32793061780E+01 -0.27756848092E+02 -0.28128266576E+02  0.39653446831E+02  0.00000000000E+00 0. -1.
        -14    1    6    6    0    0  0.10904534293E+03 -0.61864140199E+02 -0.13015563152E+02  0.12604548204E+03  0.00000000000E+00 0.  1.
</event>
<event>
12    1  0.8691829E-002  0.1797485E+03  0.7818608E-02  0.1168213E+00
         21   -1    0    0  501  502  0.00000000000E+00  0.00000000000E+00  0.10784355774E+03  0.10784355774E+03  0.00000000000E+00 0. -1.
         21   -1    0    0  502  503 -0.00000000000E+00 -0.00000000000E+00 -0.38933043223E+03  0.38933043223E+03  0.00000000000E+00 0. -1.
         -6    2    1    2    0  503 -0.25231905773E+02 -0.45678001018E+02 -0.26104696687E+03  0.31694643501E+03  0.17200696180E+03 0.  0.
        -24    2    3    3    0    0 -0.33881157766E+02 -0.76650572817E+02 -0.25972738307E+03  0.28442042903E+03  0.80083854592E+02 0.  0.
          6    2    1    2  501    0  0.25231905773E+02  0.45678001018E+02 -0.20439907622E+02  0.18022755495E+03  0.17129230250E+03 0.  0.
         24    2    5    5    0    0  0.13842841114E+02 -0.28550319483E+02  0.28900625576E+02  0.90249043214E+02  0.79390797009E+02 0.  0.
          5    1    5    5  501    0  0.11389064660E+02  0.74228320501E+02 -0.49340533198E+02  0.89978511738E+02  0.47000000000E+01 0. -1.
        -11    1    6    6    0    0 -0.91497101981E+01 -0.12153971663E+01 -0.24399556920E+02  0.26087022921E+02  0.00000000000E+00 0.  1.
         12    1    6    6    0    0  0.22992551312E+02 -0.27334922317E+02  0.53300182497E+02  0.64162020293E+02  0.00000000000E+00 0. -1.
         -5    1    3    3    0  503  0.86492519929E+01  0.30972571799E+02 -0.13195837993E+01  0.32526005984E+02  0.47000000000E+01 0.  1.
         11    1    4    4    0    0 -0.36099652773E+02 -0.76833962256E+02 -0.13370411310E+03  0.15837750012E+03  0.00000000000E+00 0. -1.
        -12    1    4    4    0    0  0.22184950070E+01  0.18338943919E+00 -0.12602326997E+03  0.12604292890E+03  0.00000000000E+00 0.  1.
</event>
<event>
12    1  0.8691829E-002  0.2178700E+03  0.7818608E-02  0.1135535E+00
         21   -1    0    0  503  502  0.00000000000E+00  0.00000000000E+00  0.67667054053E+03  0.67667054053E+03  0.00000000000E+00 0. -1.
         21   -1    0    0  501  503 -0.00000000000E+00 -0.00000000000E+00 -0.70303742475E+02  0.70303742475E+02  0.00000000000E+00 0. -1.
          6    2    1    2  501    0 -0.13400883116E+03  0.59330642035E+01  0.28122152186E+03  0.35574270155E+03  0.17167922784E+03 0.  0.
         24    2    3    3    0    0 -0.57197230662E+02  0.48861864005E+02  0.78246309143E+02  0.13446475235E+03  0.79368002254E+02 0.  0.
         -6    2    1    2    0  502  0.13400883116E+03 -0.59330642035E+01  0.32514527619E+03  0.39123158145E+03  0.17131588254E+03 0.  0.
        -24    2    5    5    0    0  0.15870931151E+03 -0.33178559643E+02  0.27335677404E+03  0.32754037557E+03  0.79178970298E+02 0.  0.
          5    1    3    3  501    0 -0.76811600503E+02 -0.42928799802E+02  0.20297521272E+03  0.22127794920E+03  0.47000000000E+01 0. -1.
        -11    1    4    4    0    0 -0.32491914734E+02 -0.18072886581E+02  0.19159003059E+02  0.41826082182E+02  0.00000000000E+00 0.  1.
         12    1    4    4    0    0 -0.24705315927E+02  0.66934750586E+02  0.59087306084E+02  0.92638670172E+02  0.00000000000E+00 0. -1.
         -5    1    5    5    0  502 -0.24700480342E+02  0.27245495440E+02  0.51788502151E+02  0.63691205876E+02  0.47000000000E+01 0.  1.
         13    1    6    6    0    0  0.12446351247E+03 -0.58815702175E+02  0.20810604867E+03  0.24951669333E+03  0.00000000000E+00 0. -1.
        -14    1    6    6    0    0  0.34245799039E+02  0.25637142532E+02  0.65250725367E+02  0.78023682238E+02  0.00000000000E+00 0.  1.
</event>
<event>
12    1  0.8691829E-002  0.2177696E+03  0.7818608E-02  0.1135754E+00
         21   -1    0    0  503  502  0.00000000000E+00  0.00000000000E+00  0.24714867550E+03  0.24714867550E+03  0.00000000000E+00 0.  1.
         21   -1    0    0  501  503 -0.00000000000E+00 -0.00000000000E+00 -0.22578924122E+03  0.22578924122E+03  0.00000000000E+00 0.  1.
          6    2    1    2  501    0 -0.12458596627E+02  0.13123205013E+03 -0.82161345023E+02  0.23275328374E+03  0.17333936906E+03 0.  0.
         24    2    3    3    0    0  0.61297384636E+02  0.11213381409E+03 -0.62045066082E+02  0.15381380015E+03  0.58972309311E+02 0.  0.
         -6    2    1    2    0  502  0.12458596627E+02 -0.13123205013E+03  0.10352077931E+03  0.24018463298E+03  0.17203208585E+03 0.  0.
        -24    2    5    5    0    0  0.63741597102E+02 -0.11589739981E+03  0.45541925813E+02  0.16113569187E+03  0.79971530589E+02 0.  0.
          5    1    3    3  501    0 -0.73755981263E+02  0.19098236036E+02 -0.20116278941E+02  0.78939483595E+02  0.47000000000E+01 0. -1.
        -13    1    4    4    0    0 -0.21716272659E+01  0.40845431612E+02 -0.17993962516E+01  0.40942680364E+02  0.00000000000E+00 0.  1.
         14    1    4    4    0    0  0.63469011902E+02  0.71288382480E+02 -0.60245669830E+02  0.11287111979E+03  0.00000000000E+00 0. -1.
         -5    1    5    5    0  502 -0.51283000475E+02 -0.15334650319E+02  0.57978853493E+02  0.79048941109E+02  0.47000000000E+01 0.  1.
         11    1    6    6    0    0  0.25354398044E+02  0.48530387242E+01  0.18002549800E+02  0.31472039723E+02  0.00000000000E+00 0. -1.
        -12    1    6    6    0    0  0.38387199058E+02 -0.12075043853E+03  0.27539376014E+02  0.12966365215E+03  0.00000000000E+00 0.  1.
</event>
<event>
12    1  0.8691829E-002  0.2246068E+03  0.7818608E-02  0.1131009E+00
         21   -1    0    0  503  502  0.00000000000E+00  0.00000000000E+00  0.37743994233E+02  0.37743994233E+02  0.00000000000E+00 0.  1.
         21   -1    0    0  501  503 -0.00000000000E+00 -0.00000000000E+00 -0.21801265285E+04  0.21801265285E+04  0.00000000000E+00 0.  1.
          6    2    1    2  501    0  0.11194115024E+02  0.14005033221E+03 -0.17718558852E+04  0.17860351335E+04  0.17523931212E+03 0.  0.
         24    2    3    3    0    0 -0.15878403822E+02  0.31642939637E+01 -0.83004768921E+03  0.83393457330E+03  0.78775438593E+02 0.  0.
         -6    2    1    2    0  502 -0.11194115024E+02 -0.14005033221E+03 -0.37052664908E+03  0.43183538922E+03  0.17161702113E+03 0.  0.
        -24    2    5    5    0    0  0.30746689404E+02 -0.11191893996E+03 -0.34944567257E+03  0.37690903966E+03  0.80479426343E+02 0.  0.
          5    1    3    3  501    0  0.27072518846E+02  0.13688603824E+03 -0.94180819598E+03  0.95210056022E+03  0.47000000000E+01 0. -1.
        -11    1    4    4    0    0  0.12198708241E+02  0.27954366033E+02 -0.60685456750E+03  0.60762054044E+03  0.00000000000E+00 0.  1.
         12    1    4    4    0    0 -0.28077112063E+02 -0.24790072069E+02 -0.22319312171E+03  0.22631403287E+03  0.00000000000E+00 0. -1.
         -5    1    5    5    0  502 -0.41940804428E+02 -0.28131392250E+02 -0.21080976510E+02  0.54926349565E+02  0.47000000000E+01 0.  1.
         11    1    6    6    0    0 -0.48597104208E+00  0.78921256916E+01 -0.21376300714E+01  0.81909265720E+01  0.00000000000E+00 0. -1.
        -12    1    6    6    0    0  0.31232660446E+02 -0.11981106565E+03 -0.34730804250E+03  0.36871811308E+03  0.00000000000E+00 0.  1.
</event>
<event>
12    1  0.8691829E-002  0.1776557E+03  0.7818608E-02  0.1170276E+00
         21   -1    0    0  501  502  0.00000000000E+00  0.00000000000E+00  0.57281129618E+03  0.57281129618E+03  0.00000000000E+00 0.  1.
         21   -1    0    0  502  503 -0.00000000000E+00 -0.00000000000E+00 -0.55887663253E+02  0.55887663253E+02  0.00000000000E+00 0.  1.
         -6    2    1    2    0  503  0.40950781593E+02  0.17184043003E+02  0.21546559937E+03  0.27878685047E+03  0.17124376087E+03 0.  0.
        -24    2    3    3    0    0  0.76595450667E+01 -0.54355419587E+02  0.12603823068E+03  0.15943214630E+03  0.80745237701E+02 0.  0.
          6    2    1    2  501    0 -0.40950781593E+02 -0.17184043003E+02  0.30145803355E+03  0.34991210896E+03  0.17201534860E+03 0.  0.
         24    2    5    5    0    0 -0.78823173614E+00 -0.42043735487E+02  0.28632558704E+03  0.30009127337E+03  0.79398574017E+02 0.  0.
          5    1    5    5  501    0 -0.40162549857E+02  0.24859692484E+02  0.15132446514E+02  0.49820835590E+02  0.47000000000E+01 0. -1.
        -11    1    6    6    0    0  0.21025029258E+02  0.14581470976E+02  0.12806510782E+03  0.13059610635E+03  0.00000000000E+00 0.  1.
         12    1    6    6    0    0 -0.21813260995E+02 -0.56625206463E+02  0.15826047922E+03  0.16949516702E+03  0.00000000000E+00 0. -1.
         -5    1    3    3    0  503  0.33291236526E+02  0.71539462590E+02  0.89427368690E+02  0.11935470417E+03  0.47000000000E+01 0.  1.
         13    1    4    4    0    0 -0.32368015285E+02 -0.66850892079E+01  0.61176879277E+02  0.69534087966E+02  0.00000000000E+00 0. -1.
        -14    1    4    4    0    0  0.40027560352E+02 -0.47670330379E+02  0.64861351403E+02  0.89898058333E+02  0.00000000000E+00 0.  1.
</event>
<event>
12    1  0.8691829E-002  0.4551836E+03  0.7818608E-02  0.1026194E+00
         21   -1    0    0  503  502  0.00000000000E+00  0.00000000000E+00  0.10647850136E+04  0.10647850136E+04  0.00000000000E+00 0. -1.
         21   -1    0    0  501  503 -0.00000000000E+00 -0.00000000000E+00 -0.30365773441E+03  0.30365773441E+03  0.00000000000E+00 0.  1.
          6    2    1    2  501    0 -0.28806231887E+03 -0.30767861295E+03 -0.29554252555E+02  0.45614207772E+03  0.17188982752E+03 0.  0.
         24    2    3    3    0    0 -0.28700404601E+03 -0.22974677404E+03 -0.34490593137E+02  0.37790558421E+03  0.80424666360E+02 0.  0.
         -6    2    1    2    0  502  0.28806231887E+03  0.30767861295E+03  0.79068153174E+03  0.91230067028E+03  0.17166595450E+03 0.  0.
        -24    2    5    5    0    0  0.25805287531E+03  0.29435327882E+03  0.78152329654E+03  0.87788999600E+03  0.81713174164E+02 0.  0.
          5    1    3    3  501    0 -0.10582728570E+01 -0.77931838914E+02  0.49363405821E+01  0.78236493507E+02  0.47000000000E+01 0. -1.
        -13    1    4    4    0    0 -0.97176816569E+01  0.44580803829E+01 -0.91330729653E+01  0.14061324236E+02  0.00000000000E+00 0.  1.
         14    1    4    4    0    0 -0.27728636435E+03 -0.23420485442E+03 -0.25357520172E+02  0.36384425998E+03  0.00000000000E+00 0. -1.
         -5    1    5    5    0  502  0.30009443557E+02  0.13325334136E+02  0.91582352001E+01  0.34410674280E+02  0.47000000000E+01 0.  1.
         11    1    6    6    0    0  0.41647625498E+02  0.97002700465E+02  0.17544384992E+03  0.20475495862E+03  0.00000000000E+00 0. -1.
        -12    1    6    6    0    0  0.21640524981E+03  0.19735057835E+03  0.60607944662E+03  0.67313503737E+03  0.00000000000E+00 0.  1.
</event>
<event>
12    1  0.8691829E-002  0.1852748E+03  0.7818608E-02  0.1163118E+00
         21   -1    0    0  503  502  0.00000000000E+00  0.00000000000E+00  0.62365243964E+03  0.62365243964E+03  0.00000000000E+00 0.  1.
         21   -1    0    0  501  503 -0.00000000000E+00 -0.00000000000E+00 -0.55126589988E+02  0.55126589988E+02  0.00000000000E+00 0.  1.
          6    2    1    2  501    0 -0.52779319137E+02 -0.45730192548E+02  0.25098141164E+03  0.31113623579E+03  0.17010932130E+03 0.  0.
         24    2    3    3    0    0 -0.55690666205E+02  0.28308133430E+02  0.18856947413E+03  0.21414402167E+03  0.79977588886E+02 0.  0.
         -6    2    1    2    0  502  0.52779319137E+02  0.45730192548E+02  0.31754443801E+03  0.36764279383E+03  0.17160957639E+03 0.  0.
        -24    2    5    5    0    0  0.40883116985E+02  0.23760770992E+02  0.32808290669E+03  0.34012326565E+03  0.76219673837E+02 0.  0.
          5    1    3    3  501    0  0.29113470678E+01 -0.74038325978E+02  0.62411937509E+02  0.96992214116E+02  0.47000000000E+01 0. -1.
        -13    1    4    4    0    0 -0.42358209509E+01  0.45012148592E+02  0.10817258860E+03  0.11724054173E+03  0.00000000000E+00 0.  1.
         14    1    4    4    0    0 -0.51454845254E+02 -0.16704015162E+02  0.80396885526E+02  0.96903479942E+02  0.00000000000E+00 0. -1.
         -5    1    5    5    0  502  0.11896202152E+02  0.21969421557E+02 -0.10538468686E+02  0.27519528183E+02  0.47000000000E+01 0.  1.
         13    1    6    6    0    0  0.43213049694E+02  0.46392580233E+02  0.27763903756E+03  0.28478601501E+03  0.00000000000E+00 0. -1.
        -14    1    6    6    0    0 -0.23299327088E+01 -0.22631809241E+02  0.50443869132E+02  0.55337250646E+02  0.00000000000E+00 0.  1.
</event>
<event>
12    1  0.8691829E-002  0.2312629E+03  0.7818608E-02  0.1125782E+00
         21   -1    0    0  501  502  0.00000000000E+00  0.00000000000E+00  0.88633007155E+02  0.88633007155E+02  0.00000000000E+00 0.  1.
         21   -1    0    0  502  503 -0.00000000000E+00 -0.00000000000E+00 -0.92941679446E+03  0.92941679446E+03  0.00000000000E+00 0.  1.
         -6    2    1    2    0  503 -0.21353097083E+02 -0.15241826073E+03 -0.72214605689E+03  0.75827267858E+03  0.17261299671E+03 0.  0.
        -24    2    3    3    0    0  0.38648591672E+02 -0.36992844903E+02 -0.25420697542E+03  0.27256463537E+03  0.82511271273E+02 0.  0.
          6    2    1    2  501    0  0.21353097083E+02  0.15241826073E+03 -0.11863773042E+03  0.25977712304E+03  0.17240058474E+03 0.  0.
         24    2    5    5    0    0 -0.51174034995E+02  0.88840524263E+02 -0.91612761764E+02  0.15950373479E+03  0.80852474813E+02 0.  0.
          5    1    5    5  501    0  0.72527132078E+02  0.63577736470E+02 -0.27024968655E+02  0.10027338826E+03  0.47000000000E+01 0. -1.
        -13    1    6    6    0    0  0.46960586883E+01  0.11953825161E+01  0.11878348999E+02  0.12828759936E+02  0.00000000000E+00 0.  1.
         14    1    6    6    0    0 -0.55870093683E+02  0.87645141747E+02 -0.10349111076E+03  0.14667497485E+03  0.00000000000E+00 0. -1.
         -5    1    3    3    0  503 -0.60001688755E+02 -0.11542541583E+03 -0.46793908147E+03  0.48570804321E+03  0.47000000000E+01 0.  1.
         11    1    4    4    0    0  0.29981395613E+02  0.14841318480E+02 -0.40697496222E+02  0.52682397591E+02  0.00000000000E+00 0. -1.
        -12    1    4    4    0    0  0.86671960586E+01 -0.51834163383E+02 -0.21350947920E+03  0.21988223778E+03  0.00000000000E+00 0.  1.
</event>
<event>
12    1  0.8691829E-002  0.2707920E+03  0.7818608E-02  0.1100880E+00
         21   -1    0    0  501  502  0.00000000000E+00  0.00000000000E+00  0.18307367471E+03  0.18307367471E+03  0.00000000000E+00 0. -1.
         21   -1    0    0  502  503 -0.00000000000E+00 -0.00000000000E+00 -0.66859907513E+03  0.66859907513E+03  0.00000000000E+00 0.  1.
         -6    2    1    2    0  503 -0.20788573723E+03  0.21733038700E+02 -0.51277067492E+03  0.57988106173E+03  0.17216119184E+03 0.  0.
        -24    2    3    3    0    0 -0.24243388580E+02  0.43720513955E+01 -0.12593455340E+03  0.15129012504E+03  0.80139462629E+02 0.  0.
          6    2    1    2  501    0  0.20788573723E+03 -0.21733038700E+02  0.27245274507E+02  0.27179168811E+03  0.17157975412E+03 0.  0.
         24    2    5    5    0    0  0.17864164225E+03  0.35666101568E+02 -0.52363375330E+01  0.19949353104E+03  0.81150123528E+02 0.  0.
          5    1    5    5  501    0  0.29244094983E+02 -0.57399140267E+02  0.32481612040E+02  0.72298157068E+02  0.47000000000E+01 0. -1.
        -13    1    6    6    0    0  0.38917281356E+02  0.94055146952E+01 -0.36215374313E+02  0.53986774598E+02  0.00000000000E+00 0.  1.
         14    1    6    6    0    0  0.13972436089E+03  0.26260586872E+02  0.30979036780E+02  0.14550675644E+03  0.00000000000E+00 0. -1.
         -5    1    3    3    0  503 -0.18364234865E+03  0.17360987304E+02 -0.38683612152E+03  0.42859093669E+03  0.47000000000E+01 0.  1.
         11    1    4    4    0    0 -0.38256740148E+02  0.31510073456E+02 -0.98360335757E+02  0.11014181107E+03  0.00000000000E+00 0. -1.
        -12    1    4    4    0    0  0.14013351568E+02 -0.27138022061E+02 -0.27574217642E+02  0.41148313964E+02  0.00000000000E+00 0.  1.
</event>
<event>
12    1  0.8691829E-002  0.1992852E+03  0.7818608E-02  0.1150643E+00
         21   -1    0    0  501  502  0.00000000000E+00  0.00000000000E+00  0.29794587584E+03  0.29794587584E+03  0.00000000000E+00 0.  1.
         21   -1    0    0  502  503 -0.00000000000E+00 -0.00000000000E+00 -0.13261439816E+03  0.13261439816E+03  0.00000000000E+00 0. -1.
         -6    2    1    2    0  503  0.59581447022E+02  0.77255085858E+02  0.73439806261E+02  0.21238639752E+03  0.17377076736E+03 0.  0.
        -24    2    3    3    0    0  0.10212783447E+03  0.36929503210E+02  0.74424706436E+02  0.15356966751E+03  0.79061514464E+02 0.  0.
          6    2    1    2  501    0 -0.59581447022E+02 -0.77255085858E+02  0.91891671421E+02  0.21817387647E+03  0.17215534839E+03 0.  0.
         24    2    5    5    0    0 -0.62746595773E+02 -0.11677603505E+03  0.85492588472E+02  0.17773921492E+03  0.81905239111E+02 0.  0.
          5    1    5    5  501    0  0.31651487508E+01  0.39520949196E+02  0.63990829492E+01  0.40434661548E+02  0.47000000000E+01 0. -1.
        -11    1    6    6    0    0 -0.62144808853E+02 -0.29926587954E+02  0.37544850183E+02  0.78531482281E+02  0.00000000000E+00 0.  1.
         12    1    6    6    0    0 -0.60178692019E+00 -0.86849447100E+02  0.47947738289E+02  0.99207732642E+02  0.00000000000E+00 0. -1.
         -5    1    3    3    0  503 -0.42546387451E+02  0.40325582648E+02 -0.98490017502E+00  0.58816730013E+02  0.47000000000E+01 0.  1.
         11    1    4    4    0    0  0.82457691316E+02  0.89599128282E+01  0.13965094951E+02  0.84110491450E+02  0.00000000000E+00 0. -1.
        -12    1    4    4    0    0  0.19670143158E+02  0.27969590381E+02  0.60459611485E+02  0.69459176059E+02  0.00000000000E+00 0.  1.
</event>
<event>
12    1  0.8691829E-002  0.3106021E+03  0.7818608E-02  0.1080066E+00
         21   -1    0    0  501  502  0.00000000000E+00  0.00000000000E+00  0.45883941638E+02  0.45883941638E+02  0.00000000000E+00 0.  1.
         21   -1    0    0  502  503 -0.00000000000E+00 -0.00000000000E+00 -0.22477866411E+04  0.22477866411E+04  0.00000000000E+00 0.  1.
         -6    2    1    2    0  503  0.20604468968E+03  0.15639875197E+03 -0.13928153006E+04  0.14270125968E+04  0.17180077482E+03 0.  0.
        -24    2    3    3    0    0  0.36819102743E+02  0.29598792369E+02 -0.56840980085E+03  0.57590623038E+03  0.79665234919E+02 0.  0.
          6    2    1    2  501    0 -0.20604468968E+03 -0.15639875197E+03 -0.80908739891E+03  0.86665798593E+03  0.17192632649E+03 0.  0.
         24    2    5    5    0    0 -0.15089433785E+03 -0.31852702138E+02 -0.41464921749E+03  0.44933694788E+03  0.78651276770E+02 0.  0.
          5    1    5    5  501    0 -0.55150351827E+02 -0.12454604984E+03 -0.39443818142E+03  0.41732103805E+03  0.47000000000E+01 0. -1.
        -13    1    6    6    0    0 -0.90787688957E+02 -0.35980411600E+02 -0.33810521312E+03  0.35192631277E+03  0.00000000000E+00 0.  1.
         14    1    6    6    0    0 -0.60106648897E+02  0.41277094617E+01 -0.76544004374E+02  0.97410635110E+02  0.00000000000E+00 0. -1.
         -5    1    3    3    0  503  0.16922558694E+03  0.12679995960E+03 -0.82440549974E+03  0.85110636646E+03  0.47000000000E+01 0.  1.
         11    1    4    4    0    0  0.22699300318E+02 -0.24973071381E+02 -0.15219780418E+03  0.15589446470E+03  0.00000000000E+00 0. -1.
        -12    1    4    4    0    0  0.14119802425E+02  0.54571863750E+02 -0.41621199667E+03  0.42001176568E+03  0.00000000000E+00 0.  1.
</event>
<event>
12    1  0.8691829E-002  0.1948927E+03  0.7818608E-02  0.1154178E+00
         21   -1    0    0  501  502  0.00000000000E+00  0.00000000000E+00  0.27543325987E+03  0.27543325987E+03  0.00000000000E+00 0.  1.
         21   -1    0    0  502  503 -0.00000000000E+00 -0.00000000000E+00 -0.13802203137E+03  0.13802203137E+03  0.00000000000E+00 0.  1.
         -6    2    1    2    0  503 -0.10471205968E+02 -0.90150543718E+02  0.58972547595E+02  0.20337006615E+03  0.17217681536E+03 0.  0.
        -24    2    3    3    0    0  0.41834217660E+02 -0.80500895482E+01  0.55059164252E+02  0.10583163021E+03  0.79711458879E+02 0.  0.
          6    2    1    2  501    0  0.10471205968E+02  0.90150543718E+02  0.78438680907E+02  0.21008522508E+03  0.17247147141E+03 0.  0.
         24    2    5    5    0    0  0.39072429273E+02  0.11976677148E+03  0.80054786732E+02  0.16861411804E+03  0.78429698727E+02 0.  0.
          5    1    5    5  501    0 -0.28601223305E+02 -0.29616227765E+02 -0.16161058243E+01  0.41471107045E+02  0.47000000000E+01 0. -1.
        -11    1    6    6    0    0  0.54650730611E+02  0.42562165014E+02  0.31552161688E+02  0.76116878248E+02  0.00000000000E+00 0.  1.
         12    1    6    6    0    0 -0.15578301338E+02  0.77204606469E+02  0.48502625044E+02  0.92497239790E+02  0.00000000000E+00 0. -1.
         -5    1    3    3    0  503 -0.52305423628E+02 -0.82100454170E+02  0.39133833429E+01  0.97538435937E+02  0.47000000000E+01 0.  1.
         13    1    4    4    0    0  0.32069394938E+02  0.78666588531E+01 -0.12827017951E+02  0.35424042721E+02  0.00000000000E+00 0. -1.
        -14    1    4    4    0    0  0.97648227221E+01 -0.15916748401E+02  0.67886182203E+02  0.70407587492E+02  0.00000000000E+00 0.  1.
</event>
<event>
12    1  0.8691829E-002  0.1991460E+03  0.7818608E-02  0.1150506E+00
         21   -1    0    0  503  502  0.00000000000E+00  0.00000000000E+00  0.30080343006E+03  0.30080343006E+03  0.00000000000E+00 0.  1.
         21   -1    0    0  501  503 -0.00000000000E+00 -0.00000000000E+00 -0.13328251582E+03  0.13328251582E+03  0.00000000000E+00 0. -1.
          6    2    1    2  501    0  0.83246088715E+02  0.56922059632E+02  0.60204607629E+02  0.20804740074E+03  0.17172388889E+03 0.  0.
         24    2    3    3    0    0  0.97814710325E+02  0.51233462112E+02  0.97113944943E+02  0.16768660221E+03  0.80592140195E+02 0.  0.
         -6    2    1    2    0  502 -0.83246088715E+02 -0.56922059632E+02  0.10731630661E+03  0.22603854513E+03  0.17148353292E+03 0.  0.
        -24    2    5    5    0    0 -0.70845807205E+02 -0.31242200988E+02 -0.20546193955E+01  0.11291334204E+03  0.82158370405E+02 0.  0.
          5    1    3    3  501    0 -0.14568621610E+02  0.56885975202E+01 -0.36909337315E+02  0.40360798535E+02  0.47000000000E+01 0. -1.
        -11    1    4    4    0    0  0.11261096906E+02 -0.30737457663E+01 -0.12996925935E+02  0.17469410417E+02  0.00000000000E+00 0.  1.
         12    1    4    4    0    0  0.86553613419E+02  0.54307207878E+02  0.11011087088E+03  0.15021719179E+03  0.00000000000E+00 0. -1.
         -5    1    5    5    0  502 -0.12400281510E+02 -0.25679858644E+02  0.10937092600E+03  0.11312520310E+03  0.47000000000E+01 0.  1.
         13    1    6    6    0    0  0.17844252714E+02 -0.69938095046E+01  0.72660237013E+01  0.20496971160E+02  0.00000000000E+00 0. -1.
        -14    1    6    6    0    0 -0.88690059919E+02 -0.24248391483E+02 -0.93206430968E+01  0.92416370875E+02  0.00000000000E+00 0.  1.
</event>
<event>
12    1  0.8691829E-002  0.2126940E+03  0.7818608E-02  0.1141127E+00
         21   -1    0    0  503  502  0.00000000000E+00  0.00000000000E+00  0.14670941669E+03  0.14670941669E+03  0.00000000000E+00 0. -1.
         21   -1    0    0  501  503 -0.00000000000E+00 -0.00000000000E+00 -0.89557440819E+03  0.89557440819E+03  0.00000000000E+00 0. -1.
          6    2    1    2  501    0 -0.10626142283E+02  0.10815316229E+03 -0.79821706664E+03  0.82393926981E+03  0.17296072804E+03 0.  0.
         24    2    3    3    0    0  0.71594806224E+01  0.21983973325E+02 -0.61609362357E+03  0.62162146035E+03  0.79418723956E+02 0.  0.
         -6    2    1    2    0  502  0.10626142283E+02 -0.10815316229E+03  0.49352075143E+02  0.21834455506E+03  0.18283516071E+03 0.  0.
        -24    2    5    5    0    0 -0.59351133110E+01 -0.14401299913E+03  0.14628786297E+02  0.16554304113E+03  0.80096988645E+02 0.  0.
          5    1    3    3  501    0 -0.17785622905E+02  0.86169188968E+02 -0.18212344307E+03  0.20231780946E+03  0.47000000000E+01 0. -1.
        -11    1    4    4    0    0  0.31749394766E+02 -0.12944250604E+02 -0.16590729895E+03  0.16941313272E+03  0.00000000000E+00 0.  1.
         12    1    4    4    0    0 -0.24589914144E+02  0.34928223928E+02 -0.45018632462E+03  0.45220832763E+03  0.00000000000E+00 0. -1.
         -5    1    5    5    0  502  0.16561255594E+02  0.35859836839E+02  0.34723288846E+02  0.52801513929E+02  0.47000000000E+01 0.  1.
         13    1    6    6    0    0  0.24852861167E+02 -0.56022175806E+02  0.34351392215E+02  0.70257861036E+02  0.00000000000E+00 0. -1.
        -14    1    6    6    0    0 -0.30787974478E+02 -0.87990823326E+02 -0.19722605917E+02  0.95285180097E+02  0.00000000000E+00 0.  1.
</event>
<event>
12    1  0.8691829E-002  0.2703866E+03  0.7818608E-02  0.1102622E+00
         21   -1    0    0  501  502  0.00000000000E+00  0.00000000000E+00  0.93322528055E+02  0.93322528055E+02  0.00000000000E+00 0.  1.
         21   -1    0    0  502  503 -0.00000000000E+00 -0.00000000000E+00 -0.76296667046E+03  0.76296667046E+03  0.00000000000E+00 0. -1.
         -6    2    1    2    0  503 -0.19581835147E+03  0.12058937639E+02 -0.37788891938E+03  0.45850779359E+03  0.17011501005E+03 0.  0.
        -24    2    3    3    0    0 -0.12127766944E+03  0.72640791701E+02 -0.25094788727E+03  0.29925142809E+03  0.81188776110E+02 0.  0.
          6    2    1    2  501    0  0.19581835147E+03 -0.12058937639E+02 -0.29175522303E+03  0.39778140493E+03  0.18606098783E+03 0.  0.
         24    2    5    5    0    0  0.89216256770E+02 -0.77276784094E+02 -0.12894711943E+03  0.19248663469E+03  0.80576070221E+02 0.  0.
          5    1    5    5  501    0  0.10660209470E+03  0.65217846454E+02 -0.16280810360E+03  0.20529477024E+03  0.47000000000E+01 0. -1.
        -11    1    6    6    0    0  0.10010184062E+03 -0.47840137062E+02 -0.10742044989E+03  0.15442865752E+03  0.00000000000E+00 0.  1.
         12    1    6    6    0    0 -0.10885583853E+02 -0.29436647032E+02 -0.21526669539E+02  0.38057977163E+02  0.00000000000E+00 0. -1.
         -5    1    3    3    0  503 -0.74540682031E+02 -0.60581854061E+02 -0.12694103211E+03  0.15925636550E+03  0.47000000000E+01 0.  1.
         11    1    4    4    0    0 -0.98096360509E+02  0.23943651467E+02 -0.11524612422E+03  0.15322487898E+03  0.00000000000E+00 0. -1.
        -12    1    4    4    0    0 -0.23181308928E+02  0.48697140234E+02 -0.13570176304E+03  0.14602654911E+03  0.00000000000E+00 0.  1.
</event>
<event>
12    1  0.8691829E-002  0.2654681E+03  0.7818608E-02  0.1103969E+00
         21   -1    0    0  503  502  0.00000000000E+00  0.00000000000E+00  0.10210123609E+04  0.10210123609E+04  0.00000000000E+00 0. -1.
         21   -1    0    0  501  503 -0.00000000000E+00 -0.00000000000E+00 -0.82587872763E+02  0.82587872763E+02  0.00000000000E+00 0.  1.
          6    2    1    2  501    0  0.17683443711E+03  0.97021524082E+02  0.69348761653E+03  0.74239754769E+03  0.17188790026E+03 0.  0.
         24    2    3    3    0    0  0.82754760204E+02  0.57899092583E+02  0.19716379249E+03  0.23570140743E+03  0.80504267804E+02 0.  0.
         -6    2    1    2    0  502 -0.17683443711E+03 -0.97021524082E+02  0.24493687164E+03  0.36120268600E+03  0.17259697276E+03 0.  0.
        -24    2    5    5    0    0 -0.45026714786E+02 -0.89853102225E+02  0.85915215939E+02  0.15447910506E+03  0.79883568691E+02 0.  0.
          5    1    3    3  501    0  0.94079676902E+02  0.39122431500E+02  0.49632382404E+03  0.50669614026E+03  0.47000000000E+01 0. -1.
        -13    1    4    4    0    0  0.60260874990E+02  0.76655555849E+02  0.13064268456E+03  0.16301827605E+03  0.00000000000E+00 0.  1.
         14    1    4    4    0    0  0.22493885215E+02 -0.18756463266E+02  0.66521107935E+02  0.72683131380E+02  0.00000000000E+00 0. -1.
         -5    1    5    5    0  502 -0.13180772232E+03 -0.71684218569E+01  0.15902165570E+03  0.20672358094E+03  0.47000000000E+01 0.  1.
         11    1    6    6    0    0 -0.14388263675E+02 -0.36017313965E+02  0.83981985907E+02  0.92505367378E+02  0.00000000000E+00 0. -1.
        -12    1    6    6    0    0 -0.30638451111E+02 -0.53835788261E+02  0.19332300322E+01  0.61973737684E+02  0.00000000000E+00 0.  1.
</event>
<event>
12    1  0.8691829E-002  0.1890591E+03  0.7818608E-02  0.1159642E+00
         21   -1    0    0  503  502  0.00000000000E+00  0.00000000000E+00  0.30593588674E+03  0.30593588674E+03  0.00000000000E+00 0.  1.
         21   -1    0    0  501  503 -0.00000000000E+00 -0.00000000000E+00 -0.40185229678E+03  0.40185229678E+03  0.00000000000E+00 0.  1.
          6    2    1    2  501    0 -0.28968736947E+02 -0.70355937598E+02 -0.34651789496E+03  0.39473789324E+03  0.17307283771E+03 0.  0.
         24    2    3    3    0    0 -0.54636890002E+02 -0.19923918582E+02 -0.31417433059E+03  0.32938929892E+03  0.80060277049E+02 0.  0.
         -6    2    1    2    0  502  0.28968736947E+02  0.70355937598E+02  0.25060148492E+03  0.31305029027E+03  0.17149412328E+03 0.  0.
        -24    2    5    5    0    0  0.19681621341E+02 -0.25895732857E+01  0.21708644140E+03  0.23210187326E+03  0.79691181592E+02 0.  0.
          5    1    3    3  501    0  0.25668153055E+02 -0.50432019016E+02 -0.32343564377E+02  0.65348594322E+02  0.47000000000E+01 0. -1.
        -13    1    4    4    0    0 -0.18482739714E+02  0.11097663113E+02 -0.24170211014E+03  0.24266165713E+03  0.00000000000E+00 0.  1.
         14    1    4    4    0    0 -0.36154150288E+02 -0.31021581695E+02 -0.72472220446E+02  0.86727641789E+02  0.00000000000E+00 0. -1.
         -5    1    5    5    0  502  0.92871156054E+01  0.72945510884E+02  0.33515043520E+02  0.80948417011E+02  0.47000000000E+01 0.  1.
         11    1    6    6    0    0  0.11430339059E+02  0.18903300943E+02  0.10898469783E+02  0.24632581699E+02  0.00000000000E+00 0. -1.
        -12    1    6    6    0    0  0.82512822826E+01 -0.21492874229E+02  0.20618797162E+03  0.20746929156E+03  0.00000000000E+00 0.  1.
</event>
<event>
12    1  0.8691829E-002  0.4037523E+03  0.7818608E-02  0.1042510E+00
         21   -1    0    0  501  502  0.00000000000E+00  0.00000000000E+00  0.22926866876E+03  0.22926866876E+03  0.00000000000E+00 0. -1.
         21   -1    0    0  502  503 -0.00000000000E+00 -0.00000000000E+00 -0.13571159196E+04  0.13571159196E+04  0.00000000000E+00 0. -1.
         -6    2    1    2    0  503 -0.36282420348E+03  0.33643404692E+02 -0.11113107652E+04  0.11822937694E+04  0.17330221865E+03 0.  0.
        -24    2    3    3    0    0 -0.35672947085E+03 -0.10564401920E+01 -0.97046847200E+03  0.10370358383E+04  0.79857643746E+02 0.  0.
          6    2    1    2  501    0  0.36282420348E+03 -0.33643404692E+02 -0.16536485566E+02  0.40409081889E+03  0.17390414961E+03 0.  0.
         24    2    5    5    0    0  0.12673671918E+03 -0.63057289064E+02  0.26232741897E+02  0.16231866654E+03  0.74971828492E+02 0.  0.
          5    1    5    5  501    0  0.23608748430E+03  0.29413884372E+02 -0.42769227463E+02  0.24177215235E+03  0.47000000000E+01 0. -1.
        -11    1    6    6    0    0 -0.33938613303E+01 -0.17047951677E+02  0.16474982542E+02  0.23949446775E+02  0.00000000000E+00 0.  1.
         12    1    6    6    0    0  0.13013058051E+03 -0.46009337387E+02  0.97577593549E+01  0.13836921976E+03  0.00000000000E+00 0. -1.
         -5    1    3    3    0  503 -0.60947326236E+01  0.34699844884E+02 -0.14084229323E+03  0.14525793115E+03  0.47000000000E+01 0.  1.
         11    1    4    4    0    0 -0.28084935723E+03  0.31976350181E+02 -0.76240814432E+03  0.81312054885E+03  0.00000000000E+00 0. -1.
        -12    1    4    4    0    0 -0.75880113627E+02 -0.33032790373E+02 -0.20806032768E+03  0.22391528942E+03  0.00000000000E+00 0.  1.
</event>
<event>
12    1  0.8691829E-002  0.1881101E+03  0.7818608E-02  0.1160515E+00
         21   -1    0    0  503  502  0.00000000000E+00  0.00000000000E+00  0.16647991573E+03  0.16647991573E+03  0.00000000000E+00 0.  1.
         21   -1    0    0  501  503 -0.00000000000E+00 -0.00000000000E+00 -0.83275262586E+03  0.83275262586E+03  0.00000000000E+00 0.  1.
          6    2    1    2  501    0  0.18766128110E+02  0.67163939470E+02 -0.76454747801E+03  0.78699840002E+03  0.17311982317E+03 0.  0.
         24    2    3    3    0    0  0.19736444121E+02 -0.59564467649E+00 -0.63889923149E+03  0.64416326916E+03  0.79775982013E+02 0.  0.
         -6    2    1    2    0  502 -0.18766128110E+02 -0.67163939470E+02  0.98274767877E+02  0.21223414157E+03  0.17470614905E+03 0.  0.
        -24    2    5    5    0    0  0.11885917378E+02 -0.32508613136E+02 -0.14570951893E+02  0.90181751150E+02  0.81989942319E+02 0.  0.
          5    1    3    3  501    0 -0.97031601066E+00  0.67759584147E+02 -0.12564824652E+03  0.14283513087E+03  0.47000000000E+01 0. -1.
        -13    1    4    4    0    0  0.36048282915E+02  0.25731981294E+02 -0.23919287896E+03  0.24325880643E+03  0.00000000000E+00 0.  1.
         14    1    4    4    0    0 -0.16311838794E+02 -0.26327625970E+02 -0.39970635253E+03  0.40090446272E+03  0.00000000000E+00 0. -1.
         -5    1    5    5    0  502 -0.30652045488E+02 -0.34655326335E+02  0.11284571977E+03  0.12205239042E+03  0.47000000000E+01 0.  1.
         11    1    6    6    0    0  0.15849944666E+02 -0.52160685177E+02 -0.32345331701E+02  0.63389102430E+02  0.00000000000E+00 0. -1.
        -12    1    6    6    0    0 -0.39640272881E+01  0.19652072042E+02  0.17774379808E+02  0.26792648720E+02  0.00000000000E+00 0.  1.
</event>
<event>
12    1  0.8691829E-002  0.1726264E+03  0.7818608E-02  0.1175451E+00
         21   -1    0    0  503  502  0.00000000000E+00  0.00000000000E+00  0.11429829245E+03  0.11429829245E+03  0.00000000000E+00 0.  1.
         21   -1    0    0  501  503 -0.00000000000E+00 -0.00000000000E+00 -0.39577984981E+03  0.39577984981E+03  0.00000000000E+00 0.  1.
          6    2    1    2  501    0  0.14870131186E+02  0.32496818004E+01 -0.29041308177E+03  0.33722081497E+03  0.17072328123E+03 0.  0.
         24    2    3    3    0    0  0.33979644202E+02  0.64011325042E+02 -0.18236965207E+03  0.21171135923E+03  0.79441448126E+02 0.  0.
         -6    2    1    2    0  502 -0.14870131186E+02 -0.32496818004E+01  0.89315244055E+01  0.17285732729E+03  0.17195407013E+03 0.  0.
        -24    2    5    5    0    0  0.32016352111E+02  0.25033464829E+02 -0.40442618116E+02  0.98977867023E+02  0.80680181188E+02 0.  0.
          5    1    3    3  501    0 -0.19109513016E+02 -0.60761643241E+02 -0.10804342970E+03  0.12550945573E+03  0.47000000000E+01 0. -1.
        -11    1    4    4    0    0  0.40829403628E+02 -0.21887685271E+01 -0.73641261921E+02  0.84231029708E+02  0.00000000000E+00 0.  1.
         12    1    4    4    0    0 -0.68497594259E+01  0.66200093569E+02 -0.10872839014E+03  0.12748032953E+03  0.00000000000E+00 0. -1.
         -5    1    5    5    0  502 -0.46886483296E+02 -0.28283146630E+02  0.49374142521E+02  0.73879460264E+02  0.47000000000E+01 0.  1.
         11    1    6    6    0    0 -0.18310870967E+02  0.28708239320E+02  0.40934146951E+00  0.34053172552E+02  0.00000000000E+00 0. -1.
        -12    1    6    6    0    0  0.50327223078E+02 -0.36747744903E+01 -0.40851959585E+02  0.64924694471E+02  0.00000000000E+00 0.  1.
</event>
<event>
12    1  0.8691829E-002  0.2163724E+03  0.7818608E-02  0.1136730E+00
         21   -1    0    0  503  502  0.00000000000E+00  0.00000000000E+00  0.54319361535E+03  0.54319361535E+03  0.00000000000E+00 0. -1.
         21   -1    0    0  501  503 -0.00000000000E+00 -0.00000000000E+00 -0.12496284766E+03  0.12496284766E+03  0.00000000000E+00 0. -1.
          6    2    1    2  501    0  0.11490334233E+03  0.60801665563E+02  0.39596969638E+03  0.45123057841E+03  0.17296651073E+03 0.  0.
         24    2    3    3    0    0  0.14788621006E+02 -0.22660118118E+02  0.19094069317E+03  0.20823302922E+03  0.78552287573E+02 0.  0.
         -6    2    1    2    0  502 -0.11490334233E+03 -0.60801665563E+02  0.22261071315E+02  0.21692588460E+03  0.17222561801E+03 0.  0.
        -24    2    5    5    0    0 -0.14165275856E+03 -0.61700043055E+02 -0.10850198549E+02  0.17409149955E+03  0.79484112154E+02 0.  0.
          5    1    3    3  501    0  0.10011472132E+03  0.83461783681E+02  0.20502900320E+03  0.24299754920E+03  0.47000000000E+01 0. -1.
        -13    1    4    4    0    0  0.66257891757E+01 -0.28026959110E+02  0.15855773020E+02  0.32875782230E+02  0.00000000000E+00 0.  1.
         14    1    4    4    0    0  0.81628318302E+01  0.53668409926E+01  0.17508492015E+03  0.17535724699E+03  0.00000000000E+00 0. -1.
         -5    1    5    5    0  502  0.26749416233E+02  0.89837749239E+00  0.33111269863E+02  0.42834385053E+02  0.47000000000E+01 0.  1.
         13    1    6    6    0    0 -0.35093639855E+02 -0.10573070694E+02  0.31717128350E+02  0.48469883566E+02  0.00000000000E+00 0. -1.
        -14    1    6    6    0    0 -0.10655911871E+03 -0.51126972362E+02 -0.42567326898E+02  0.12562161598E+03  0.00000000000E+00 0.  1.
</event>
<event>
12    1  0.8691829E-002  0.2709482E+03  0.7818608E-02  0.1100905E+00
         21   -1    0    0  501  502  0.00000000000E+00  0.00000000000E+00  0.18147136398E+03  0.18147136398E+03  0.00000000000E+00 0.  1.
         21   -1    0    0  502  503 -0.00000000000E+00 -0.00000000000E+00 -0.42501559598E+03  0.42501559598E+03  0.00000000000E+00 0. -1.
         -6    2    1    2    0  503  0.20487436723E+03 -0.40890119344E+02 -0.52696652557E+02  0.27602513246E+03  0.17253239798E+03 0.  0.
        -24    2    3    3    0    0  0.40263826225E+02 -0.46505092056E+02 -0.49728640682E+02  0.11122508021E+03  0.78193231638E+02 0.  0.
          6    2    1    2  501    0 -0.20487436723E+03  0.40890119344E+02 -0.19084757943E+03  0.33046182750E+03  0.17069479386E+03 0.  0.
         24    2    5    5    0    0 -0.14645103255E+03 -0.39812180945E+02 -0.12536697333E+03  0.21114733935E+03  0.76376738763E+02 0.  0.
          5    1    5    5  501    0 -0.58423334676E+02  0.80702300289E+02 -0.65480606101E+02  0.11931448815E+03  0.47000000000E+01 0. -1.
        -11    1    6    6    0    0  0.95435976109E+00 -0.12662301964E+02 -0.32331449376E+02  0.34735677801E+02  0.00000000000E+00 0.  1.
         12    1    6    6    0    0 -0.14740539232E+03 -0.27149878982E+02 -0.93035523958E+02  0.17641166155E+03  0.00000000000E+00 0. -1.
         -5    1    3    3    0  503  0.16461054100E+03  0.56149727128E+01 -0.29680118752E+01  0.16480005225E+03  0.47000000000E+01 0.  1.
         11    1    4    4    0    0  0.60499062844E+02 -0.50108185030E+02 -0.43250565865E+02  0.89674847419E+02  0.00000000000E+00 0. -1.
        -12    1    4    4    0    0 -0.20235236619E+02  0.36030929732E+01 -0.64780748176E+01  0.21550232791E+02  0.00000000000E+00 0.  1.
</event>
<event>
12    1  0.8691829E-002  0.1807720E+03  0.7818608E-02  0.1167134E+00
         21   -1    0    0  501  502  0.00000000000E+00  0.00000000000E+00  0.13960800679E+03  0.13960800679E+03  0.00000000000E+00 0.  1.
         21   -1    0    0  502  503 -0.00000000000E+00 -0.00000000000E+00 -0.34176963592E+03  0.34176963592E+03  0.00000000000E+00 0.  1.
         -6    2    1    2    0  503  0.34538715369E+02  0.40694077628E+02 -0.23650792015E+03  0.29768190336E+03  0.17271244448E+03 0.  0.
        -24    2    3    3    0    0  0.53954904993E+02 -0.14102762744E+02 -0.20881132730E+03  0.23311508998E+03  0.87352476080E+02 0.  0.
          6    2    1    2  501    0 -0.34538715369E+02 -0.40694077628E+02  0.34346291022E+02  0.18369573936E+03  0.17238191941E+03 0.  0.
         24    2    5    5    0    0  0.41966728395E+02 -0.18751099266E+01  0.48574625714E+01  0.92857002125E+02  0.82668649267E+02 0.  0.
          5    1    5    5  501    0 -0.76505443764E+02 -0.38818967702E+02  0.29488828451E+02  0.90838737234E+02  0.47000000000E+01 0. -1.
        -13    1    6    6    0    0 -0.18134665133E+02  0.68837726630E+01  0.22406554151E+02  0.29636229087E+02  0.00000000000E+00 0.  1.
         14    1    6    6    0    0  0.60101393528E+02 -0.87588825896E+01 -0.17549091580E+02  0.63220773038E+02  0.00000000000E+00 0. -1.
         -5    1    3    3    0  503 -0.19416189624E+02  0.54796840372E+02 -0.27696592849E+02  0.64566813378E+02  0.47000000000E+01 0.  1.
         11    1    4    4    0    0  0.37930338278E+02 -0.46395359335E+02 -0.83888853767E+02  0.10309500335E+03  0.00000000000E+00 0. -1.
        -12    1    4    4    0    0  0.16024566715E+02  0.32292596591E+02 -0.12492247353E+03  0.13002008663E+03  0.00000000000E+00 0.  1.
</event>
<event>
12    1  0.8691829E-002  0.1831680E+03  0.7818608E-02  0.1165027E+00
         21   -1    0    0  503  502  0.00000000000E+00  0.00000000000E+00  0.43900180782E+03  0.43900180782E+03  0.00000000000E+00 0. -1.
         21   -1    0    0  501  503 -0.00000000000E+00 -0.00000000000E+00 -0.77745618779E+02  0.77745618779E+02  0.00000000000E+00 0. -1.
          6    2    1    2  501    0 -0.46319814389E+02  0.40481137118E+02  0.14216516549E+03  0.23186514969E+03  0.17252902856E+03 0.  0.
         24    2    3    3    0    0  0.31478893209E+02  0.10097305960E+02  0.12028656985E+03  0.14539793598E+03  0.74691529616E+02 0.  0.
         -6    2    1    2    0  502  0.46319814389E+02 -0.40481137118E+02  0.21909102355E+03  0.28488227690E+03  0.17138491015E+03 0.  0.
        -24    2    5    5    0    0 -0.40383695718E+02 -0.10782130259E+02  0.99436119643E+02  0.13408799418E+03  0.79655201213E+02 0.  0.
          5    1    3    3  501    0 -0.77798707598E+02  0.30383831158E+02  0.21878595637E+02  0.86467213710E+02  0.47000000000E+01 0. -1.
        -11    1    4    4    0    0 -0.19259901309E+02  0.71335611065E+01  0.73504235990E+02  0.76319749743E+02  0.00000000000E+00 0.  1.
         12    1    4    4    0    0  0.50738794518E+02  0.29637448539E+01  0.46782333862E+02  0.69078186240E+02  0.00000000000E+00 0. -1.
         -5    1    5    5    0  502  0.86703510108E+02 -0.29699006859E+02  0.11965490391E+03  0.15079428272E+03  0.47000000000E+01 0.  1.
         13    1    6    6    0    0  0.92576398314E+01 -0.33472684224E+02  0.46642235315E+02  0.58151720522E+02  0.00000000000E+00 0. -1.
        -14    1    6    6    0    0 -0.49641335550E+02  0.22690553965E+02  0.52793884327E+02  0.75936273656E+02  0.00000000000E+00 0.  1.
</event>
<event>
12    1  0.8691829E-002  0.1936394E+03  0.7818608E-02  0.1156490E+00
         21   -1    0    0  501  502  0.00000000000E+00  0.00000000000E+00  0.11661214443E+03  0.11661214443E+03  0.00000000000E+00 0.  1.
         21   -1    0    0  502  503 -0.00000000000E+00 -0.00000000000E+00 -0.35197005702E+03  0.35197005702E+03  0.00000000000E+00 0. -1.
         -6    2    1    2    0  503  0.18901549721E+02  0.81312115922E+02 -0.40463909086E+02  0.19782203798E+03  0.17472063987E+03 0.  0.
        -24    2    3    3    0    0  0.66975465540E+02  0.84808541593E+02 -0.59452417647E+02  0.14580300462E+03  0.77754256996E+02 0.  0.
          6    2    1    2  501    0 -0.18901549721E+02 -0.81312115922E+02 -0.19489400351E+03  0.27076016347E+03  0.16839971716E+03 0.  0.
         24    2    5    5    0    0  0.22052397572E+02 -0.70035036704E+02 -0.50852615553E+02  0.12051233567E+03  0.80907477620E+02 0.  0.
          5    1    5    5  501    0 -0.40953947293E+02 -0.11277079218E+02 -0.14404138796E+03  0.15024782780E+03  0.47000000000E+01 0. -1.
        -13    1    6    6    0    0  0.95967368327E+01 -0.13436464380E+02 -0.59652117220E+02  0.61895161537E+02  0.00000000000E+00 0.  1.
         14    1    6    6    0    0  0.12455660739E+02 -0.56598572323E+02  0.87995016672E+01  0.58617174131E+02  0.00000000000E+00 0. -1.
         -5    1    3    3    0  503 -0.48073915819E+02 -0.34964256710E+01  0.18988508562E+02  0.52019033363E+02  0.47000000000E+01 0.  1.
         13    1    4    4    0    0 -0.43411831858E+00  0.42710025042E+02 -0.50012151594E+02  0.65768913667E+02  0.00000000000E+00 0. -1.
        -14    1    4    4    0    0  0.67409583858E+02  0.42098516551E+02 -0.94402660532E+01  0.80034090954E+02  0.00000000000E+00 0.  1.
</event>
<event>
12    1  0.8691829E-002  0.2218386E+03  0.7818608E-02  0.1132555E+00
         21   -1    0    0  503  502  0.00000000000E+00  0.00000000000E+00  0.10291749281E+03  0.10291749281E+03  0.00000000000E+00 0.  1.
         21   -1    0    0  501  503 -0.00000000000E+00 -0.00000000000E+00 -0.50049204438E+03  0.50049204438E+03  0.00000000000E+00 0.  1.
          6    2    1    2  501    0  0.69666970761E+02  0.12118008767E+03 -0.13441327714E+03  0.25922029142E+03  0.17201781869E+03 0.  0.
         24    2    3    3    0    0  0.12923250588E+02  0.13525692985E+03 -0.12085137283E+03  0.19902043666E+03  0.80886540379E+02 0.  0.
         -6    2    1    2    0  502 -0.69666970761E+02 -0.12118008767E+03 -0.26316127442E+03  0.34418924576E+03  0.17226224218E+03 0.  0.
        -24    2    5    5    0    0 -0.31789381780E+02 -0.88079678959E+02 -0.64584584298E+02  0.13928648672E+03  0.80380110805E+02 0.  0.
          5    1    3    3  501    0  0.56743720173E+02 -0.14076842175E+02 -0.13561904314E+02  0.60199854761E+02  0.47000000000E+01 0. -1.
        -11    1    4    4    0    0  0.45054797690E+02  0.56316303937E+02 -0.45627487126E+02  0.85342418910E+02  0.00000000000E+00 0.  1.
         12    1    4    4    0    0 -0.32131547102E+02  0.78940625909E+02 -0.75223885705E+02  0.11367801775E+03  0.00000000000E+00 0. -1.
         -5    1    5    5    0  502 -0.37877588981E+02 -0.33100408712E+02 -0.19857669013E+03  0.20490275905E+03  0.47000000000E+01 0.  1.
         13    1    6    6    0    0 -0.42090362112E+02 -0.96623501390E+02 -0.68061116879E+02  0.12545921741E+03  0.00000000000E+00 0. -1.
        -14    1    6    6    0    0  0.10300980332E+02  0.85438224305E+01  0.34765325812E+01  0.13827269300E+02  0.00000000000E+00 0.  1.
</event>
<event>
12    1  0.8691829E-002  0.2320362E+03  0.7818608E-02  0.1125413E+00
         21   -1    0    0  503  502  0.00000000000E+00  0.00000000000E+00  0.18492375062E+03  0.18492375062E+03  0.00000000000E+00 0.  1.
         21   -1    0    0  501  503 -0.00000000000E+00 -0.00000000000E+00 -0.30102859757E+03  0.30102859757E+03  0.00000000000E+00 0. -1.
          6    2    1    2  501    0  0.11633838775E+03 -0.10417640146E+03 -0.10527188957E+03  0.25479981908E+03  0.17162002793E+03 0.  0.
         24    2    3    3    0    0  0.13510288245E+03 -0.33686194965E+02 -0.91325518516E+02  0.18038499033E+03  0.69360261150E+02 0.  0.
         -6    2    1    2    0  502 -0.11633838775E+03  0.10417640146E+03 -0.10832957385E+02  0.23115252911E+03  0.17007879251E+03 0.  0.
        -24    2    5    5    0    0 -0.67524543546E+01  0.88750664568E+02 -0.12740162736E+02  0.12037005040E+03  0.80027252773E+02 0.  0.
          5    1    3    3  501    0 -0.18764494701E+02 -0.70490206496E+02 -0.13946371049E+02  0.74414828755E+02  0.47000000000E+01 0. -1.
        -11    1    4    4    0    0  0.10624405856E+02 -0.16653677332E+02  0.68814608105E+01  0.20918352501E+02  0.00000000000E+00 0.  1.
         12    1    4    4    0    0  0.12447847659E+03 -0.17032517633E+02 -0.98206979327E+02  0.15946663783E+03  0.00000000000E+00 0. -1.
         -5    1    5    5    0  502 -0.10958593339E+03  0.15425736893E+02  0.19072053507E+01  0.11078247871E+03  0.47000000000E+01 0.  1.
         11    1    6    6    0    0  0.49230216798E+01  0.61468742013E+02 -0.45149391116E+02  0.76427154240E+02  0.00000000000E+00 0. -1.
        -12    1    6    6    0    0 -0.11675476034E+02  0.27281922555E+02  0.32409228380E+02  0.43942896162E+02  0.00000000000E+00 0.  1.
</event>
<event>
12    1  0.8691829E-002  0.2502394E+03  0.7818608E-02  0.1113227E+00
         21   -1    0    0  501  502  0.00000000000E+00  0.00000000000E+00  0.17069075270E+03  0.17069075270E+03  0.00000000000E+00 0.  1.
         21   -1    0    0  502  503 -0.00000000000E+00 -0.00000000000E+00 -0.44966233420E+03  0.44966233420E+03  0.00000000000E+00 0. -1.
         -6    2    1    2    0  503  0.10797862120E+03  0.14540039110E+03 -0.27302964985E+03  0.37004318639E+03  0.17200614445E+03 0.  0.
        -24    2    3    3    0    0  0.14089103980E+03  0.91978600337E+02 -0.21196247671E+03  0.28235963798E+03  0.80551384902E+02 0.  0.
          6    2    1    2  501    0 -0.10797862120E+03 -0.14540039110E+03 -0.59419316465E+01  0.25030990050E+03  0.17268202967E+03 0.  0.
         24    2    5    5    0    0 -0.14178808376E+03 -0.10411813528E+03 -0.22097046136E+02  0.19436008256E+03  0.79643678059E+02 0.  0.
          5    1    5    5  501    0  0.33809462556E+02 -0.41282255818E+02  0.16155114490E+02  0.55949817944E+02  0.47000000000E+01 0. -1.
        -13    1    6    6    0    0 -0.14065823936E+03 -0.82947945514E+02  0.60856802280E+00  0.16329565922E+03  0.00000000000E+00 0.  1.
         14    1    6    6    0    0 -0.11298443972E+01 -0.21170189769E+02 -0.22705614159E+02  0.31064423341E+02  0.00000000000E+00 0. -1.
         -5    1    3    3    0  503 -0.32912418602E+02  0.53421790764E+02 -0.61067173143E+02  0.87683548413E+02  0.47000000000E+01 0.  1.
         11    1    4    4    0    0 -0.75095381044E+01  0.18381732929E+02 -0.14326874702E+02  0.24485518307E+02  0.00000000000E+00 0. -1.
        -12    1    4    4    0    0  0.14840057791E+03  0.73596867408E+02 -0.19763560201E+03  0.25787411967E+03  0.00000000000E+00 0.  1.
</event>
<event>
12    1  0.8691829E-002  0.2265689E+03  0.7818608E-02  0.1129710E+00
         21   -1    0    0  501  502  0.00000000000E+00  0.00000000000E+00  0.36196115506E+03  0.36196115506E+03  0.00000000000E+00 0. -1.
         21   -1    0    0  502  503 -0.00000000000E+00 -0.00000000000E+00 -0.13974193204E+03  0.13974193204E+03  0.00000000000E+00 0. -1.
         -6    2    1    2    0  503  0.46958258177E+02 -0.13703930079E+03  0.10360888913E+03  0.24596521486E+03  0.16964444301E+03 0.  0.
        -24    2    3    3    0    0 -0.34660566891E+02 -0.98880164779E+02  0.73978842490E+02  0.15100321230E+03  0.79689767884E+02 0.  0.
          6    2    1    2  501    0 -0.46958258177E+02  0.13703930079E+03  0.11861033389E+03  0.25573787224E+03  0.17420849584E+03 0.  0.
         24    2    5    5    0    0 -0.11652102754E+01  0.15307559603E+03  0.62342268264E+02  0.18129090313E+03  0.74473735840E+02 0.  0.
          5    1    5    5  501    0 -0.45793047901E+02 -0.16036295244E+02  0.56268065623E+02  0.74446969114E+02  0.47000000000E+01 0. -1.
        -13    1    6    6    0    0 -0.43394585483E+00  0.14468912561E+01 -0.12224536003E+02  0.12317511266E+02  0.00000000000E+00 0.  1.
         14    1    6    6    0    0 -0.73126442061E+00  0.15162870477E+03  0.74566804266E+02  0.16897339186E+03  0.00000000000E+00 0. -1.
         -5    1    3    3    0  503  0.81618825068E+02 -0.38159136008E+02  0.29630046638E+02  0.94962002560E+02  0.47000000000E+01 0.  1.
         11    1    4    4    0    0 -0.74243018148E+01 -0.10360328814E+03  0.55669988498E+02  0.11784697361E+03  0.00000000000E+00 0. -1.
        -12    1    4    4    0    0 -0.27236265077E+02  0.47231233577E+01  0.18308853993E+02  0.33156238690E+02  0.00000000000E+00 0.  1.
</event>
<event>
12    1  0.8691829E-002  0.1922100E+03  0.7818608E-02  0.1156776E+00
         21   -1    0    0  503  502  0.00000000000E+00  0.00000000000E+00  0.45600149875E+02  0.45600149875E+02  0.00000000000E+00 0. -1.
         21   -1    0    0  501  503 -0.00000000000E+00 -0.00000000000E+00 -0.83540480574E+03  0.83540480574E+03  0.00000000000E+00 0. -1.
          6    2    1    2  501    0 -0.18300289639E+02 -0.81690209549E+02 -0.47809742667E+03  0.51479997569E+03  0.17156245114E+03 0.  0.
         24    2    3    3    0    0 -0.26811074724E+02  0.14019103153E+02 -0.14970273634E+03  0.17260431727E+03  0.80411268443E+02 0.  0.
         -6    2    1    2    0  502  0.18300289639E+02  0.81690209549E+02 -0.31170722920E+03  0.36620497993E+03  0.17302167394E+03 0.  0.
        -24    2    5    5    0    0 -0.39187477617E+02  0.86053151208E+02 -0.26165446934E+03  0.28971153307E+03  0.80801657343E+02 0.  0.
          5    1    3    3  501    0  0.85107850846E+01 -0.95709312702E+02 -0.32839469033E+03  0.34219565841E+03  0.47000000000E+01 0. -1.
        -13    1    4    4    0    0  0.15877116495E+02  0.22189792575E+02 -0.11133331113E+03  0.11462798912E+03  0.00000000000E+00 0.  1.
         14    1    4    4    0    0 -0.42688191219E+02 -0.81706894217E+01 -0.38369425212E+02  0.57976328154E+02  0.00000000000E+00 0. -1.
         -5    1    5    5    0  502  0.57487767256E+02 -0.43629416592E+01 -0.50052759854E+02  0.76493446863E+02  0.47000000000E+01 0.  1.
         11    1    6    6    0    0  0.11048951462E+02  0.44474597447E+02 -0.48156045897E+02  0.66476115281E+02  0.00000000000E+00 0. -1.
        -12    1    6    6    0    0 -0.50236429079E+02  0.41578553761E+02 -0.21349842345E+03  0.22323541778E+03  0.00000000000E+00 0.  1.
</event>
<event>
12    1  0.8691829E-002  0.2224583E+03  0.7818608E-02  0.1132207E+00
         21   -1    0    0  501  502  0.00000000000E+00  0.00000000000E+00  0.29290002485E+04  0.29290002485E+04  0.00000000000E+00 0. -1.
         21   -1    0    0  502  503 -0.00000000000E+00 -0.00000000000E+00 -0.22378079730E+02  0.22378079730E+02  0.00000000000E+00 0.  1.
         -6    2    1    2    0  503  0.13661088631E+03 -0.37328967233E+02  0.71704717403E+03  0.75053158775E+03  0.17054333285E+03 0.  0.
        -24    2    3    3    0    0  0.29712549676E+02 -0.61903058356E+02  0.26510739511E+03  0.28544794571E+03  0.80521888478E+02 0.  0.
          6    2    1    2  501    0 -0.13661088631E+03  0.37328967233E+02  0.21895749947E+04  0.22008467405E+04  0.17155678773E+03 0.  0.
         24    2    5    5    0    0 -0.86473908359E+02 -0.43512764513E+02  0.13917516176E+04  0.13973585121E+04  0.79165324028E+02 0.  0.
          5    1    5    5  501    0 -0.50136977954E+02  0.80841731746E+02  0.79782337710E+03  0.80348822841E+03  0.47000000000E+01 0. -1.
        -13    1    6    6    0    0 -0.90236059746E+02 -0.22283080320E+02  0.82904432967E+03  0.83423832489E+03  0.00000000000E+00 0.  1.
         14    1    6    6    0    0  0.37621513867E+01 -0.21229684193E+02  0.56270728796E+03  0.56312018717E+03  0.00000000000E+00 0. -1.
         -5    1    3    3    0  503  0.10689833664E+03  0.24574091123E+02  0.45193977892E+03  0.46508364205E+03  0.47000000000E+01 0.  1.
         11    1    4    4    0    0  0.41945446709E+02 -0.69897978832E+02  0.16245153226E+03  0.18175711342E+03  0.00000000000E+00 0. -1.
        -12    1    4    4    0    0 -0.12232897033E+02  0.79949204759E+01  0.10265586285E+03  0.10369083229E+03  0.00000000000E+00 0.  1.
</event>
<event>
12    1  0.8691829E-002  0.2011682E+03  0.7818608E-02  0.1149169E+00
         21   -1    0    0  501  502  0.00000000000E+00  0.00000000000E+00  0.16393072819E+04  0.16393072819E+04  0.00000000000E+00 0.  1.
         21   -1    0    0  502  503 -0.00000000000E+00 -0.00000000000E+00 -0.27318523069E+02  0.27318523069E+02  0.00000000000E+00 0. -1.
         -6    2    1    2    0  503  0.99115724024E+02  0.27954136052E+02  0.53230044325E+03  0.56835648229E+03  0.17052849792E+03 0.  0.
        -24    2    3    3    0    0  0.10909516255E+03  0.11533127135E+02  0.24401950219E+03  0.27939761029E+03  0.80515462325E+02 0.  0.
          6    2    1    2  501    0 -0.99115724024E+02 -0.27954136052E+02  0.10796883155E+04  0.10982693226E+04  0.17280997038E+03 0.  0.
         24    2    5    5    0    0 -0.88269344366E+02 -0.82674236193E+02  0.75831403878E+03  0.77205551380E+03  0.80018925883E+02 0.  0.
          5    1    5    5  501    0 -0.10846379658E+02  0.54720100141E+02  0.32137427677E+03  0.32621380884E+03  0.47000000000E+01 0. -1.
        -11    1    6    6    0    0  0.46262415908E+01 -0.20900207971E+02  0.28369996845E+03  0.28450640222E+03  0.00000000000E+00 0.  1.
         12    1    6    6    0    0 -0.92895585957E+02 -0.61774028221E+02  0.47461407032E+03  0.48754911158E+03  0.00000000000E+00 0. -1.
         -5    1    3    3    0  503 -0.99794385306E+01  0.16421008917E+02  0.28828094106E+03  0.28895887200E+03  0.47000000000E+01 0.  1.
         11    1    4    4    0    0  0.82197682825E+02  0.29857788748E+02  0.10514555325E+03  0.13676086421E+03  0.00000000000E+00 0. -1.
        -12    1    4    4    0    0  0.26897479730E+02 -0.18324661614E+02  0.13887394894E+03  0.14263674608E+03  0.00000000000E+00 0.  1.
</event>
<event>
12    1  0.8691829E-002  0.2001311E+03  0.7818608E-02  0.1149719E+00
         21   -1    0    0  503  502  0.00000000000E+00  0.00000000000E+00  0.75992430948E+03  0.75992430948E+03  0.00000000000E+00 0. -1.
         21   -1    0    0  501  503 -0.00000000000E+00 -0.00000000000E+00 -0.62236679996E+02  0.62236679996E+02  0.00000000000E+00 0. -1.
          6    2    1    2  501    0  0.78344059287E+02  0.62552941255E+02  0.18734228282E+03  0.27413426480E+03  0.17321028296E+03 0.  0.
         24    2    3    3    0    0  0.10422226039E+03  0.36924180365E+02  0.19433934069E+03  0.23675026427E+03  0.77828231601E+02 0.  0.
         -6    2    1    2    0  502 -0.78344059287E+02 -0.62552941255E+02  0.51034534666E+03  0.54802672467E+03  0.17271437697E+03 0.  0.
        -24    2    5    5    0    0 -0.78391686869E+02  0.21256933558E+02  0.31689825584E+03  0.33715243906E+03  0.81548444596E+02 0.  0.
          5    1    3    3  501    0 -0.25878201103E+02  0.25628760890E+02 -0.69970578715E+01  0.37384000535E+02  0.47000000000E+01 0. -1.
        -11    1    4    4    0    0 -0.84819128570E+01 -0.22413308511E+01  0.43754724677E+02  0.44625579450E+02  0.00000000000E+00 0.  1.
         12    1    4    4    0    0  0.11270417325E+03  0.39165511216E+02  0.15058461602E+03  0.19212468482E+03  0.00000000000E+00 0. -1.
         -5    1    5    5    0  502  0.47627582071E-01 -0.83809874813E+02  0.19344709082E+03  0.21087428561E+03  0.47000000000E+01 0.  1.
         13    1    6    6    0    0 -0.20265813203E+02  0.13819786533E+02  0.23593975856E+03  0.23721142332E+03  0.00000000000E+00 0. -1.
        -14    1    6    6    0    0 -0.58125873667E+02  0.74371470244E+01  0.80958497280E+02  0.99941015740E+02  0.00000000000E+00 0.  1.
</event>
<event>
12    1  0.8691829E-002  0.1839612E+03  0.7818608E-02  0.1164202E+00
         21   -1    0    0  501  502  0.00000000000E+00  0.00000000000E+00  0.38882796040E+03  0.38882796040E+03  0.00000000000E+00 0. -1.
         21   -1    0    0  502  503 -0.00000000000E+00 -0.00000000000E+00 -0.10071391329E+03  0.10071391329E+03  0.00000000000E+00 0. -1.
         -6    2    1    2    0  503  0.63351772974E+02 -0.25069930752E+02  0.52935679964E+02  0.19142597555E+03  0.17087939997E+03 0.  0.
        -24    2    3    3    0    0  0.36571404444E+02 -0.84800854077E+02  0.28343174157E+02  0.12134136467E+03  0.73428460311E+02 0.  0.
          6    2    1    2  501    0 -0.63351772974E+02  0.25069930752E+02  0.23517836715E+03  0.29811589814E+03  0.17006550439E+03 0.  0.
         24    2    5    5    0    0  0.21147153969E+01 -0.40603595066E+02  0.12697859524E+03  0.15553906365E+03  0.80098144282E+02 0.  0.
          5    1    5    5  501    0 -0.65466488371E+02  0.65673525818E+02  0.10819977190E+03  0.14257683449E+03  0.47000000000E+01 0. -1.
        -11    1    6    6    0    0  0.19052327654E+02  0.13863221762E+02  0.10402210889E+02  0.25756282691E+02  0.00000000000E+00 0.  1.
         12    1    6    6    0    0 -0.16937612257E+02 -0.54466816827E+02  0.11657638436E+03  0.12978278096E+03  0.00000000000E+00 0. -1.
         -5    1    3    3    0  503  0.26780368529E+02  0.59730923325E+02  0.24592505807E+02  0.70084610876E+02  0.47000000000E+01 0.  1.
         11    1    4    4    0    0  0.40141518499E+02 -0.22179983854E+02 -0.11180365126E+02  0.47204806488E+02  0.00000000000E+00 0. -1.
        -12    1    4    4    0    0 -0.35701140550E+01 -0.62620870223E+02  0.39523539282E+02  0.74136558183E+02  0.00000000000E+00 0.  1.
</event>
<event>
12    1  0.8691829E-002  0.1804559E+03  0.7818608E-02  0.1167839E+00
         21   -1    0    0  503  502  0.00000000000E+00  0.00000000000E+00  0.50700199726E+02  0.50700199726E+02  0.00000000000E+00 0. -1.
         21   -1    0    0  501  503 -0.00000000000E+00 -0.00000000000E+00 -0.11842551428E+04  0.11842551428E+04  0.00000000000E+00 0. -1.
          6    2    1    2  501    0 -0.24833900362E+02  0.48107872426E+02 -0.98550613530E+03  0.10015399004E+04  0.17008450648E+03 0.  0.
         24    2    3    3    0    0  0.31929365394E+02  0.63835420754E+02 -0.43387804400E+03  0.44675609995E+03  0.79034235971E+02 0.  0.
         -6    2    1    2    0  502  0.24833900362E+02 -0.48107872426E+02 -0.14804880773E+03  0.23341544210E+03  0.17214304849E+03 0.  0.
        -24    2    5    5    0    0  0.55135690415E+02 -0.13195699430E+02 -0.15885836249E+03  0.18570805506E+03  0.77700910807E+02 0.  0.
          5    1    3    3  501    0 -0.56763265756E+02 -0.15727548327E+02 -0.55162809130E+03  0.55478380043E+03  0.47000000000E+01 0. -1.
        -13    1    4    4    0    0 -0.19349371681E+02  0.43336512745E+02 -0.14263587935E+03  0.15032446773E+03  0.00000000000E+00 0.  1.
         14    1    4    4    0    0  0.51278737075E+02  0.20498908009E+02 -0.29124216466E+03  0.29643163222E+03  0.00000000000E+00 0. -1.
         -5    1    5    5    0  502 -0.30301790053E+02 -0.34912172997E+02  0.10809554762E+02  0.47707387037E+02  0.47000000000E+01 0.  1.
         13    1    6    6    0    0 -0.11511534521E+02 -0.15144309447E+02 -0.77454591155E+01  0.20539174096E+02  0.00000000000E+00 0. -1.
        -14    1    6    6    0    0  0.66647224935E+02  0.19486100175E+01 -0.15111290337E+03  0.16516888096E+03  0.00000000000E+00 0.  1.
</event>
<event>
12    1  0.8691829E-002  0.1761549E+03  0.7818608E-02  0.1171716E+00
         21   -1    0    0  501  502  0.00000000000E+00  0.00000000000E+00  0.16653314960E+03  0.16653314960E+03  0.00000000000E+00 0. -1.
         21   -1    0    0  502  503 -0.00000000000E+00 -0.00000000000E+00 -0.83891010724E+03  0.83891010724E+03  0.00000000000E+00 0. -1.
         -6    2    1    2    0  503 -0.10670309111E+02  0.32830266056E+02 -0.77989734669E+03  0.79954387176E+03  0.17273925329E+03 0.  0.
        -24    2    3    3    0    0 -0.75815260686E+02  0.33429330466E+02 -0.42239548619E+03  0.43612415042E+03  0.70148798580E+02 0.  0.
          6    2    1    2  501    0  0.10670309111E+02 -0.32830266056E+02  0.10752038906E+03  0.20589938508E+03  0.17216922154E+03 0.  0.
         24    2    5    5    0    0  0.11697865907E+02  0.10264886166E+02  0.13137299687E+03  0.15640913435E+03  0.83443064688E+02 0.  0.
          5    1    5    5  501    0 -0.10275567957E+01 -0.43095152221E+02 -0.23852607812E+02  0.49490250731E+02  0.47000000000E+01 0. -1.
        -13    1    6    6    0    0  0.46148488799E+02  0.97678450488E+01  0.53936669900E+02  0.71653738041E+02  0.00000000000E+00 0.  1.
         14    1    6    6    0    0 -0.34450622893E+02  0.49704111689E+00  0.77436326975E+02  0.84755396306E+02  0.00000000000E+00 0. -1.
         -5    1    3    3    0  503  0.65144951574E+02 -0.59906441061E+00 -0.35750186051E+03  0.36341972134E+03  0.47000000000E+01 0.  1.
         11    1    4    4    0    0 -0.71166970188E+02  0.14231946943E+02 -0.19837018192E+03  0.21122976834E+03  0.00000000000E+00 0. -1.
        -12    1    4    4    0    0 -0.46482904979E+01  0.19197383523E+02 -0.22402530427E+03  0.22489438208E+03  0.00000000000E+00 0.  1.
</event>
<event>
12    1  0.8691829E-002  0.2349457E+03  0.7818608E-02  0.1123229E+00
         21   -1    0    0  503  502  0.00000000000E+00  0.00000000000E+00  0.66235814054E+03  0.66235814054E+03  0.00000000000E+00 0.  1.
         21   -1    0    0  501  503 -0.00000000000E+00 -0.00000000000E+00 -0.83752517204E+02  0.83752517204E+02  0.00000000000E+00 0.  1.
          6    2    1    2  501    0 -0.12206599409E+03 -0.10286954774E+03  0.26170889487E+03  0.35169735768E+03  0.17238687589E+03 0.  0.
         24    2    3    3    0    0 -0.61869686903E+02 -0.13109562442E+03  0.15656207965E+03  0.22720539186E+03  0.78081267962E+02 0.  0.
         -6    2    1    2    0  502  0.12206599409E+03  0.10286954774E+03  0.31689672846E+03  0.39441330006E+03  0.17220936091E+03 0.  0.
        -24    2    5    5    0    0 -0.81062708668E+01  0.46131913531E+02  0.12837734648E+03  0.15835054339E+03  0.80001790170E+02 0.  0.
          5    1    3    3  501    0 -0.60196307192E+02  0.28226076676E+02  0.10514681522E+03  0.12449196582E+03  0.47000000000E+01 0. -1.
        -11    1    4    4    0    0 -0.89099193967E+01 -0.55694779427E+02  0.11079091088E+03  0.12432184463E+03  0.00000000000E+00 0.  1.
         12    1    4    4    0    0 -0.52959767506E+02 -0.75400844990E+02  0.45771168772E+02  0.10288354723E+03  0.00000000000E+00 0. -1.
         -5    1    5    5    0  502  0.13017226496E+03  0.56737634210E+02  0.18851938198E+03  0.23606275667E+03  0.47000000000E+01 0.  1.
         13    1    6    6    0    0  0.28873737252E+02  0.40313644015E+02  0.99145620807E+02  0.11085457465E+03  0.00000000000E+00 0. -1.
        -14    1    6    6    0    0 -0.36980008119E+02  0.58182695159E+01  0.29231725674E+02  0.47495968740E+02  0.00000000000E+00 0.  1.
</event>
<event>
12    1  0.8691829E-002  0.2197720E+03  0.7818608E-02  0.1134315E+00
         21   -1    0    0  503  502  0.00000000000E+00  0.00000000000E+00  0.41071862901E+04  0.41071862901E+04  0.00000000000E+00 0. -1.
         21   -1    0    0  501  503 -0.00000000000E+00 -0.00000000000E+00 -0.19862932906E+02  0.19862932906E+02  0.00000000000E+00 0. -1.
          6    2    1    2  501    0 -0.12000715590E+03 -0.69481908046E+02  0.33638824056E+04  0.33709628898E+04  0.16869058202E+03 0.  0.
         24    2    3    3    0    0 -0.12925220468E+03 -0.10034038138E+03  0.29911915984E+04  0.29968529540E+04  0.84416377091E+02 0.  0.
         -6    2    1    2    0  502  0.12000715590E+03  0.69481908046E+02  0.72344095156E+03  0.75608633321E+03  0.17050008754E+03 0.  0.
        -24    2    5    5    0    0  0.15294140413E+03  0.60745756019E+02  0.65349290289E+03  0.67813888571E+03  0.75751265403E+02 0.  0.
          5    1    3    3  501    0  0.92450487797E+01  0.30858473335E+02  0.37269080720E+03  0.37410993581E+03  0.47000000000E+01 0. -1.
        -11    1    4    4    0    0 -0.31394581586E+02 -0.61811658427E+02  0.75071261898E+03  0.75390698177E+03  0.00000000000E+00 0.  1.
         12    1    4    4    0    0 -0.97857623097E+02 -0.38528722954E+02  0.22404789794E+04  0.22429459722E+04  0.00000000000E+00 0. -1.
         -5    1    5    5    0  502 -0.32934248228E+02  0.87361520272E+01  0.69948048675E+02  0.77947447501E+02  0.47000000000E+01 0.  1.
         11    1    6    6    0    0  0.16887663307E+02  0.70666901012E+01  0.16747716240E+02  0.24811635984E+02  0.00000000000E+00 0. -1.
        -12    1    6    6    0    0  0.13605374082E+03  0.53679065918E+02  0.63674518665E+03  0.65332724972E+03  0.00000000000E+00 0.  1.
</event>
<event>
12    1  0.8691829E-002  0.2120639E+03  0.7818608E-02  0.1139943E+00
         21   -1    0    0  503  502  0.00000000000E+00  0.00000000000E+00  0.56669101984E+02  0.56669101984E+02  0.00000000000E+00 0. -1.
         21   -1    0    0  501  503 -0.00000000000E+00 -0.00000000000E+00 -0.88439455541E+03  0.88439455541E+03  0.00000000000E+00 0. -1.
          6    2    1    2  501    0 -0.90377478290E+02 -0.85440890976E+02 -0.56466910081E+03  0.60317682974E+03  0.17176396622E+03 0.  0.
         24    2    3    3    0    0 -0.78749979452E+02 -0.65696693928E+02 -0.20834241840E+03  0.24608324727E+03  0.81441920554E+02 0.  0.
         -6    2    1    2    0  502  0.90377478290E+02  0.85440890976E+02 -0.26305635261E+03  0.33788682765E+03  0.17175747208E+03 0.  0.
        -24    2    5    5    0    0 -0.16044377106E+02  0.22801420363E+02 -0.14164247660E+03  0.16464499127E+03  0.79171050043E+02 0.  0.
          5    1    3    3  501    0 -0.11627498839E+02 -0.19744197047E+02 -0.35632668241E+03  0.35709358247E+03  0.47000000000E+01 0. -1.
        -11    1    4    4    0    0 -0.52278897390E+02  0.47590096245E+01 -0.59879677605E+02  0.79632324310E+02  0.00000000000E+00 0.  1.
         12    1    4    4    0    0 -0.26471082062E+02 -0.70455703553E+02 -0.14846274080E+03  0.16645092296E+03  0.00000000000E+00 0. -1.
         -5    1    5    5    0  502  0.10642185540E+03  0.62639470613E+02 -0.12141387601E+03  0.17324183638E+03  0.47000000000E+01 0.  1.
         13    1    6    6    0    0  0.41716510061E+01  0.31645628984E+02 -0.13567789740E+02  0.34683330640E+02  0.00000000000E+00 0. -1.
        -14    1    6    6    0    0 -0.20216028113E+02 -0.88442086208E+01 -0.12807468686E+03  0.12996166063E+03  0.00000000000E+00 0.  1.
</event>
<event>
12    1  0.8691829E-002  0.1827041E+03  0.7818608E-02  0.1165293E+00
         21   -1    0    0  501  502  0.00000000000E+00  0.00000000000E+00  0.61530943091E+03  0.61530943091E+03  0.00000000000E+00 0. -1.
         21   -1    0    0  502  503 -0.00000000000E+00 -0.00000000000E+00 -0.16357032556E+03  0.16357032556E+03  0.00000000000E+00 0. -1.
         -6    2    1    2    0  503 -0.61030304230E+02  0.16683539248E+02 -0.92724105383E+02  0.20457933532E+03  0.17103188651E+03 0.  0.
        -24    2    3    3    0    0  0.41275807209E+01  0.66681134013E+02 -0.52186318036E+02  0.11286940316E+03  0.74516305752E+02 0.  0.
          6    2    1    2  501    0  0.61030304230E+02 -0.16683539248E+02  0.54446321073E+03  0.57430042115E+03  0.17139937974E+03 0.  0.
         24    2    5    5    0    0  0.38544172497E+02 -0.73456104053E+02  0.42135262332E+03  0.43679748675E+03  0.79828308251E+02 0.  0.
          5    1    5    5  501    0  0.22486131733E+02  0.56772564806E+02  0.12311058741E+03  0.13750293440E+03  0.47000000000E+01 0. -1.
        -13    1    6    6    0    0  0.31617531748E+02 -0.60173445957E+02  0.14611417798E+03  0.16115168295E+03  0.00000000000E+00 0.  1.
         14    1    6    6    0    0  0.69266407499E+01 -0.13282658096E+02  0.27523844534E+03  0.27564580380E+03  0.00000000000E+00 0. -1.
         -5    1    3    3    0  503 -0.65157884951E+02 -0.49997594766E+02 -0.40537787347E+02  0.91709932159E+02  0.47000000000E+01 0.  1.
         13    1    4    4    0    0  0.35938090535E+02  0.33483055305E+02 -0.44448268825E+02  0.66244320100E+02  0.00000000000E+00 0. -1.
        -14    1    4    4    0    0 -0.31810509814E+02  0.33198078708E+02 -0.77380492101E+01  0.46625083057E+02  0.00000000000E+00 0.  1.
</event>
<event>
12    1  0.8691829E-002  0.1901283E+03  0.7818608E-02  0.1158433E+00
         21   -1    0    0  501  502  0.00000000000E+00  0.00000000000E+00  0.89412487219E+03  0.89412487219E+03  0.00000000000E+00 0.  1.
         21   -1    0    0  502  503 -0.00000000000E+00 -0.00000000000E+00 -0.93166738972E+02  0.93166738972E+02  0.00000000000E+00 0.  1.
         -6    2    1    2    0  503  0.80334016891E+02  0.12945670704E+02  0.28612720531E+02  0.19188843689E+03  0.17140985904E+03 0.  0.
        -24    2    3    3    0    0  0.31671501414E+02  0.16715563942E+02 -0.47223274528E+02  0.10158095850E+03  0.82499450863E+02 0.  0.
          6    2    1    2  501    0 -0.80334016891E+02 -0.12945670704E+02  0.77234541269E+03  0.79540317427E+03  0.17183605116E+03 0.  0.
         24    2    5    5    0    0 -0.43647881181E+02 -0.33903132265E+02  0.72540168446E+03  0.73207157577E+03  0.81649423283E+02 0.  0.
          5    1    5    5  501    0 -0.36686135710E+02  0.20957461561E+02  0.46943728220E+02  0.63331598493E+02  0.47000000000E+01 0. -1.
        -11    1    6    6    0    0 -0.12976032265E+02 -0.57448403646E+02  0.38460285957E+03  0.38908618079E+03  0.00000000000E+00 0.  1.
         12    1    6    6    0    0 -0.30671848915E+02  0.23545271381E+02  0.34079882490E+03  0.34298539498E+03  0.00000000000E+00 0. -1.
         -5    1    3    3    0  503  0.48662515477E+02 -0.37698932380E+01  0.75835995058E+02  0.90307478395E+02  0.47000000000E+01 0.  1.
         13    1    4    4    0    0  0.25884072024E+02  0.44180953199E+02 -0.57841527506E+01  0.51530556306E+02  0.00000000000E+00 0. -1.
        -14    1    4    4    0    0  0.57874293897E+01 -0.27465389257E+02 -0.41439121777E+02  0.50050402193E+02  0.00000000000E+00 0.  1.
</event>
<event>
12    1  0.8691829E-002  0.1879274E+03  0.7818608E-02  0.1160627E+00
         21   -1    0    0  501  502  0.00000000000E+00  0.00000000000E+00  0.44921397651E+03  0.44921397651E+03  0.00000000000E+00 0.  1.
         21   -1    0    0  502  503 -0.00000000000E+00 -0.00000000000E+00 -0.13133898293E+03  0.13133898293E+03  0.00000000000E+00 0.  1.
         -6    2    1    2    0  503 -0.72639878016E+02 -0.15026142212E+02 -0.25556253522E+02  0.18965716512E+03  0.17266841449E+03 0.  0.
        -24    2    3    3    0    0  0.27073341426E+02  0.12088814662E+02 -0.12009036288E+02  0.85332843356E+02  0.79109872626E+02 0.  0.
          6    2    1    2  501    0  0.72639878016E+02  0.15026142212E+02  0.34343124710E+03  0.39089579431E+03  0.17132473172E+03 0.  0.
         24    2    5    5    0    0  0.11712066040E+03  0.15895907525E+02  0.25775145205E+03  0.29423963169E+03  0.78557118427E+02 0.  0.
          5    1    5    5  501    0 -0.44480782381E+02 -0.86976531349E+00  0.85679795052E+02  0.96656162624E+02  0.47000000000E+01 0. -1.
        -13    1    6    6    0    0  0.58197425207E+02  0.13768110600E+02  0.21005223560E+03  0.21839973180E+03  0.00000000000E+00 0.  1.
         14    1    6    6    0    0  0.58923235190E+02  0.21277969249E+01  0.47699216443E+02  0.75839899883E+02  0.00000000000E+00 0. -1.
         -5    1    3    3    0  503 -0.99713219441E+02 -0.27114956873E+02 -0.13547217234E+02  0.10432432177E+03  0.47000000000E+01 0.  1.
         13    1    4    4    0    0  0.31475671707E+02  0.11645690186E+01 -0.42354207567E+02  0.52782127932E+02  0.00000000000E+00 0. -1.
        -14    1    4    4    0    0 -0.44023302809E+01  0.10924245643E+02  0.30345171278E+02  0.32550715425E+02  0.00000000000E+00 0.  1.
</event>
<event>
12    1  0.8691829E-002  0.2306215E+03  0.7818608E-02  0.1126382E+00
         21   -1    0    0  503  502  0.00000000000E+00  0.00000000000E+00  0.33118712331E+03  0.33118712331E+03  0.00000000000E+00 0.  1.
         21   -1    0    0  501  503 -0.00000000000E+00 -0.00000000000E+00 -0.16290072903E+03  0.16290072903E+03  0.00000000000E+00 0.  1.
          6    2    1    2  501    0  0.15289289595E+03 -0.53059852864E+01  0.50338658724E+02  0.23505517254E+03  0.17120911910E+03 0.  0.
         24    2    3    3    0    0  0.37117911991E+02  0.56260047813E+01 -0.29447384964E+02  0.93947915157E+02  0.80930037444E+02 0.  0.
         -6    2    1    2    0  502 -0.15289289595E+03  0.53059852864E+01  0.11794773556E+03  0.25903267980E+03  0.17257424421E+03 0.  0.
        -24    2    5    5    0    0 -0.44276066873E+02 -0.28773024623E+02  0.10811600605E+03  0.14467470071E+03  0.80333313251E+02 0.  0.
          5    1    3    3  501    0  0.11577498396E+03 -0.10931990068E+02  0.79786043687E+02  0.14110725738E+03  0.47000000000E+01 0. -1.
        -11    1    4    4    0    0  0.47658555294E+02  0.10339545607E+02 -0.50332908801E+02  0.70083134950E+02  0.00000000000E+00 0.  1.
         12    1    4    4    0    0 -0.10540643303E+02 -0.47135408258E+01  0.20885523838E+02  0.23864780207E+02  0.00000000000E+00 0. -1.
         -5    1    5    5    0  502 -0.10861682908E+03  0.34079009910E+02  0.98317295135E+01  0.11435797909E+03  0.47000000000E+01 0.  1.
         11    1    6    6    0    0 -0.17956859138E+02  0.10349108439E+02 -0.56858937906E+01  0.21491445362E+02  0.00000000000E+00 0. -1.
        -12    1    6    6    0    0 -0.26319207736E+02 -0.39122133062E+02  0.11380189984E+03  0.12318325535E+03  0.00000000000E+00 0.  1.
</event>
<event>
12    1  0.8691829E-002  0.3154179E+03  0.7818608E-02  0.1077980E+00
         21   -1    0    0  503  502  0.00000000000E+00  0.00000000000E+00  0.10572262727E+03  0.10572262727E+03  0.00000000000E+00 0. -1.
         21   -1    0    0  501  503 -0.00000000000E+00 -0.00000000000E+00 -0.95108764152E+03  0.95108764152E+03  0.00000000000E+00 0. -1.
          6    2    1    2  501    0 -0.23702347703E+03  0.11402151292E+03 -0.49059531908E+03  0.58324282092E+03  0.17409016911E+03 0.  0.
         24    2    3    3    0    0 -0.65205127285E+02  0.57548664474E+02 -0.12460944124E+03  0.17498006153E+03  0.86758006445E+02 0.  0.
         -6    2    1    2    0  502  0.23702347703E+03 -0.11402151292E+03 -0.35476969516E+03  0.47356744786E+03  0.17094898945E+03 0.  0.
        -24    2    5    5    0    0  0.15240530131E+03 -0.12352479991E+03 -0.17391493666E+03  0.27361474895E+03  0.78312665578E+02 0.  0.
          5    1    3    3  501    0 -0.17181834975E+03  0.56472848442E+02 -0.36598587785E+03  0.40826275939E+03  0.47000000000E+01 0. -1.
        -11    1    4    4    0    0 -0.36968652724E+02  0.22983151925E+02 -0.98095603199E+00  0.43541575894E+02  0.00000000000E+00 0.  1.
         12    1    4    4    0    0 -0.28236474561E+02  0.34565512548E+02 -0.12362848520E+03  0.13143848564E+03  0.00000000000E+00 0. -1.
         -5    1    5    5    0  502  0.84618175722E+02  0.95032869992E+01 -0.18085475851E+03  0.19995269891E+03  0.47000000000E+01 0.  1.
         11    1    6    6    0    0  0.15851563079E+03 -0.10573196791E+03 -0.16761831838E+03  0.25377619056E+03  0.00000000000E+00 0. -1.
        -12    1    6    6    0    0 -0.61103294754E+01 -0.17792832009E+02 -0.62966182788E+01  0.19838558389E+02  0.00000000000E+00 0.  1.
</event>
<event>
12    1  0.8691829E-002  0.2099438E+03  0.7818608E-02  0.1141768E+00
         21   -1    0    0  501  502  0.00000000000E+00  0.00000000000E+00  0.12358136144E+03  0.12358136144E+03  0.00000000000E+00 0.  1.
         21   -1    0    0  502  503 -0.00000000000E+00 -0.00000000000E+00 -0.50264568547E+03  0.50264568547E+03  0.00000000000E+00 0. -1.
         -6    2    1    2    0  503  0.61484929423E+02 -0.10197282487E+03 -0.35930503889E+03  0.41614480741E+03  0.17290904024E+03 0.  0.
        -24    2    3    3    0    0  0.44150466895E+02 -0.14022797721E+03 -0.28922560094E+03  0.33430864244E+03  0.80608131449E+02 0.  0.
          6    2    1    2  501    0 -0.61484929423E+02  0.10197282487E+03 -0.19759285133E+02  0.21008223950E+03  0.17194552755E+03 0.  0.
         24    2    5    5    0    0 -0.24580701641E+02  0.37593568256E+02  0.53459486294E+02  0.10572856587E+03  0.79392226937E+02 0.  0.
          5    1    5    5  501    0 -0.36904227783E+02  0.64379256616E+02 -0.73218771428E+02  0.10435367363E+03  0.47000000000E+01 0. -1.
        -13    1    6    6    0    0 -0.10807536195E+02  0.61963037206E+02  0.32792769877E+02  0.70933677294E+02  0.00000000000E+00 0.  1.
         14    1    6    6    0    0 -0.13773165446E+02 -0.24369468949E+02  0.20666716418E+02  0.34794888572E+02  0.00000000000E+00 0. -1.
         -5    1    3    3    0  503  0.17334462529E+02  0.38255152337E+02 -0.70079437957E+02  0.81836164963E+02  0.47000000000E+01 0.  1.
         13    1    4    4    0    0  0.54664062673E+02 -0.80910432203E+02 -0.22981675420E+03  0.24970061734E+03  0.00000000000E+00 0. -1.
        -14    1    4    4    0    0 -0.10513595778E+02 -0.59317545006E+02 -0.59408846734E+02  0.84608025104E+02  0.00000000000E+00 0.  1.
</event>
<event>
12    1  0.8691829E-002  0.2132685E+03  0.7818608E-02  0.1139007E+00
         21   -1    0    0  501  502  0.00000000000E+00  0.00000000000E+00  0.24362457028E+03  0.24362457028E+03  0.00000000000E+00 0.  1.
         21   -1    0    0  502  503 -0.00000000000E+00 -0.00000000000E+00 -0.18919824975E+03  0.18919824975E+03  0.00000000000E+00 0.  1.
         -6    2    1    2    0  503 -0.89916901105E+02 -0.89869203429E+02  0.52180727508E+02  0.21954254683E+03  0.17121500727E+03 0.  0.
        -24    2    3    3    0    0  0.32926332315E+01  0.28726572964E+01  0.87205559017E+01  0.80978675134E+02  0.80389079717E+02 0.  0.
          6    2    1    2  501    0  0.89916901105E+02  0.89869203429E+02  0.22455930238E+01  0.21328027320E+03  0.17123641382E+03 0.  0.
         24    2    5    5    0    0  0.12881880948E+03  0.88207176420E+02  0.28561433824E+02  0.16604962334E+03  0.48805022922E+02 0.  0.
          5    1    5    5  501    0 -0.38901908372E+02  0.16620270095E+01 -0.26315840800E+02  0.47230649856E+02  0.47000000000E+01 0. -1.
        -13    1    6    6    0    0  0.38993702193E+02  0.29546119554E+02 -0.13601422741E+02  0.50778742520E+02  0.00000000000E+00 0.  1.
         14    1    6    6    0    0  0.89825107285E+02  0.58661056866E+02  0.42162856565E+02  0.11527088082E+03  0.00000000000E+00 0. -1.
         -5    1    3    3    0  503 -0.93209534337E+02 -0.92741860726E+02  0.43460171606E+02  0.13856387169E+03  0.47000000000E+01 0.  1.
         13    1    4    4    0    0  0.21461190144E+02 -0.31477174856E+02 -0.75722580542E+01  0.38842429267E+02  0.00000000000E+00 0. -1.
        -14    1    4    4    0    0 -0.18168556912E+02  0.34349832152E+02  0.16292813956E+02  0.42136245867E+02  0.00000000000E+00 0.  1.
</event>
<event>
12    1  0.8691829E-002  0.3315004E+03  0.7818608E-02  0.1070476E+00
         21   -1    0    0  503  502  0.00000000000E+00  0.00000000000E+00  0.73302029560E+03  0.73302029560E+03  0.00000000000E+00 0.  1.
         21   -1    0    0  501  503 -0.00000000000E+00 -0.00000000000E+00 -0.15121378346E+03  0.15121378346E+03  0.00000000000E+00 0.  1.
          6    2    1    2  501    0 -0.17971480709E+03  0.21849420086E+03  0.24989895884E+03  0.41513369550E+03  0.17276969587E+03 0.  0.
         24    2    3    3    0    0 -0.20079430586E+03  0.22152248382E+03  0.23477882163E+03  0.38859647042E+03  0.80595022393E+02 0.  0.
         -6    2    1    2    0  502  0.17971480709E+03 -0.21849420086E+03  0.33190755330E+03  0.46910038356E+03  0.17278720502E+03 0.  0.
        -24    2    5    5    0    0  0.13086587551E+03 -0.64186580710E+02  0.20211170227E+03  0.26157661938E+03  0.79544912448E+02 0.  0.
          5    1    3    3  501    0  0.21079498765E+02 -0.30282829549E+01  0.15120137205E+02  0.26537225080E+02  0.47000000000E+01 0. -1.
        -13    1    4    4    0    0 -0.56581232181E+02  0.66591834099E+02  0.25706143423E+02  0.91086299813E+02  0.00000000000E+00 0.  1.
         14    1    4    4    0    0 -0.14421307368E+03  0.15493064972E+03  0.20907267821E+03  0.29751017061E+03  0.00000000000E+00 0. -1.
         -5    1    5    5    0  502  0.48848931581E+02 -0.15430762015E+03  0.12979585103E+03  0.20752376418E+03  0.47000000000E+01 0.  1.
         11    1    6    6    0    0 -0.62222184699E+01 -0.70258309171E+01 -0.15457415322E+01  0.95114467694E+01  0.00000000000E+00 0. -1.
        -12    1    6    6    0    0  0.13708809398E+03 -0.57160749792E+02  0.20365744380E+03  0.25206517261E+03  0.00000000000E+00 0.  1.
</event>
<event>
12    1  0.8691829E-002  0.2255506E+03  0.7818608E-02  0.1129831E+00
         21   -1    0    0  503  502  0.00000000000E+00  0.00000000000E+00  0.12117193446E+03  0.12117193446E+03  0.00000000000E+00 0.  1.
         21   -1    0    0  501  503 -0.00000000000E+00 -0.00000000000E+00 -0.95721880011E+03  0.95721880011E+03  0.00000000000E+00 0.  1.
          6    2    1    2  501    0 -0.86950049692E+02  0.11691732302E+03 -0.82205352917E+03  0.85240645554E+03  0.17203136072E+03 0.  0.
         24    2    3    3    0    0 -0.66692581120E+02  0.70416770337E+02 -0.76818734236E+03  0.77826926842E+03  0.78643749198E+02 0.  0.
         -6    2    1    2    0  502  0.86950049692E+02 -0.11691732302E+03 -0.13993336485E+02  0.22598427904E+03  0.17217174374E+03 0.  0.
        -24    2    5    5    0    0  0.20306531783E+01 -0.11533265532E+03 -0.58723795075E+01  0.14053338660E+03  0.80058747012E+02 0.  0.
          5    1    3    3  501    0 -0.20257468572E+02  0.46500552685E+02 -0.53866186807E+02  0.74137187120E+02  0.47000000000E+01 0. -1.
        -13    1    4    4    0    0 -0.39818694030E+02  0.25125439049E+02 -0.60422659667E+03  0.60605824490E+03  0.00000000000E+00 0.  1.
         14    1    4    4    0    0 -0.26873887090E+02  0.45291331288E+02 -0.16396074568E+03  0.17221102352E+03  0.00000000000E+00 0. -1.
         -5    1    5    5    0  502  0.84919396513E+02 -0.15846677021E+01 -0.81209569772E+01  0.85450892436E+02  0.47000000000E+01 0.  1.
         13    1    6    6    0    0  0.17765212310E+02  0.10309722280E+01 -0.14271174908E+02  0.22810789233E+02  0.00000000000E+00 0. -1.
        -14    1    6    6    0    0 -0.15734559132E+02 -0.11636362755E+03  0.83987954007E+01  0.11772259737E+03  0.00000000000E+00 0.  1.
</event>
<event>
12    1  0.8691829E-002  0.1980053E+03  0.7818608E-02  0.1151456E+00
         21   -1    0    0  503  502  0.00000000000E+00  0.00000000000E+00  0.20189659655E+04  0.20189659655E+04  0.00000000000E+00 0. -1.
         21   -1    0    0  501  503 -0.00000000000E+00 -0.00000000000E+00 -0.20523193777E+02  0.20523193777E+02  0.00000000000E+00 0. -1.
          6    2    1    2  501    0  0.78170312060E+02 -0.59471156996E+02  0.76180129800E+03  0.78711329123E+03  0.17192643598E+03 0.  0.
         24    2    3    3    0    0  0.20485251246E+02 -0.62547719274E+02  0.23034977555E+03  0.25251078263E+03  0.79804846634E+02 0.  0.
         -6    2    1    2    0  502 -0.78170312060E+02  0.59471156996E+02  0.12366414738E+04  0.12523758681E+04  0.17180152544E+03 0.  0.
        -24    2    5    5    0    0 -0.57018854419E+02  0.90583241437E+02  0.61158811022E+03  0.62617370965E+03  0.81222070316E+02 0.  0.
          5    1    3    3  501    0  0.57685060814E+02  0.30765622777E+01  0.53145152246E+03  0.53460250860E+03  0.47000000000E+01 0. -1.
        -13    1    4    4    0    0 -0.26573418131E+02 -0.94989720892E+01  0.36768967656E+02  0.46350124103E+02  0.00000000000E+00 0.  1.
         14    1    4    4    0    0  0.47058669377E+02 -0.53048747185E+02  0.19358080789E+03  0.20616065853E+03  0.00000000000E+00 0. -1.
         -5    1    5    5    0  502 -0.21151457640E+02 -0.31112084441E+02  0.62505336355E+03  0.62620215845E+03  0.47000000000E+01 0.  1.
         11    1    6    6    0    0  0.13371792915E+02  0.49157065157E+02  0.28570523298E+03  0.29021147816E+03  0.00000000000E+00 0. -1.
        -12    1    6    6    0    0 -0.70390647334E+02  0.41426176279E+02  0.32588287724E+03  0.33596223149E+03  0.00000000000E+00 0.  1.
</event>
<event>
12    1  0.8691829E-002  0.1886626E+03  0.7818608E-02  0.1159906E+00
         21   -1    0    0  501  502  0.00000000000E+00  0.00000000000E+00  0.13035254196E+03  0.13035254196E+03  0.00000000000E+00 0. -1.
         21   -1    0    0  502  503 -0.00000000000E+00 -0.00000000000E+00 -0.27365749864E+03  0.27365749864E+03  0.00000000000E+00 0. -1.
         -6    2    1    2    0  503 -0.74657597367E+02  0.18119925206E+02 -0.54251914475E+02  0.19630807876E+03  0.17231222542E+03 0.  0.
        -24    2    3    3    0    0 -0.91912236311E+02  0.29365301517E+02 -0.89745608626E+02  0.15500343764E+03  0.81618694523E+02 0.  0.
          6    2    1    2  501    0  0.74657597367E+02 -0.18119925206E+02 -0.89053042199E+02  0.20770196184E+03  0.17119454458E+03 0.  0.
         24    2    5    5    0    0  0.12525414282E+01 -0.17939129218E+02 -0.10461637015E+03  0.13251790700E+03  0.79328617512E+02 0.  0.
          5    1    5    5  501    0  0.73405055939E+02 -0.18079598738E+00  0.15563327951E+02  0.75184054835E+02  0.47000000000E+01 0. -1.
        -11    1    6    6    0    0 -0.27229753543E+02  0.19903588567E+02 -0.38457531990E+02  0.51152654698E+02  0.00000000000E+00 0.  1.
         12    1    6    6    0    0  0.28482294971E+02 -0.37842717786E+02 -0.66158838160E+02  0.81365252307E+02  0.00000000000E+00 0. -1.
         -5    1    3    3    0  503  0.17254638945E+02 -0.11245376311E+02  0.35493694151E+02  0.41304641119E+02  0.47000000000E+01 0.  1.
         13    1    4    4    0    0 -0.37412997469E+02 -0.25304965290E+02 -0.52616300999E+02  0.69343700354E+02  0.00000000000E+00 0. -1.
        -14    1    4    4    0    0 -0.54499238842E+02  0.54670266807E+02 -0.37129307627E+02  0.85659737286E+02  0.00000000000E+00 0.  1.
</event>
<event>
12    1  0.8691829E-002  0.2159277E+03  0.7818608E-02  0.1137041E+00
         21   -1    0    0  501  502  0.00000000000E+00  0.00000000000E+00  0.15561098149E+03  0.15561098149E+03  0.00000000000E+00 0. -1.
         21   -1    0    0  502  503 -0.00000000000E+00 -0.00000000000E+00 -0.34846395093E+03  0.34846395093E+03  0.00000000000E+00 0. -1.
         -6    2    1    2    0  503 -0.97189698429E+02  0.86854990133E+02 -0.19129304265E+03  0.28814155147E+03  0.17158933163E+03 0.  0.
        -24    2    3    3    0    0 -0.21868102390E+02  0.22787862873E+02 -0.16600392052E+03  0.18596734082E+03  0.77646955035E+02 0.  0.
          6    2    1    2  501    0  0.97189698429E+02 -0.86854990133E+02 -0.15599267926E+01  0.21593338094E+03  0.17214867076E+03 0.  0.
         24    2    5    5    0    0  0.61221522385E+02  0.43425825728E+01  0.42386444028E+02  0.10839696635E+03  0.78653409655E+02 0.  0.
          5    1    5    5  501    0  0.35968176043E+02 -0.91197572705E+02 -0.43946370820E+02  0.10753641459E+03  0.47000000000E+01 0. -1.
        -11    1    6    6    0    0  0.50181829209E+02 -0.29216234711E+02  0.71593721233E+01  0.58506930895E+02  0.00000000000E+00 0.  1.
         12    1    6    6    0    0  0.11039693176E+02  0.33558817284E+02  0.35227071904E+02  0.49890035457E+02  0.00000000000E+00 0. -1.
         -5    1    3    3    0  503 -0.75321596038E+02  0.64067127259E+02 -0.25289122127E+02  0.10217421066E+03  0.47000000000E+01 0.  1.
         13    1    4    4    0    0 -0.24559467504E+02  0.47169159187E+02 -0.76537446436E+02  0.93199129445E+02  0.00000000000E+00 0. -1.
        -14    1    4    4    0    0  0.26913651141E+01 -0.24381296313E+02 -0.89466474083E+02  0.92768211371E+02  0.00000000000E+00 0.  1.
</event>
<event>
12    1  0.8691829E-002  0.2001071E+03  0.7818608E-02  0.1149776E+00
         21   -1    0    0  503  502  0.00000000000E+00  0.00000000000E+00  0.84195141721E+02  0.84195141721E+02  0.00000000000E+00 0. -1.
         21   -1    0    0  501  503 -0.00000000000E+00 -0.00000000000E+00 -0.47593663029E+03  0.47593663029E+03  0.00000000000E+00 0.  1.
          6    2    1    2  501    0 -0.39495937525E+02 -0.96463276918E+02 -0.21324439222E+03  0.29243121135E+03  0.17081495744E+03 0.  0.
         24    2    3    3    0    0  0.83190638231E+01 -0.11759177771E+03 -0.18533195067E+03  0.23298474558E+03  0.77697662304E+02 0.  0.
         -6    2    1    2    0  502  0.39495937525E+02  0.96463276918E+02 -0.17849709635E+03  0.26770056066E+03  0.17010962317E+03 0.  0.
        -24    2    5    5    0    0  0.52153697815E+02  0.54643597202E+02 -0.19166609706E+03  0.22182445482E+03  0.82245152328E+02 0.  0.
          5    1    3    3  501    0 -0.47815001348E+02  0.21128500788E+02 -0.27912441548E+02  0.59446465771E+02  0.47000000000E+01 0. -1.
        -11    1    4    4    0    0 -0.27467885442E+02 -0.14935634220E+02 -0.29561425946E+02  0.43028313982E+02  0.00000000000E+00 0.  1.
         12    1    4    4    0    0  0.35786949265E+02 -0.10265614349E+03 -0.15577052472E+03  0.18995643160E+03  0.00000000000E+00 0. -1.
         -5    1    5    5    0  502 -0.12657760290E+02  0.41819679716E+02  0.13169000713E+02  0.45876105838E+02  0.47000000000E+01 0.  1.
         11    1    6    6    0    0  0.52482871050E+01  0.32692301042E+02 -0.12612114188E+02  0.35431574750E+02  0.00000000000E+00 0. -1.
        -12    1    6    6    0    0  0.46905410710E+02  0.21951296160E+02 -0.17905398288E+03  0.18639288007E+03  0.00000000000E+00 0.  1.
</event>
<event>
12    1  0.8691829E-002  0.2206817E+03  0.7818608E-02  0.1133409E+00
         21   -1    0    0  501  502  0.00000000000E+00  0.00000000000E+00  0.61274148618E+02  0.61274148618E+02  0.00000000000E+00 0.  1.
         21   -1    0    0  502  503 -0.00000000000E+00 -0.00000000000E+00 -0.10715860090E+04  0.10715860090E+04  0.00000000000E+00 0.  1.
         -6    2    1    2    0  503  0.57457124589E+02  0.12021743994E+03 -0.79351923081E+03  0.82363414157E+03  0.17591724038E+03 0.  0.
        -24    2    3    3    0    0 -0.12318559080E+02  0.84807981451E+02 -0.25975394327E+03  0.28414368941E+03  0.76950533298E+02 0.  0.
          6    2    1    2  501    0 -0.57457124589E+02 -0.12021743994E+03 -0.21679262953E+03  0.30922601600E+03  0.17569328594E+03 0.  0.
         24    2    5    5    0    0  0.87227250492E+01 -0.11061546636E+03 -0.88065971961E+02  0.16408948455E+03  0.82812294926E+02 0.  0.
          5    1    5    5  501    0 -0.66179849638E+02 -0.96019735727E+01 -0.12872665756E+03  0.14513653145E+03  0.47000000000E+01 0. -1.
        -11    1    6    6    0    0 -0.31369532737E+02 -0.43580876638E+02 -0.11915860310E+02  0.55002982824E+02  0.00000000000E+00 0.  1.
         12    1    6    6    0    0  0.40092257786E+02 -0.67034589727E+02 -0.76150111651E+02  0.10908650173E+03  0.00000000000E+00 0. -1.
         -5    1    3    3    0  503  0.69775683669E+02  0.35409458487E+02 -0.53376528754E+03  0.53949045215E+03  0.47000000000E+01 0.  1.
         13    1    4    4    0    0 -0.35122610692E+02  0.20782916751E+02 -0.55574477152E+02  0.68949618717E+02  0.00000000000E+00 0. -1.
        -14    1    4    4    0    0  0.22804051611E+02  0.64025064699E+02 -0.20417946612E+03  0.21519407070E+03  0.00000000000E+00 0.  1.
</event>
<event>
12    1  0.8691829E-002  0.1903617E+03  0.7818608E-02  0.1158624E+00
         21   -1    0    0  501  502  0.00000000000E+00  0.00000000000E+00  0.10169446732E+04  0.10169446732E+04  0.00000000000E+00 0.  1.
         21   -1    0    0  502  503 -0.00000000000E+00 -0.00000000000E+00 -0.51763446358E+02  0.51763446358E+02  0.00000000000E+00 0.  1.
         -6    2    1    2    0  503  0.82406484683E+02  0.20110141514E+01  0.18248023081E+03  0.26369795545E+03  0.17158876471E+03 0.  0.
        -24    2    3    3    0    0 -0.18478737802E+02 -0.90768475296E+01  0.11721162819E+03  0.14293848675E+03  0.79176968237E+02 0.  0.
          6    2    1    2  501    0 -0.82406484683E+02 -0.20110141514E+01  0.78270099605E+03  0.80501016413E+03  0.16919114112E+03 0.  0.
         24    2    5    5    0    0 -0.10755029747E+03  0.41141132494E+01  0.40300615459E+03  0.42440539388E+03  0.78243116614E+02 0.  0.
          5    1    5    5  501    0  0.25143812792E+02 -0.61251274008E+01  0.37969484146E+03  0.38060477025E+03  0.47000000000E+01 0. -1.
        -11    1    6    6    0    0 -0.22813737548E+02  0.18102494681E+02  0.22374980549E+03  0.22563719195E+03  0.00000000000E+00 0.  1.
         12    1    6    6    0    0 -0.84736559926E+02 -0.13988381432E+02  0.17925634910E+03  0.19876820192E+03  0.00000000000E+00 0. -1.
         -5    1    3    3    0  503  0.10088522248E+03  0.11087861681E+02  0.65268602616E+02  0.12075946870E+03  0.47000000000E+01 0.  1.
         11    1    4    4    0    0 -0.20829746642E+02 -0.42976784419E+02  0.71377790608E+02  0.85881728768E+02  0.00000000000E+00 0. -1.
        -12    1    4    4    0    0  0.23510088399E+01  0.33899936890E+02  0.45833837583E+02  0.57056757981E+02  0.00000000000E+00 0.  1.
</event>
<event>
12    1  0.8691829E-002  0.2106544E+03  0.7818608E-02  0.1141259E+00
         21   -1    0    0  501  502  0.00000000000E+00  0.00000000000E+00  0.80878919659E+02  0.80878919659E+02  0.00000000000E+00 0.  1.
         21   -1    0    0  502  503 -0.00000000000E+00 -0.00000000000E+00 -0.54590073029E+03  0.54590073029E+03  0.00000000000E+00 0.  1.
         -6    2    1    2    0  503 -0.86420374418E+02 -0.82769663747E+02 -0.23108396817E+03  0.31197467058E+03  0.17207293914E+03 0.  0.
        -24    2    3    3    0    0 -0.63965316486E+02 -0.65247698693E+02 -0.54700581534E+02  0.13324460045E+03  0.80082120540E+02 0.  0.
          6    2    1    2  501    0  0.86420374418E+02  0.82769663747E+02 -0.23393784245E+03  0.31480497937E+03  0.17336655546E+03 0.  0.
         24    2    5    5    0    0  0.33766664807E+02  0.11806455700E+03 -0.15787337057E+03  0.21567861300E+03  0.80708337248E+02 0.  0.
          5    1    5    5  501    0  0.52653709611E+02 -0.35294893251E+02 -0.76064471888E+02  0.99126366366E+02  0.47000000000E+01 0. -1.
        -13    1    6    6    0    0  0.55182746963E+02  0.74244350288E+02 -0.12983810630E+03  0.15942174557E+03  0.00000000000E+00 0.  1.
         14    1    6    6    0    0 -0.21416082156E+02  0.43820206710E+02 -0.28035264263E+02  0.56256867433E+02  0.00000000000E+00 0. -1.
         -5    1    3    3    0  503 -0.22455057931E+02 -0.17521965055E+02 -0.17638338664E+03  0.17873007013E+03  0.47000000000E+01 0.  1.
         11    1    4    4    0    0 -0.34300230655E+02  0.10840847682E+02 -0.32826081407E+02  0.48698885223E+02  0.00000000000E+00 0. -1.
        -12    1    4    4    0    0 -0.29665085832E+02 -0.76088546375E+02 -0.21874500127E+02  0.84545715223E+02  0.00000000000E+00 0.  1.
</event>
<event>
12    1  0.8691829E-002  0.1820970E+03  0.7818608E-02  0.1165963E+00
         21   -1    0    0  501  502  0.00000000000E+00  0.00000000000E+00  0.11644125045E+04  0.11644125045E+04  0.00000000000E+00 0.  1.
         21   -1    0    0  502  503 -0.00000000000E+00 -0.00000000000E+00 -0.31787266560E+02  0.31787266560E+02  0.00000000000E+00 0.  1.
         -6    2    1    2    0  503  0.97996668655E+01 -0.57795285290E+02  0.37103212706E+03  0.41330878656E+03  0.17240355351E+03 0.  0.
        -24    2    3    3    0    0  0.12017285721E+01  0.24496354690E+01  0.71472211172E+02  0.10759387324E+03  0.80378602396E+02 0.  0.
          6    2    1    2  501    0 -0.97996668655E+01  0.57795285290E+02  0.76159311084E+03  0.78289098446E+03  0.17163303469E+03 0.  0.
         24    2    5    5    0    0 -0.70538225716E+02  0.49137880636E+02  0.55551954542E+03  0.56782697643E+03  0.80220553562E+02 0.  0.
          5    1    5    5  501    0  0.60738558850E+02  0.86574046543E+01  0.20607356542E+03  0.21506400803E+03  0.47000000000E+01 0. -1.
        -13    1    6    6    0    0 -0.27246500631E+01 -0.14120785599E+02  0.21839424980E+02  0.26149202423E+02  0.00000000000E+00 0.  1.
         14    1    6    6    0    0 -0.67813575652E+02  0.63258666236E+02  0.53368012044E+03  0.54167777401E+03  0.00000000000E+00 0. -1.
         -5    1    3    3    0  503  0.85979382934E+01 -0.60244920759E+02  0.29955991589E+03  0.30571491332E+03  0.47000000000E+01 0.  1.
         11    1    4    4    0    0 -0.35747527151E+02  0.15085956683E+02  0.49130511811E+02  0.62604145048E+02  0.00000000000E+00 0. -1.
        -12    1    4    4    0    0  0.36949255723E+02 -0.12636321214E+02  0.22341699361E+02  0.44989728190E+02  0.00000000000E+00 0.  1.
</event>
<event>
12    1  0.8691829E-002  0.2487063E+03  0.7818608E-02  0.1114296E+00
         21   -1    0    0  503  502  0.00000000000E+00  0.00000000000E+00  0.13061086760E+03  0.13061086760E+03  0.00000000000E+00 0. -1.
         21   -1    0    0  501  503 -0.00000000000E+00 -0.00000000000E+00 -0.54444194089E+03  0.54444194089E+03  0.00000000000E+00 0.  1.
          6    2    1    2  501    0 -0.15101133782E+03  0.97390107286E+02 -0.33003472703E+03  0.41260921284E+03  0.17039420276E+03 0.  0.
         24    2    3    3    0    0 -0.76665661609E+02  0.12995203066E+02 -0.76790815969E+02  0.13547323915E+03  0.80060415532E+02 0.  0.
         -6    2    1    2    0  502  0.15101133782E+03 -0.97390107286E+02 -0.83796346259E+02  0.26244359564E+03  0.17194637565E+03 0.  0.
        -24    2    5    5    0    0  0.10734852853E+03 -0.71880382503E+02  0.10552147425E+02  0.15529456282E+03  0.85525186117E+02 0.  0.
          5    1    3    3  501    0 -0.74345676212E+02  0.84394904219E+02 -0.25324391106E+03  0.27713597370E+03  0.47000000000E+01 0. -1.
        -13    1    4    4    0    0 -0.30242886552E+02  0.41752176987E+02 -0.58286736166E+02  0.77815294660E+02  0.00000000000E+00 0.  1.
         14    1    4    4    0    0 -0.46422775058E+02 -0.28756973921E+02 -0.18504079803E+02  0.57657944487E+02  0.00000000000E+00 0. -1.
         -5    1    5    5    0  502  0.43662809289E+02 -0.25509724783E+02 -0.94348493685E+02  0.10714903282E+03  0.47000000000E+01 0.  1.
         11    1    6    6    0    0  0.26228571207E+02  0.26187052721E+01  0.33665112225E+02  0.42756699428E+02  0.00000000000E+00 0. -1.
        -12    1    6    6    0    0  0.81119957326E+02 -0.74499087775E+02 -0.23112964799E+02  0.11253786340E+03  0.00000000000E+00 0.  1.
</event>
<event>
12    1  0.8691829E-002  0.2025646E+03  0.7818608E-02  0.1147782E+00
         21   -1    0    0  501  502  0.00000000000E+00  0.00000000000E+00  0.68052387431E+03  0.68052387431E+03  0.00000000000E+00 0. -1.
         21   -1    0    0  502  503 -0.00000000000E+00 -0.00000000000E+00 -0.82168059485E+02  0.82168059485E+02  0.00000000000E+00 0. -1.
         -6    2    1    2    0  503  0.91101202728E+02  0.54961181956E+02  0.10170810965E+03  0.22666487398E+03  0.17237245972E+03 0.  0.
        -24    2    3    3    0    0  0.60037003360E+02  0.10193435983E+03  0.52082181087E+02  0.15145658516E+03  0.78939775240E+02 0.  0.
          6    2    1    2  501    0 -0.91101202728E+02 -0.54961181956E+02  0.49664770518E+03  0.53602705981E+03  0.17130646552E+03 0.  0.
         24    2    5    5    0    0  0.89847668545E+01 -0.17308550544E+02  0.13123985232E+03  0.15526478372E+03  0.80640822605E+02 0.  0.
          5    1    5    5  501    0 -0.10008596958E+03 -0.37652631412E+02  0.36540785286E+03  0.38076227609E+03  0.47000000000E+01 0. -1.
        -13    1    6    6    0    0  0.11435175054E+02  0.24311118241E+02  0.12914055226E+02  0.29808832936E+02  0.00000000000E+00 0.  1.
         14    1    6    6    0    0 -0.24504081998E+01 -0.41619668785E+02  0.11832579709E+03  0.12545595079E+03  0.00000000000E+00 0. -1.
         -5    1    3    3    0  503  0.31064199368E+02 -0.46973177878E+02  0.49625928560E+02  0.75208288824E+02  0.47000000000E+01 0.  1.
         13    1    4    4    0    0  0.44712914863E+02  0.17706521568E+02 -0.53176023018E+01  0.48384321385E+02  0.00000000000E+00 0. -1.
        -14    1    4    4    0    0  0.15324088496E+02  0.84227838265E+02  0.57399783389E+02  0.10307226378E+03  0.00000000000E+00 0.  1.
</event>
<event>
12    1  0.8691829E-002  0.2094507E+03  0.7818608E-02  0.1142182E+00
         21   -1    0    0  503  502  0.00000000000E+00  0.00000000000E+00  0.73151650551E+03  0.73151650551E+03  0.00000000000E+00 0.  1.
         21   -1    0    0  501  503 -0.00000000000E+00 -0.00000000000E+00 -0.64425591762E+02  0.64425591762E+02  0.00000000000E+00 0. -1.
          6    2    1    2  501    0 -0.97170775827E+02 -0.65667239492E+02  0.22656771274E+03  0.30854908235E+03  0.17353749378E+03 0.  0.
         24    2    3    3    0    0 -0.84613631336E+02 -0.78386836787E+02  0.83067109643E+02  0.16386327406E+03  0.81529535080E+02 0.  0.
         -6    2    1    2    0  502  0.97170775827E+02  0.65667239492E+02  0.44052320100E+03  0.48739301492E+03  0.17244394553E+03 0.  0.
        -24    2    5    5    0    0  0.11438508487E+03  0.98567558169E+02  0.37031300577E+03  0.40782967588E+03  0.79961310129E+02 0.  0.
          5    1    3    3  501    0 -0.12557144491E+02  0.12719597295E+02  0.14350060310E+03  0.14468580830E+03  0.47000000000E+01 0. -1.
        -11    1    4    4    0    0 -0.12636833557E+01  0.15405438694E+02  0.12684811684E+02  0.19995721653E+02  0.00000000000E+00 0.  1.
         12    1    4    4    0    0 -0.83349947980E+02 -0.93792275481E+02  0.70382297959E+02  0.14386755240E+03  0.00000000000E+00 0. -1.
         -5    1    5    5    0  502 -0.17214309043E+02 -0.32900318677E+02  0.70210195233E+02  0.79563339042E+02  0.47000000000E+01 0.  1.
         13    1    6    6    0    0  0.10427529881E+02  0.42662582586E+02  0.16756742932E+03  0.17322722852E+03  0.00000000000E+00 0. -1.
        -14    1    6    6    0    0  0.10395755499E+03  0.55904975584E+02  0.20274557645E+03  0.23460244736E+03  0.00000000000E+00 0.  1.
</event>
<event>
12    1  0.8691829E-002  0.2125905E+03  0.7818608E-02  0.1139906E+00
         21   -1    0    0  503  502  0.00000000000E+00  0.00000000000E+00  0.27430288540E+03  0.27430288540E+03  0.00000000000E+00 0.  1.
         21   -1    0    0  501  503 -0.00000000000E+00 -0.00000000000E+00 -0.20314094926E+03  0.20314094926E+03  0.00000000000E+00 0.  1.
          6    2    1    2  501    0 -0.85451666409E+02 -0.86330828142E+02 -0.70033435908E+02  0.22382894212E+03  0.17446980830E+03 0.  0.
         24    2    3    3    0    0 -0.52427738389E+02  0.18215426374E+02 -0.45124867281E+02  0.11129883084E+03  0.85268438403E+02 0.  0.
         -6    2    1    2    0  502  0.85451666409E+02  0.86330828142E+02  0.14119537205E+03  0.25361489254E+03  0.17213187227E+03 0.  0.
        -24    2    5    5    0    0  0.52245974729E+01  0.17137183670E+02  0.16199108767E+02  0.89693268402E+02  0.86379927002E+02 0.  0.
          5    1    3    3  501    0 -0.33023928020E+02 -0.10454625452E+03 -0.24908568627E+02  0.11253011129E+03  0.47000000000E+01 0. -1.
        -13    1    4    4    0    0 -0.73857872676E+02  0.28044992912E+01 -0.41182782855E+02  0.84610118639E+02  0.00000000000E+00 0.  1.
         14    1    4    4    0    0  0.21430134286E+02  0.15410927083E+02 -0.39420844261E+01  0.26688712197E+02  0.00000000000E+00 0. -1.
         -5    1    5    5    0  502  0.80227068936E+02  0.69193644472E+02  0.12499626328E+03  0.16392162414E+03  0.47000000000E+01 0.  1.
         13    1    6    6    0    0 -0.37589052596E+02  0.15017375396E+02  0.22587782861E+02  0.46353709382E+02  0.00000000000E+00 0. -1.
        -14    1    6    6    0    0  0.42813650069E+02  0.21198082743E+01 -0.63886740946E+01  0.43339559020E+02  0.00000000000E+00 0.  1.
</event>
<event>
12    1  0.8691829E-002  0.3080761E+03  0.7818608E-02  0.1081496E+00
         21   -1    0    0  501  502  0.00000000000E+00  0.00000000000E+00  0.68889613323E+03  0.68889613323E+03  0.00000000000E+00 0. -1.
         21   -1    0    0  502  503 -0.00000000000E+00 -0.00000000000E+00 -0.17542624929E+03  0.17542624929E+03  0.00000000000E+00 0. -1.
         -6    2    1    2    0  503  0.23263591633E+03 -0.10146776137E+03  0.54939171784E+02  0.31293636190E+03  0.17463011722E+03 0.  0.
        -24    2    3    3    0    0  0.20737817708E+03 -0.13839052337E+03  0.33683029521E+02  0.26318540885E+03  0.77294033831E+02 0.  0.
          6    2    1    2  501    0 -0.23263591633E+03  0.10146776137E+03  0.45853071216E+03  0.55138602061E+03  0.17135038246E+03 0.  0.
         24    2    5    5    0    0 -0.19583600687E+03  0.16372928478E+02  0.29880707929E+03  0.36664541106E+03  0.80767397151E+02 0.  0.
          5    1    5    5  501    0 -0.36799909462E+02  0.85094832894E+02  0.15972363287E+03  0.18474060956E+03  0.47000000000E+01 0. -1.
        -11    1    6    6    0    0 -0.78601394735E+02  0.31765324749E+01  0.55587455150E+02  0.96323594113E+02  0.00000000000E+00 0.  1.
         12    1    6    6    0    0 -0.11723461214E+03  0.13196396003E+02  0.24321962414E+03  0.27032181694E+03  0.00000000000E+00 0. -1.
         -5    1    3    3    0  503  0.25257739253E+02  0.36922762000E+02  0.21256142263E+02  0.49750953054E+02  0.47000000000E+01 0.  1.
         11    1    4    4    0    0  0.15948187113E+03 -0.86328326050E+02  0.54645669252E+02  0.18940220766E+03  0.00000000000E+00 0. -1.
        -12    1    4    4    0    0  0.47896305946E+02 -0.52062197322E+02 -0.20962639730E+02  0.73783201189E+02  0.00000000000E+00 0.  1.
</event>
<event>
12    1  0.8691829E-002  0.2263503E+03  0.7818608E-02  0.1129423E+00
         21   -1    0    0  503  502  0.00000000000E+00  0.00000000000E+00  0.13901151935E+03  0.13901151935E+03  0.00000000000E+00 0.  1.
         21   -1    0    0  501  503 -0.00000000000E+00 -0.00000000000E+00 -0.36888908421E+03  0.36888908421E+03  0.00000000000E+00 0.  1.
          6    2    1    2  501    0 -0.13191593608E+03  0.63214518884E+02 -0.13399167517E+03  0.26303658496E+03  0.17273270224E+03 0.  0.
         24    2    3    3    0    0 -0.14321457467E+03  0.52530749540E+02 -0.53071431236E+02  0.18050187686E+03  0.80588192009E+02 0.  0.
         -6    2    1    2    0  502  0.13191593608E+03 -0.63214518884E+02 -0.95885889682E+02  0.24486401860E+03  0.17136625741E+03 0.  0.
        -24    2    5    5    0    0  0.44366743176E+02 -0.22525134587E+01 -0.10196634535E+03  0.13790473091E+03  0.81529733868E+02 0.  0.
          5    1    3    3  501    0  0.11298638596E+02  0.10683769344E+02 -0.80920243938E+02  0.82534708096E+02  0.47000000000E+01 0. -1.
        -13    1    4    4    0    0 -0.14548397872E+02  0.36242299930E+02  0.30809444250E+01  0.39174639799E+02  0.00000000000E+00 0.  1.
         14    1    4    4    0    0 -0.12866617680E+03  0.16288449609E+02 -0.56152375661E+02  0.14132723706E+03  0.00000000000E+00 0. -1.
         -5    1    5    5    0  502  0.87549192900E+02 -0.60962005425E+02  0.60804556729E+01  0.10695928769E+03  0.47000000000E+01 0.  1.
         11    1    6    6    0    0  0.52060796087E+02 -0.11839932237E+02 -0.11064775607E+03  0.12285534750E+03  0.00000000000E+00 0. -1.
        -12    1    6    6    0    0 -0.76940529111E+01  0.95874187779E+01  0.86814107172E+01  0.15049383411E+02  0.00000000000E+00 0.  1.
</event>
<event>
12    1  0.8691829E-002  0.1798541E+03  0.7818608E-02  0.1168536E+00
         21   -1    0    0  503  502  0.00000000000E+00  0.00000000000E+00  0.11817186257E+04  0.11817186257E+04  0.00000000000E+00 0.  1.
         21   -1    0    0  501  503 -0.00000000000E+00 -0.00000000000E+00 -0.27521921273E+02  0.27521921273E+02  0.00000000000E+00 0.  1.
          6    2    1    2  501    0  0.49646512935E+02  0.16477933742E+02  0.66377259520E+03  0.68770747553E+03  0.17207909580E+03 0.  0.
         24    2    3    3    0    0  0.66224357028E+02  0.17558365348E+02  0.66201031600E+03  0.67035271033E+03  0.80131991759E+02 0.  0.
         -6    2    1    2    0  502 -0.49646512935E+02 -0.16477933742E+02  0.49042410921E+03  0.52153307143E+03  0.16954244056E+03 0.  0.
        -24    2    5    5    0    0  0.24297608197E+01  0.20316780907E+02  0.12097724220E+03  0.14659458733E+03  0.80223466515E+02 0.  0.
          5    1    3    3  501    0 -0.16577844093E+02 -0.10804316062E+01  0.17622792069E+01  0.17354765202E+02  0.47000000000E+01 0. -1.
        -13    1    4    4    0    0  0.56761792192E+02 -0.22956409152E+02  0.46371137072E+03  0.46773617896E+03  0.00000000000E+00 0.  1.
         14    1    4    4    0    0  0.94625648362E+01  0.40514774501E+02  0.19829894527E+03  0.20261653137E+03  0.00000000000E+00 0. -1.
         -5    1    5    5    0  502 -0.52076273755E+02 -0.36794714650E+02  0.36944686701E+03  0.37493848410E+03  0.47000000000E+01 0.  1.
         13    1    6    6    0    0 -0.41085157932E+01  0.26902361261E+02  0.13049438743E+03  0.13330192082E+03  0.00000000000E+00 0. -1.
        -14    1    6    6    0    0  0.65382766130E+01 -0.65855803539E+01 -0.95171452282E+01  0.13292666511E+02  0.00000000000E+00 0.  1.
</event>
<event>
12    1  0.8691829E-002  0.2916187E+03  0.7818608E-02  0.1089814E+00
         21   -1    0    0  503  502  0.00000000000E+00  0.00000000000E+00  0.17563908200E+04  0.17563908200E+04  0.00000000000E+00 0. -1.
         21   -1    0    0  501  503 -0.00000000000E+00 -0.00000000000E+00 -0.71728701730E+02  0.71728701730E+02  0.00000000000E+00 0. -1.
          6    2    1    2  501    0 -0.20260741191E+03 -0.11453991958E+03  0.13700520879E+04  0.14007441511E+04  0.17570514166E+03 0.  0.
         24    2    3    3    0    0 -0.12999193767E+03 -0.10106334309E+03  0.61450633292E+03  0.64158270381E+03  0.83057988517E+02 0.  0.
         -6    2    1    2    0  502  0.20260741191E+03  0.11453991958E+03  0.31461003033E+03  0.42737537057E+03  0.17175878332E+03 0.  0.
        -24    2    5    5    0    0  0.13423610459E+03  0.13528606241E+01  0.17545877461E+03  0.23535686118E+03  0.81153610574E+02 0.  0.
          5    1    3    3  501    0 -0.72615474234E+02 -0.13476576489E+02  0.75554575498E+03  0.75916144731E+03  0.47000000000E+01 0. -1.
        -11    1    4    4    0    0 -0.13581220686E+03 -0.98647421981E+02  0.61232218875E+03  0.63491316905E+03  0.00000000000E+00 0.  1.
         12    1    4    4    0    0  0.58202691849E+01 -0.24159211090E+01  0.21841441661E+01  0.66695347610E+01  0.00000000000E+00 0. -1.
         -5    1    5    5    0  502  0.68371307312E+02  0.11318705896E+03  0.13915125572E+03  0.19201850939E+03  0.47000000000E+01 0.  1.
         13    1    6    6    0    0  0.41744046088E+02  0.17182575576E+02  0.11725107099E+02  0.46639944508E+02  0.00000000000E+00 0. -1.
        -14    1    6    6    0    0  0.92492058507E+02 -0.15829714952E+02  0.16373366751E+03  0.18871691667E+03  0.00000000000E+00 0.  1.
</event>
<event>
12    1  0.8691829E-002  0.2478988E+03  0.7818608E-02  0.1114704E+00
         21   -1    0    0  503  502  0.00000000000E+00  0.00000000000E+00  0.29198495824E+03  0.29198495824E+03  0.00000000000E+00 0. -1.
         21   -1    0    0  501  503 -0.00000000000E+00 -0.00000000000E+00 -0.28362745686E+03  0.28362745686E+03  0.00000000000E+00 0.  1.
          6    2    1    2  501    0 -0.15013179373E+03 -0.96408923311E+02 -0.14232572682E+03  0.28585036599E+03  0.17210340856E+03 0.  0.
         24    2    3    3    0    0 -0.60874801657E+02 -0.77825830010E+02 -0.14712972375E+03  0.19443203973E+03  0.79962873690E+02 0.  0.
         -6    2    1    2    0  502  0.15013179373E+03  0.96408923311E+02  0.15068322821E+03  0.28976204911E+03  0.17152951309E+03 0.  0.
        -24    2    5    5    0    0  0.77693672748E+02  0.65161826411E+02  0.16389657185E+03  0.20963499447E+03  0.82476507188E+02 0.  0.
          5    1    3    3  501    0 -0.89256992071E+02 -0.18583093300E+02  0.48039969228E+01  0.91418326263E+02  0.47000000000E+01 0. -1.
        -11    1    4    4    0    0  0.16621361039E+02 -0.29246473627E+02 -0.55945134405E+02  0.65280042326E+02  0.00000000000E+00 0.  1.
         12    1    4    4    0    0 -0.77496162696E+02 -0.48579356383E+02 -0.91184589341E+02  0.12915199740E+03  0.00000000000E+00 0. -1.
         -5    1    5    5    0  502  0.72438120980E+02  0.31247096899E+02 -0.13213343638E+02  0.80127054643E+02  0.47000000000E+01 0.  1.
         11    1    6    6    0    0  0.72876698911E+02  0.83766429549E+02  0.13305595067E+03  0.17329660693E+03  0.00000000000E+00 0. -1.
        -12    1    6    6    0    0  0.48169738376E+01 -0.18604603138E+02  0.30840621176E+02  0.36338387546E+02  0.00000000000E+00 0.  1.
</event>
<event>
12    1  0.8691829E-002  0.2700928E+03  0.7818608E-02  0.1101294E+00
         21   -1    0    0  501  502  0.00000000000E+00  0.00000000000E+00  0.24106477160E+03  0.24106477160E+03  0.00000000000E+00 0. -1.
         21   -1    0    0  502  503 -0.00000000000E+00 -0.00000000000E+00 -0.38719985897E+03  0.38719985897E+03  0.00000000000E+00 0.  1.
         -6    2    1    2    0  503  0.12608328338E+03  0.16510916747E+03 -0.22029669944E+03  0.34817520110E+03  0.17186420030E+03 0.  0.
        -24    2    3    3    0    0 -0.23139453843E+01  0.82341352579E+02 -0.11289135247E+03  0.16137488500E+03  0.80696613051E+02 0.  0.
          6    2    1    2  501    0 -0.12608328338E+03 -0.16510916747E+03  0.74161612081E+02  0.28008942947E+03  0.17260391728E+03 0.  0.
         24    2    5    5    0    0 -0.15433437683E+03 -0.16267936431E+03  0.49928154824E+02  0.24249450062E+03  0.77634314231E+02 0.  0.
          5    1    5    5  501    0  0.28251093444E+02 -0.24298031605E+01  0.24233457257E+02  0.37594928844E+02  0.47000000000E+01 0. -1.
        -13    1    6    6    0    0 -0.76905546343E+02 -0.93408120064E+02 -0.11929922306E+02  0.12158068514E+03  0.00000000000E+00 0.  1.
         14    1    6    6    0    0 -0.77428830483E+02 -0.69271244245E+02  0.61858077129E+02  0.12091381549E+03  0.00000000000E+00 0. -1.
         -5    1    3    3    0  503  0.12839722877E+03  0.82767814891E+02 -0.10740534698E+03  0.18680031610E+03  0.47000000000E+01 0.  1.
         13    1    4    4    0    0 -0.18334406969E+02  0.38966686272E+02 -0.42143556200E+01  0.43270242791E+02  0.00000000000E+00 0. -1.
        -14    1    4    4    0    0  0.16020461584E+02  0.43374666307E+02 -0.10867699685E+03  0.11810464221E+03  0.00000000000E+00 0.  1.
</event>
<event>
12    1  0.8691829E-002  0.3784697E+03  0.7818608E-02  0.1051603E+00
         21   -1    0    0  503  502  0.00000000000E+00  0.00000000000E+00  0.25744936817E+03  0.25744936817E+03  0.00000000000E+00 0.  1.
         21   -1    0    0  501  503 -0.00000000000E+00 -0.00000000000E+00 -0.60513380113E+03  0.60513380113E+03  0.00000000000E+00 0. -1.
          6    2    1    2  501    0 -0.24959428862E+03 -0.22473154530E+03 -0.29851226622E+03  0.48202578089E+03  0.17446404787E+03 0.  0.
         24    2    3    3    0    0 -0.84067293655E+02 -0.15621994099E+03 -0.18025973542E+03  0.26731952335E+03  0.86568906240E+02 0.  0.
         -6    2    1    2    0  502  0.24959428862E+03  0.22473154530E+03 -0.49172166745E+02  0.38055738840E+03  0.17205943022E+03 0.  0.
        -24    2    5    5    0    0  0.91404814636E+02  0.16624602785E+03 -0.50409230861E+02  0.21183250655E+03  0.79619962080E+02 0.  0.
          5    1    3    3  501    0 -0.16552699496E+03 -0.68511604310E+02 -0.11825253080E+03  0.21470625754E+03  0.47000000000E+01 0. -1.
        -11    1    4    4    0    0  0.13277757996E+02 -0.47646056903E+02 -0.29577446411E+02  0.57630468782E+02  0.00000000000E+00 0.  1.
         12    1    4    4    0    0 -0.97345051651E+02 -0.10857388408E+03 -0.15068228901E+03  0.20968905457E+03  0.00000000000E+00 0. -1.
         -5    1    5    5    0  502  0.15818947398E+03  0.58485517448E+02  0.12370641158E+01  0.16872488185E+03  0.47000000000E+01 0.  1.
         11    1    6    6    0    0  0.28434415514E+02  0.11968722861E+03 -0.51866884299E+02  0.13350551436E+03  0.00000000000E+00 0. -1.
        -12    1    6    6    0    0  0.62970399121E+02  0.46558799242E+02  0.14576534383E+01  0.78326992192E+02  0.00000000000E+00 0.  1.
</event>
<event>
12    1  0.8691829E-002  0.2517977E+03  0.7818608E-02  0.1112881E+00
         21   -1    0    0  501  502  0.00000000000E+00  0.00000000000E+00  0.73751992213E+02  0.73751992213E+02  0.00000000000E+00 0. -1.
         21   -1    0    0  502  503 -0.00000000000E+00 -0.00000000000E+00 -0.10316712659E+04  0.10316712659E+04  0.00000000000E+00 0.  1.
         -6    2    1    2    0  503  0.17404148865E+03 -0.62504862837E+02 -0.71088170406E+03  0.75267739745E+03  0.16423510527E+03 0.  0.
        -24    2    3    3    0    0  0.11097122841E+03 -0.35030882727E+02 -0.25435503207E+03  0.29097254632E+03  0.80167101071E+02 0.  0.
          6    2    1    2  501    0 -0.17404148865E+03  0.62504862837E+02 -0.24703756957E+03  0.35274586062E+03  0.17089407172E+03 0.  0.
         24    2    5    5    0    0 -0.16003159238E+03  0.94600433295E+02 -0.24445392540E+03  0.31731750963E+03  0.79833124284E+02 0.  0.
          5    1    5    5  501    0 -0.14009896278E+02 -0.32095570457E+02 -0.25836441705E+01  0.35428350990E+02  0.47000000000E+01 0. -1.
        -13    1    6    6    0    0 -0.74752137471E+01 -0.37153326193E+01 -0.52454338567E+02  0.53114406252E+02  0.00000000000E+00 0.  1.
         14    1    6    6    0    0 -0.15255637863E+03  0.98315765914E+02 -0.19199958684E+03  0.26420310337E+03  0.00000000000E+00 0. -1.
         -5    1    3    3    0  503  0.63070260242E+02 -0.27473980111E+02 -0.45652667199E+03  0.46170485112E+03  0.47000000000E+01 0.  1.
         11    1    4    4    0    0  0.10705172103E+03 -0.55278528808E+02 -0.22246208546E+03  0.25299242318E+03  0.00000000000E+00 0. -1.
        -12    1    4    4    0    0  0.39195073814E+01  0.20247646081E+02 -0.31892946614E+02  0.37980123139E+02  0.00000000000E+00 0.  1.
</event>
<event>
12    1  0.8691829E-002  0.1808455E+03  0.7818608E-02  0.1167854E+00
         21   -1    0    0  501  502  0.00000000000E+00  0.00000000000E+00  0.74286020785E+03  0.74286020785E+03  0.00000000000E+00 0.  1.
         21   -1    0    0  502  503 -0.00000000000E+00 -0.00000000000E+00 -0.24412162408E+03  0.24412162408E+03  0.00000000000E+00 0.  1.
         -6    2    1    2    0  503  0.37552035501E+02 -0.25314920150E+02 -0.19880975511E+03  0.26637183734E+03  0.17139905615E+03 0.  0.
        -24    2    3    3    0    0  0.38966828724E+02  0.23163382516E+02 -0.19751162448E+03  0.21762840073E+03  0.79349372835E+02 0.  0.
          6    2    1    2  501    0 -0.37552035501E+02  0.25314920150E+02  0.69754833889E+03  0.72060999459E+03  0.17508306219E+03 0.  0.
         24    2    5    5    0    0 -0.62618035207E+02 -0.13039975606E+02  0.24551569113E+03  0.26623679225E+03  0.80703256800E+02 0.  0.
          5    1    5    5  501    0  0.25065999706E+02  0.38354895756E+02  0.45203264775E+03  0.45437320234E+03  0.47000000000E+01 0. -1.
        -11    1    6    6    0    0  0.11610443707E+02 -0.22776387339E+02  0.39609732030E+02  0.47143367453E+02  0.00000000000E+00 0.  1.
         12    1    6    6    0    0 -0.74228478914E+02  0.97364117332E+01  0.20590595910E+03  0.21909342480E+03  0.00000000000E+00 0. -1.
         -5    1    3    3    0  503 -0.14147932229E+01 -0.48478302666E+02 -0.12981306287E+01  0.48743436608E+02  0.47000000000E+01 0.  1.
         13    1    4    4    0    0  0.60260618399E+02  0.11033685537E+01 -0.14084439579E+03  0.15319824861E+03  0.00000000000E+00 0. -1.
        -14    1    4    4    0    0 -0.21293789675E+02  0.22060013962E+02 -0.56667228689E+02  0.64430152119E+02  0.00000000000E+00 0.  1.
</event>
<event>
12    1  0.8691829E-002  0.2170025E+03  0.7818608E-02  0.1136806E+00
         21   -1    0    0  503  502  0.00000000000E+00  0.00000000000E+00  0.68265342009E+02  0.68265342009E+02  0.00000000000E+00 0.  1.
         21   -1    0    0  501  503 -0.00000000000E+00 -0.00000000000E+00 -0.67875943594E+03  0.67875943594E+03  0.00000000000E+00 0.  1.
          6    2    1    2  501    0 -0.10271990304E+03 -0.86133397314E+02 -0.30682757437E+03  0.37581012205E+03  0.17064509026E+03 0.  0.
         24    2    3    3    0    0 -0.38206075279E+02 -0.14107679754E+02 -0.64032923006E+02  0.11442712587E+03  0.85642402404E+02 0.  0.
         -6    2    1    2    0  502  0.10271990304E+03  0.86133397314E+02 -0.30366651956E+03  0.37121465590E+03  0.16618250522E+03 0.  0.
        -24    2    5    5    0    0  0.19058651740E+02  0.97915910269E+02 -0.16264155926E+03  0.20675140162E+03  0.79643628646E+02 0.  0.
          5    1    3    3  501    0 -0.64513827758E+02 -0.72025717560E+02 -0.24279465137E+03  0.26138299618E+03  0.47000000000E+01 0. -1.
        -11    1    4    4    0    0 -0.22315968713E+02 -0.31016070253E+02  0.77493632822E+01  0.38987840474E+02  0.00000000000E+00 0.  1.
         12    1    4    4    0    0 -0.15890106565E+02  0.16908390499E+02 -0.71782286289E+02  0.75439285394E+02  0.00000000000E+00 0. -1.
         -5    1    5    5    0  502  0.83661251297E+02 -0.11782512955E+02 -0.14102496029E+03  0.16446325427E+03  0.47000000000E+01 0.  1.
         13    1    6    6    0    0 -0.28557649217E+02  0.40013136186E+02 -0.41715915302E+02  0.64473312198E+02  0.00000000000E+00 0. -1.
        -14    1    6    6    0    0  0.47616300957E+02  0.57902774083E+02 -0.12092564396E+03  0.14227808943E+03  0.00000000000E+00 0.  1.
</event>
<event>
12    1  0.8691829E-002  0.1726941E+03  0.7818608E-02  0.1175242E+00
         21   -1    0    0  501  502  0.00000000000E+00  0.00000000000E+00  0.33168910503E+02  0.33168910503E+02  0.00000000000E+00 0. -1.
         21   -1    0    0  502  503 -0.00000000000E+00 -0.00000000000E+00 -0.14396055856E+04  0.14396055856E+04  0.00000000000E+00 0. -1.
         -6    2    1    2    0  503  0.10067497152E+02 -0.41394392316E+01 -0.11567746583E+04  0.11695943178E+04  0.17235071413E+03 0.  0.
        -24    2    3    3    0    0  0.27672087262E+02 -0.61512951607E+02 -0.64066643480E+03  0.64998732219E+03  0.86489598757E+02 0.  0.
          6    2    1    2  501    0 -0.10067497152E+02  0.41394392316E+01 -0.24966201678E+03  0.30318017830E+03  0.17166423167E+03 0.  0.
         24    2    5    5    0    0 -0.24151199155E+01 -0.66467578761E+01 -0.39130616858E+02  0.92181454893E+02  0.83163713578E+02 0.  0.
          5    1    5    5  501    0 -0.76523772360E+01  0.10786197108E+02 -0.21053139992E+03  0.21099872341E+03  0.47000000000E+01 0. -1.
        -13    1    6    6    0    0 -0.13685434409E+02  0.12169314709E+02 -0.59496336715E+02  0.62251083669E+02  0.00000000000E+00 0.  1.
         14    1    6    6    0    0  0.11270314494E+02 -0.18816072585E+02  0.20365719857E+02  0.29930371224E+02  0.00000000000E+00 0. -1.
         -5    1    3    3    0  503 -0.17604590111E+02  0.57373512376E+02 -0.51610822349E+03  0.51960699560E+03  0.47000000000E+01 0.  1.
         11    1    4    4    0    0  0.25425261793E+02 -0.50675168698E+01 -0.45920631041E+03  0.45993756010E+03  0.00000000000E+00 0. -1.
        -12    1    4    4    0    0  0.22468254689E+01 -0.56445434737E+02 -0.18146012439E+03  0.19004976209E+03  0.00000000000E+00 0.  1.
</event>
<event>
12    1  0.8691829E-002  0.2087913E+03  0.7818608E-02  0.1142652E+00
         21   -1    0    0  501  502  0.00000000000E+00  0.00000000000E+00  0.90155737608E+03  0.90155737608E+03  0.00000000000E+00 0. -1.
         21   -1    0    0  502  503 -0.00000000000E+00 -0.00000000000E+00 -0.52496976366E+02  0.52496976366E+02  0.00000000000E+00 0.  1.
         -6    2    1    2    0  503  0.89887043155E+02 -0.73955600948E+02  0.28878658733E+03  0.35635867079E+03  0.17333406414E+03 0.  0.
        -24    2    3    3    0    0  0.12918315099E+03 -0.43012621220E+02  0.22636974330E+03  0.27623623633E+03  0.80776391945E+02 0.  0.
          6    2    1    2  501    0 -0.89887043155E+02  0.73955600948E+02  0.56027381239E+03  0.59769568166E+03  0.17258120287E+03 0.  0.
         24    2    5    5    0    0 -0.33585901675E+01  0.48095212776E+02  0.14270540597E+03  0.17044704574E+03  0.79767994139E+02 0.  0.
          5    1    5    5  501    0 -0.86528452987E+02  0.25860388172E+02  0.41756840642E+03  0.42724863592E+03  0.47000000000E+01 0. -1.
        -13    1    6    6    0    0  0.88893773214E+01  0.66645808551E+02  0.12535492875E+03  0.14224817394E+03  0.00000000000E+00 0.  1.
         14    1    6    6    0    0 -0.12247967489E+02 -0.18550595775E+02  0.17350477218E+02  0.28198871802E+02  0.00000000000E+00 0. -1.
         -5    1    3    3    0  503 -0.39296107839E+02 -0.30942979728E+02  0.62416844029E+02  0.80122434463E+02  0.47000000000E+01 0.  1.
         13    1    4    4    0    0  0.43416118921E+02  0.19595523254E+01  0.13959616990E+03  0.14620495846E+03  0.00000000000E+00 0. -1.
        -14    1    4    4    0    0  0.85767032073E+02 -0.44972173545E+02  0.86773573397E+02  0.13003127787E+03  0.00000000000E+00 0.  1.
</event>
<event>
12    1  0.8691829E-002  0.2080080E+03  0.7818608E-02  0.1143537E+00
         21   -1    0    0  501  502  0.00000000000E+00  0.00000000000E+00  0.41925971341E+04  0.41925971341E+04  0.00000000000E+00 0. -1.
         21   -1    0    0  502  503 -0.00000000000E+00 -0.00000000000E+00 -0.12300668560E+02  0.12300668560E+02  0.00000000000E+00 0.  1.
         -6    2    1    2    0  503 -0.75486003108E+02  0.84971672819E+02  0.29616278107E+04  0.29689234765E+04  0.17420963905E+03 0.  0.
        -24    2    3    3    0    0 -0.54613001136E+02 -0.11138864778E+02  0.19668351718E+04  0.19692698355E+04  0.80476316914E+02 0.  0.
          6    2    1    2  501    0  0.75486003108E+02 -0.84971672819E+02  0.12186686548E+04  0.12359743261E+04  0.17193290201E+03 0.  0.
         24    2    5    5    0    0  0.50443967864E+02 -0.54014153519E+02  0.11570162477E+04  0.11624312718E+04  0.84248095818E+02 0.  0.
          5    1    5    5  501    0  0.25042035245E+02 -0.30957519300E+02  0.61652407068E+02  0.73543054245E+02  0.47000000000E+01 0. -1.
        -13    1    6    6    0    0  0.40677182858E+02  0.10826035119E+02  0.30429068763E+03  0.30718831165E+03  0.00000000000E+00 0.  1.
         14    1    6    6    0    0  0.97667850057E+01 -0.64840188638E+02  0.85272556008E+03  0.85524296020E+03  0.00000000000E+00 0. -1.
         -5    1    3    3    0  503 -0.20873001972E+02  0.96110537596E+02  0.99479263891E+03  0.99965364105E+03  0.47000000000E+01 0.  1.
         11    1    4    4    0    0 -0.72387600849E+02 -0.12301777569E+00  0.12227115682E+04  0.12248524642E+04  0.00000000000E+00 0. -1.
        -12    1    4    4    0    0  0.17774599713E+02 -0.11015847002E+02  0.74412360358E+03  0.74441737130E+03  0.00000000000E+00 0.  1.
</event>
<event>
12    1  0.8691829E-002  0.1963394E+03  0.7818608E-02  0.1152920E+00
         21   -1    0    0  501  502  0.00000000000E+00  0.00000000000E+00  0.52110041374E+02  0.52110041374E+02  0.00000000000E+00 0.  1.
         21   -1    0    0  502  503 -0.00000000000E+00 -0.00000000000E+00 -0.89369273496E+03  0.89369273496E+03  0.00000000000E+00 0.  1.
         -6    2    1    2    0  503 -0.68975411890E+02  0.61693816971E+02 -0.22368277965E+03  0.29745914493E+03  0.17287053680E+03 0.  0.
        -24    2    3    3    0    0 -0.10883525203E+03  0.17133180849E+02 -0.16144069345E+03  0.21102637081E+03  0.79563645617E+02 0.  0.
          6    2    1    2  501    0  0.68975411890E+02 -0.61693816971E+02 -0.61789991394E+03  0.64834363141E+03  0.17316300484E+03 0.  0.
         24    2    5    5    0    0  0.71294723514E+02 -0.93623112739E+02 -0.58518177716E+03  0.60232813827E+03  0.80704702394E+02 0.  0.
          5    1    5    5  501    0 -0.23193116248E+01  0.31929295768E+02 -0.32718136777E+02  0.46015493139E+02  0.47000000000E+01 0. -1.
        -13    1    6    6    0    0  0.25302558490E+02 -0.18223338640E+01 -0.38627411800E+02  0.46212739685E+02  0.00000000000E+00 0.  1.
         14    1    6    6    0    0  0.45992165024E+02 -0.91800778875E+02 -0.54655436536E+03  0.55611539858E+03  0.00000000000E+00 0. -1.
         -5    1    3    3    0  503  0.39859840142E+02  0.44560636122E+02 -0.62242086201E+02  0.86432774122E+02  0.47000000000E+01 0.  1.
         11    1    4    4    0    0  0.97282170708E+01 -0.36182724503E+01 -0.34779433910E+02  0.36295166703E+02  0.00000000000E+00 0. -1.
        -12    1    4    4    0    0 -0.11856346910E+03  0.20751453299E+02 -0.12666125954E+03  0.17473120410E+03  0.00000000000E+00 0.  1.
</event>
<event>
12    1  0.8691829E-002  0.1944390E+03  0.7818608E-02  0.1154597E+00
         21   -1    0    0  503  502  0.00000000000E+00  0.00000000000E+00  0.22668724268E+02  0.22668724268E+02  0.00000000000E+00 0.  1.
         21   -1    0    0  501  503 -0.00000000000E+00 -0.00000000000E+00 -0.16649165616E+04  0.16649165616E+04  0.00000000000E+00 0. -1.
          6    2    1    2  501    0  0.80261651532E+02  0.38861849925E+02 -0.83218004993E+03  0.85459355770E+03  0.17278407700E+03 0.  0.
         24    2    3    3    0    0  0.11058302413E+03  0.44541981812E+02 -0.48631968300E+03  0.50732833780E+03  0.81624842392E+02 0.  0.
         -6    2    1    2    0  502 -0.80261651532E+02 -0.38861849925E+02 -0.81006778736E+03  0.83299172813E+03  0.17237523873E+03 0.  0.
        -24    2    5    5    0    0 -0.85173227284E+02 -0.73948604798E+02 -0.73081341426E+03  0.74605180864E+03  0.98904903461E+02 0.  0.
          5    1    3    3  501    0 -0.30321372594E+02 -0.56801318873E+01 -0.34586036694E+03  0.34726521990E+03  0.47000000000E+01 0. -1.
        -11    1    4    4    0    0  0.10012907030E+03  0.66473877846E+02 -0.40387492645E+03  0.42137817144E+03  0.00000000000E+00 0.  1.
         12    1    4    4    0    0  0.10453953822E+02 -0.21931896034E+02 -0.82444756552E+02  0.85950166358E+02  0.00000000000E+00 0. -1.
         -5    1    5    5    0  502  0.49115757525E+01  0.35086754873E+02 -0.79254373101E+02  0.86939919482E+02  0.47000000000E+01 0.  1.
         11    1    6    6    0    0 -0.72516055259E+02 -0.98037012024E+01 -0.24014337233E+03  0.25104487667E+03  0.00000000000E+00 0. -1.
        -12    1    6    6    0    0 -0.12657172025E+02 -0.64144903595E+02 -0.49067004193E+03  0.49500693198E+03  0.00000000000E+00 0.  1.
</event>
<event>
12    1  0.8691829E-002  0.2407803E+03  0.7818608E-02  0.1119321E+00
         21   -1    0    0  501  502  0.00000000000E+00  0.00000000000E+00  0.85712008279E+02  0.85712008279E+02  0.00000000000E+00 0. -1.
         21   -1    0    0  502  503 -0.00000000000E+00 -0.00000000000E+00 -0.98628975618E+03  0.98628975618E+03  0.00000000000E+00 0. -1.
         -6    2    1    2    0  503  0.14945122701E+03 -0.76448116633E+02 -0.75094148634E+03  0.78851248667E+03  0.17221742635E+03 0.  0.
        -24    2    3    3    0    0  0.13054325639E+03 -0.11328217957E+03 -0.51301924534E+03  0.54696882125E+03  0.78177690735E+02 0.  0.
          6    2    1    2  501    0 -0.14945122701E+03  0.76448116633E+02 -0.14963626156E+03  0.28348927779E+03  0.17261279228E+03 0.  0.
         24    2    5    5    0    0 -0.13498195961E+03  0.79256565836E+02 -0.17826529011E+03  0.25094763737E+03  0.81819743328E+02 0.  0.
          5    1    5    5  501    0 -0.14469267397E+02 -0.28084492028E+01  0.28629028541E+02  0.32541640419E+02  0.47000000000E+01 0. -1.
        -13    1    6    6    0    0 -0.10367052094E+02  0.46226394916E+02 -0.41240647623E+02  0.62810400193E+02  0.00000000000E+00 0.  1.
         14    1    6    6    0    0 -0.12461490752E+03  0.33030170920E+02 -0.13702464248E+03  0.18813723718E+03  0.00000000000E+00 0. -1.
         -5    1    3    3    0  503  0.18907970623E+02  0.36834062936E+02 -0.23792224100E+03  0.24154366542E+03  0.47000000000E+01 0.  1.
         11    1    4    4    0    0  0.13294399476E+03 -0.82371698067E+02 -0.45587849003E+03  0.48195891947E+03  0.00000000000E+00 0. -1.
        -12    1    4    4    0    0 -0.24007383714E+01 -0.30910481502E+02 -0.57140755318E+02  0.65009901782E+02  0.00000000000E+00 0.  1.
</event>
<event>
12    1  0.8691829E-002  0.2388108E+03  0.7818608E-02  0.1120800E+00
         21   -1    0    0  501  502  0.00000000000E+00  0.00000000000E+00  0.41958789342E+02  0.41958789342E+02  0.00000000000E+00 0. -1.
         21   -1    0    0  502  503 -0.00000000000E+00 -0.00000000000E+00 -0.13633927283E+04  0.13633927283E+04  0.00000000000E+00 0.  1.
         -6    2    1    2    0  503 -0.30295723203E+02  0.16266814002E+03 -0.72313160835E+03  0.76114948160E+03  0.17044194236E+03 0.  0.
        -24    2    3    3    0    0 -0.73302793450E+02  0.15833100678E+03 -0.61447142271E+03  0.64411297122E+03  0.82851572953E+02 0.  0.
          6    2    1    2  501    0  0.30295723203E+02 -0.16266814002E+03 -0.59830233059E+03  0.64420203603E+03  0.17219706680E+03 0.  0.
         24    2    5    5    0    0 -0.21322692896E+02 -0.48048021485E+02 -0.39147014074E+03  0.40211965912E+03  0.75419357981E+02 0.  0.
          5    1    5    5  501    0  0.51618416099E+02 -0.11462011853E+03 -0.20683218985E+03  0.24208237691E+03  0.47000000000E+01 0. -1.
        -11    1    6    6    0    0  0.20732706906E+02 -0.32437266450E+02 -0.26804087870E+03  0.27079131087E+03  0.00000000000E+00 0.  1.
         12    1    6    6    0    0 -0.42055399801E+02 -0.15610755036E+02 -0.12342926204E+03  0.13132834825E+03  0.00000000000E+00 0. -1.
         -5    1    3    3    0  503  0.43007070246E+02  0.43371332385E+01 -0.10866018565E+03  0.11703651038E+03  0.47000000000E+01 0.  1.
         11    1    4    4    0    0 -0.81240758048E+02  0.12976890918E+03 -0.41285117174E+03  0.44032501696E+03  0.00000000000E+00 0. -1.
        -12    1    4    4    0    0  0.79379645983E+01  0.28562097597E+02 -0.20162025097E+03  0.20378795426E+03  0.00000000000E+00 0.  1.
</event>
<event>
12    1  0.8691829E-002  0.1784819E+03  0.7818608E-02  0.1170642E+00
         21   -1    0    0  501  502  0.00000000000E+00  0.00000000000E+00  0.84731750026E+02  0.84731750026E+02  0.00000000000E+00 0. -1.
         21   -1    0    0  502  503 -0.00000000000E+00 -0.00000000000E+00 -0.45633613599E+03  0.45633613599E+03  0.00000000000E+00 0. -1.
         -6    2    1    2    0  503  0.13354745499E+00  0.28227111980E+02 -0.30945414460E+03  0.35723613650E+03  0.17623564318E+03 0.  0.
        -24    2    3    3    0    0 -0.39163767647E+02 -0.38154452444E+02 -0.21015704977E+03  0.23140770525E+03  0.79962350785E+02 0.  0.
          6    2    1    2  501    0 -0.13354745499E+00 -0.28227111980E+02 -0.62150241358E+02  0.18383174951E+03  0.17068881610E+03 0.  0.
         24    2    5    5    0    0 -0.46886946332E+02 -0.32548504422E+02 -0.85521394435E+02  0.13117383904E+03  0.81454749802E+02 0.  0.
          5    1    5    5  501    0  0.46753398877E+02  0.43213924421E+01  0.23371153077E+02  0.52657910473E+02  0.47000000000E+01 0. -1.
        -11    1    6    6    0    0  0.10176839968E+01  0.17488400480E+02  0.40119479754E+01  0.17971520765E+02  0.00000000000E+00 0.  1.
         12    1    6    6    0    0 -0.47904630329E+02 -0.50036904902E+02 -0.89533342410E+02  0.11320231827E+03  0.00000000000E+00 0. -1.
         -5    1    3    3    0  503  0.39297315102E+02  0.66381564423E+02 -0.99297094833E+02  0.12582843125E+03  0.47000000000E+01 0.  1.
         13    1    4    4    0    0 -0.54975711862E+02 -0.21324778497E+02 -0.80929956169E+02  0.10013357518E+03  0.00000000000E+00 0. -1.
        -14    1    4    4    0    0  0.15811944215E+02 -0.16829673947E+02 -0.12922709360E+03  0.13127413007E+03  0.00000000000E+00 0.  1.
</event>
<event>
12    1  0.8691829E-002  0.2823664E+03  0.7818608E-02  0.1094521E+00
         21   -1    0    0  503  502  0.00000000000E+00  0.00000000000E+00  0.46128406688E+03  0.46128406688E+03  0.00000000000E+00 0.  1.
         21   -1    0    0  501  503 -0.00000000000E+00 -0.00000000000E+00 -0.17237330977E+03  0.17237330977E+03  0.00000000000E+00 0.  1.
          6    2    1    2  501    0  0.10633507617E+03  0.19636596066E+03  0.15006571194E+03  0.31900088356E+03  0.17139167683E+03 0.  0.
         24    2    3    3    0    0  0.96368170982E+02  0.18065996245E+03  0.17954070755E+03  0.28383153689E+03  0.80003932744E+02 0.  0.
         -6    2    1    2    0  502 -0.10633507617E+03 -0.19636596066E+03  0.13884504516E+03  0.31465649309E+03  0.17281210359E+03 0.  0.
        -24    2    5    5    0    0 -0.63154150923E+02 -0.11805178600E+03  0.91713029251E+01  0.15706502224E+03  0.81612728536E+02 0.  0.
          5    1    3    3  501    0  0.99669051872E+01  0.15705998200E+02 -0.29474995615E+02  0.35169346667E+02  0.47000000000E+01 0. -1.
        -11    1    4    4    0    0  0.44495050276E+02  0.16772942240E+02  0.32212808252E+02  0.57435234011E+02  0.00000000000E+00 0.  1.
         12    1    4    4    0    0  0.51873120706E+02  0.16388702021E+03  0.14732789930E+03  0.22639630288E+03  0.00000000000E+00 0. -1.
         -5    1    5    5    0  502 -0.43180925247E+02 -0.78314174660E+02  0.12967374224E+03  0.15759147085E+03  0.47000000000E+01 0.  1.
         11    1    6    6    0    0  0.24237295249E+01 -0.41362899124E+02  0.33484949170E+02  0.53272935996E+02  0.00000000000E+00 0. -1.
        -12    1    6    6    0    0 -0.65577880448E+02 -0.76688886871E+02 -0.24313646245E+02  0.10379208625E+03  0.00000000000E+00 0.  1.
</event>
<event>
12    1  0.8691829E-002  0.1758659E+03  0.7818608E-02  0.1172529E+00
         21   -1    0    0  501  502  0.00000000000E+00  0.00000000000E+00  0.71816766243E+02  0.71816766243E+02  0.00000000000E+00 0. -1.
         21   -1    0    0  502  503 -0.00000000000E+00 -0.00000000000E+00 -0.43325842864E+03  0.43325842864E+03  0.00000000000E+00 0. -1.
         -6    2    1    2    0  503  0.13925415546E+02  0.14799351084E+02 -0.21586121383E+03  0.27677171989E+03  0.17202785619E+03 0.  0.
        -24    2    3    3    0    0 -0.36603348302E+02  0.27772476192E+02 -0.53987945405E+02  0.10663500139E+03  0.79656824769E+02 0.  0.
          6    2    1    2  501    0 -0.13925415546E+02 -0.14799351084E+02 -0.14558044857E+03  0.22830347499E+03  0.17468792659E+03 0.  0.
         24    2    5    5    0    0  0.49306374437E+02  0.16920552708E+02 -0.12047462777E+03  0.15309174852E+03  0.78775147504E+02 0.  0.
          5    1    5    5  501    0 -0.63231789983E+02 -0.31719903792E+02 -0.25105820797E+02  0.75211726472E+02  0.47000000000E+01 0. -1.
        -11    1    6    6    0    0  0.21568792168E+01  0.15455717009E+02 -0.10076704986E+03  0.10196827769E+03  0.00000000000E+00 0.  1.
         12    1    6    6    0    0  0.47149495220E+02  0.14648356991E+01 -0.19707577909E+02  0.51123470835E+02  0.00000000000E+00 0. -1.
         -5    1    3    3    0  503  0.50528763847E+02 -0.12973125108E+02 -0.16187326842E+03  0.17013671850E+03  0.47000000000E+01 0.  1.
         13    1    4    4    0    0 -0.43130704803E+02  0.22530211341E+02 -0.71925610588E+02  0.86839861690E+02  0.00000000000E+00 0. -1.
        -14    1    4    4    0    0  0.65273565017E+01  0.52422648516E+01  0.17937665183E+02  0.19795139704E+02  0.00000000000E+00 0.  1.
</event>
<event>
12    1  0.8691829E-002  0.2685577E+03  0.7818608E-02  0.1102193E+00
         21   -1    0    0  503  502  0.00000000000E+00  0.00000000000E+00  0.97088303014E+03  0.97088303014E+03  0.00000000000E+00 0. -1.
         21   -1    0    0  501  503 -0.00000000000E+00 -0.00000000000E+00 -0.10391855215E+03  0.10391855215E+03  0.00000000000E+00 0. -1.
          6    2    1    2  501    0  0.46307312413E+02 -0.20040553983E+03  0.14606744892E+03  0.30571054075E+03  0.17267451321E+03 0.  0.
         24    2    3    3    0    0 -0.24944266292E+01 -0.15108986512E+03  0.34436880919E+02  0.17419202791E+03  0.79514742757E+02 0.  0.
         -6    2    1    2    0  502 -0.46307312413E+02  0.20040553983E+03  0.72089702907E+03  0.76909104154E+03  0.17176075247E+03 0.  0.
        -24    2    5    5    0    0 -0.65300144174E+02  0.10734849337E+03  0.58237329179E+03  0.60106944370E+03  0.79611665572E+02 0.  0.
          5    1    3    3  501    0  0.48801739042E+02 -0.49315674713E+02  0.11163056801E+03  0.13151851284E+03  0.47000000000E+01 0. -1.
        -13    1    4    4    0    0 -0.78391388023E+01 -0.60859208022E+02  0.53966969265E+02  0.81717373122E+02  0.00000000000E+00 0.  1.
         14    1    4    4    0    0  0.53447121731E+01 -0.90230657095E+02 -0.19530088346E+02  0.92474654792E+02  0.00000000000E+00 0. -1.
         -5    1    5    5    0  502  0.18992831761E+02  0.93057046462E+02  0.13852373727E+03  0.16802159785E+03  0.47000000000E+01 0.  1.
         13    1    6    6    0    0 -0.45194252517E+02  0.11252267195E+03  0.41314679044E+03  0.43057420106E+03  0.00000000000E+00 0. -1.
        -14    1    6    6    0    0 -0.20105891657E+02 -0.51741785833E+01  0.16922650135E+03  0.17049524264E+03  0.00000000000E+00 0.  1.
</event>
<event>
12    1  0.8691829E-002  0.1773220E+03  0.7818608E-02  0.1170547E+00
         21   -1    0    0  503  502  0.00000000000E+00  0.00000000000E+00  0.58630115842E+03  0.58630115842E+03  0.00000000000E+00 0. -1.
         21   -1    0    0  501  503 -0.00000000000E+00 -0.00000000000E+00 -0.54240342518E+02  0.54240342518E+02  0.00000000000E+00 0. -1.
          6    2    1    2  501    0  0.25122317792E+02 -0.35435162501E+02  0.22835714895E+03  0.28911948385E+03  0.17191947788E+03 0.  0.
         24    2    3    3    0    0 -0.16667129141E+02  0.28006837746E+02  0.63587425305E+02  0.10761907862E+03  0.80475643966E+02 0.  0.
         -6    2    1    2    0  502 -0.25122317792E+02  0.35435162501E+02  0.30370366696E+03  0.35142201709E+03  0.17139059244E+03 0.  0.
        -24    2    5    5    0    0  0.31811613802E+02  0.57930081789E+02  0.11995375957E+03  0.15768608231E+03  0.78154481444E+02 0.  0.
          5    1    3    3  501    0  0.41789446933E+02 -0.63442000248E+02  0.16476972364E+03  0.18150040523E+03  0.47000000000E+01 0. -1.
        -11    1    4    4    0    0  0.28364160360E+02  0.30022329462E+02  0.24976433655E+02  0.48266842629E+02  0.00000000000E+00 0.  1.
         12    1    4    4    0    0 -0.45031289501E+02 -0.20154917153E+01  0.38610991650E+02  0.59352235992E+02  0.00000000000E+00 0. -1.
         -5    1    5    5    0  502 -0.56933931594E+02 -0.22494919288E+02  0.18374990738E+03  0.19373593478E+03  0.47000000000E+01 0.  1.
         13    1    6    6    0    0  0.93901832653E-01  0.66191484466E+02  0.97916820147E+02  0.11819063034E+03  0.00000000000E+00 0. -1.
        -14    1    6    6    0    0  0.31717711969E+02 -0.82614026769E+01  0.22036939427E+02  0.39495451967E+02  0.00000000000E+00 0.  1.
</event>
<event>
12    1  0.8691829E-002  0.3233613E+03  0.7818608E-02  0.1074116E+00
         21   -1    0    0  503  502  0.00000000000E+00  0.00000000000E+00  0.22050015272E+03  0.22050015272E+03  0.00000000000E+00 0. -1.
         21   -1    0    0  501  503 -0.00000000000E+00 -0.00000000000E+00 -0.57733870995E+03  0.57733870995E+03  0.00000000000E+00 0.  1.
          6    2    1    2  501    0  0.26617897785E+03  0.65937582319E+02 -0.34705914819E+03  0.47435488211E+03  0.17135778018E+03 0.  0.
         24    2    3    3    0    0  0.24391357490E+03  0.96766061906E+02 -0.25403839782E+03  0.37375123744E+03  0.79353494979E+02 0.  0.
         -6    2    1    2    0  502 -0.26617897785E+03 -0.65937582319E+02 -0.97794090436E+01  0.32348398056E+03  0.17131034943E+03 0.  0.
        -24    2    5    5    0    0 -0.11981749752E+03 -0.30718491595E+02  0.58713019891E+02  0.15802894105E+03  0.78905443838E+02 0.  0.
          5    1    3    3  501    0  0.22265402959E+02 -0.30828479586E+02 -0.93020750368E+02  0.10060364467E+03  0.47000000000E+01 0. -1.
        -13    1    4    4    0    0  0.15680544081E+03  0.71957993543E+02 -0.21356732432E+03  0.27454854055E+03  0.00000000000E+00 0.  1.
         14    1    4    4    0    0  0.87108134086E+02  0.24808068363E+02 -0.40471073506E+02  0.99202696891E+02  0.00000000000E+00 0. -1.
         -5    1    5    5    0  502 -0.14636148033E+03 -0.35219090725E+02 -0.68492428935E+02  0.16545503951E+03  0.47000000000E+01 0.  1.
         13    1    6    6    0    0 -0.75898987476E+02 -0.42762945346E+01 -0.50815641798E+01  0.76189010292E+02  0.00000000000E+00 0. -1.
        -14    1    6    6    0    0 -0.43918510044E+02 -0.26442197060E+02  0.63794584071E+02  0.81839930759E+02  0.00000000000E+00 0.  1.
</event>
<event>
12    1  0.8691829E-002  0.3129438E+03  0.7818608E-02  0.1078979E+00
         21   -1    0    0  503  502  0.00000000000E+00  0.00000000000E+00  0.76894669273E+03  0.76894669273E+03  0.00000000000E+00 0.  1.
         21   -1    0    0  501  503 -0.00000000000E+00 -0.00000000000E+00 -0.24323988468E+03  0.24323988468E+03  0.00000000000E+00 0. -1.
          6    2    1    2  501    0 -0.22053392761E+03 -0.13970509199E+03 -0.86579074693E+02  0.32469946021E+03  0.17257194828E+03 0.  0.
         24    2    3    3    0    0 -0.69563241855E+02 -0.19617117825E+02 -0.44398449280E+02  0.12717841157E+03  0.94758905347E+02 0.  0.
         -6    2    1    2    0  502  0.22053392761E+03  0.13970509199E+03  0.61228588275E+03  0.68748711720E+03  0.17202269662E+03 0.  0.
        -24    2    5    5    0    0  0.80566444148E+02  0.92401931891E+02  0.19642046728E+03  0.24613168316E+03  0.83490936912E+02 0.  0.
          5    1    3    3  501    0 -0.15097068575E+03 -0.12008797417E+03 -0.42180625413E+02  0.19752104864E+03  0.47000000000E+01 0. -1.
        -13    1    4    4    0    0 -0.12076280982E+02 -0.49859574886E+02 -0.33613619599E+02  0.61332611169E+02  0.00000000000E+00 0.  1.
         14    1    4    4    0    0 -0.57486960874E+02  0.30242457062E+02 -0.10784829681E+02  0.65845800404E+02  0.00000000000E+00 0. -1.
         -5    1    5    5    0  502  0.13996748346E+03  0.47303160099E+02  0.41586541547E+03  0.44135543404E+03  0.47000000000E+01 0.  1.
         11    1    6    6    0    0 -0.50307338770E+01  0.81100484653E+01  0.73999288324E+02  0.74612169530E+02  0.00000000000E+00 0. -1.
        -12    1    6    6    0    0  0.85597178025E+02  0.84291883426E+02  0.12242117896E+03  0.17151951363E+03  0.00000000000E+00 0.  1.
</event>
<event>
12    1  0.8691829E-002  0.1935772E+03  0.7818608E-02  0.1156719E+00
         21   -1    0    0  501  502  0.00000000000E+00  0.00000000000E+00  0.14371097409E+03  0.14371097409E+03  0.00000000000E+00 0.  1.
         21   -1    0    0  502  503 -0.00000000000E+00 -0.00000000000E+00 -0.26836315637E+03  0.26836315637E+03  0.00000000000E+00 0.  1.
         -6    2    1    2    0  503  0.64506262446E+02  0.59766779947E+02 -0.12654990420E+02  0.19399039659E+03  0.17244999074E+03 0.  0.
        -24    2    3    3    0    0  0.90261596845E+02 -0.81758147595E+01 -0.62204016454E+01  0.12089438194E+03  0.79766900254E+02 0.  0.
          6    2    1    2  501    0 -0.64506262446E+02 -0.59766779947E+02 -0.11199719186E+03  0.21808373387E+03  0.16517874595E+03 0.  0.
         24    2    5    5    0    0 -0.79857043877E+02 -0.85130283159E+02 -0.12423488760E+03  0.18566761160E+03  0.73578815791E+02 0.  0.
          5    1    5    5  501    0  0.15350781432E+02  0.25363503212E+02  0.12237695739E+02  0.32416122265E+02  0.47000000000E+01 0. -1.
        -13    1    6    6    0    0 -0.78658314274E+02 -0.32832908638E+02 -0.69765455306E+02  0.11014694298E+03  0.00000000000E+00 0.  1.
         14    1    6    6    0    0 -0.11987296038E+01 -0.52297374520E+02 -0.54469432296E+02  0.75520668621E+02  0.00000000000E+00 0. -1.
         -5    1    3    3    0  503 -0.25755334399E+02  0.67942594706E+02 -0.64345887744E+01  0.73096014653E+02  0.47000000000E+01 0.  1.
         11    1    4    4    0    0 -0.53694210278E+01 -0.22327191452E+02 -0.76709311788E+01  0.24211099634E+02  0.00000000000E+00 0. -1.
        -12    1    4    4    0    0  0.95631017872E+02  0.14151376693E+02  0.14505295334E+01  0.96683282306E+02  0.00000000000E+00 0.  1.
</event>
<event>
12    1  0.8691829E-002  0.1946466E+03  0.7818608E-02  0.1154554E+00
         21   -1    0    0  501  502  0.00000000000E+00  0.00000000000E+00  0.14075567240E+03  0.14075567240E+03  0.00000000000E+00 0.  1.
         21   -1    0    0  502  503 -0.00000000000E+00 -0.00000000000E+00 -0.26819691132E+03  0.26819691132E+03  0.00000000000E+00 0. -1.
         -6    2    1    2    0  503  0.56454210150E+00 -0.88252406435E+02 -0.71463868589E+02  0.20641670112E+03  0.17237158709E+03 0.  0.
        -24    2    3    3    0    0 -0.17940761596E+02 -0.26929432134E+02 -0.10230678660E+03  0.13516833950E+03  0.82199368467E+02 0.  0.
          6    2    1    2  501    0 -0.56454210150E+00  0.88252406435E+02 -0.55977370330E+02  0.20253588260E+03  0.17348922677E+03 0.  0.
         24    2    5    5    0    0  0.34688915135E+02  0.42559042789E+02  0.27454237672E+02  0.10097992295E+03  0.80178654988E+02 0.  0.
          5    1    5    5  501    0 -0.35253457236E+02  0.45693363646E+02 -0.83431608002E+02  0.10155595966E+03  0.47000000000E+01 0. -1.
        -11    1    6    6    0    0 -0.11040005978E+02  0.47794403320E+02  0.24569250925E+02  0.54861961428E+02  0.00000000000E+00 0.  1.
         12    1    6    6    0    0  0.45728921113E+02 -0.52353605306E+01  0.28849867469E+01  0.46117961518E+02  0.00000000000E+00 0. -1.
         -5    1    3    3    0  503  0.18505303698E+02 -0.61322974301E+02  0.30842918011E+02  0.71248361620E+02  0.47000000000E+01 0.  1.
         11    1    4    4    0    0 -0.48348039222E+02 -0.13818869859E+02 -0.82402540364E+02  0.96533272602E+02  0.00000000000E+00 0. -1.
        -12    1    4    4    0    0  0.30407277626E+02 -0.13110562275E+02 -0.19904246236E+02  0.38635066896E+02  0.00000000000E+00 0.  1.
</event>
<event>
12    1  0.8691829E-002  0.1781914E+03  0.7818608E-02  0.1169746E+00
         21   -1    0    0  503  502  0.00000000000E+00  0.00000000000E+00  0.43860451282E+03  0.43860451282E+03  0.00000000000E+00 0.  1.
         21   -1    0    0  501  503 -0.00000000000E+00 -0.00000000000E+00 -0.26690078115E+03  0.26690078115E+03  0.00000000000E+00 0.  1.
          6    2    1    2  501    0 -0.48497067984E+02  0.20621401826E+01 -0.21556347726E+03  0.27920952763E+03  0.17068722730E+03 0.  0.
         24    2    3    3    0    0 -0.63747903222E+02  0.25347560035E+02 -0.22581086720E+03  0.24917791505E+03  0.79954935042E+02 0.  0.
         -6    2    1    2    0  502  0.48497067984E+02 -0.20621401826E+01  0.38726720893E+03  0.42629576635E+03  0.17145253358E+03 0.  0.
        -24    2    5    5    0    0 -0.42412701488E+01 -0.16792763828E+02  0.34873619845E+03  0.35917607959E+03  0.84205313079E+02 0.  0.
          5    1    3    3  501    0  0.15250835239E+02 -0.23285419852E+02  0.10247389943E+02  0.30031612575E+02  0.47000000000E+01 0. -1.
        -11    1    4    4    0    0 -0.66585644663E+02 -0.11691335634E+02 -0.15807599705E+03  0.17192543805E+03  0.00000000000E+00 0.  1.
         12    1    4    4    0    0  0.28377414403E+01  0.37038895668E+02 -0.67734870152E+02  0.77252477005E+02  0.00000000000E+00 0. -1.
         -5    1    5    5    0  502  0.52738338132E+02  0.14730623645E+02  0.38531010473E+02  0.67119686754E+02  0.47000000000E+01 0.  1.
         11    1    6    6    0    0 -0.69896066230E+01 -0.22989049182E+02  0.22654358394E+02  0.33023793503E+02  0.00000000000E+00 0. -1.
        -12    1    6    6    0    0  0.27483364742E+01  0.61962853548E+01  0.32608184006E+03  0.32615228609E+03  0.00000000000E+00 0.  1.
</event>
<event>
12    1  0.8691829E-002  0.2031052E+03  0.7818608E-02  0.1147242E+00
         21   -1    0    0  503  502  0.00000000000E+00  0.00000000000E+00  0.10296521182E+03  0.10296521182E+03  0.00000000000E+00 0. -1.
         21   -1    0    0  501  503 -0.00000000000E+00 -0.00000000000E+00 -0.11295480474E+04  0.11295480474E+04  0.00000000000E+00 0. -1.
          6    2    1    2  501    0 -0.10280408900E+03  0.32366582185E+02 -0.10084417498E+04  0.10285994955E+04  0.17159802730E+03 0.  0.
         24    2    3    3    0    0 -0.76924305896E+02  0.62707334720E+02 -0.42598027382E+03  0.44475552193E+03  0.80614650866E+02 0.  0.
         -6    2    1    2    0  502  0.10280408900E+03 -0.32366582185E+02 -0.18141085758E+02  0.20391376372E+03  0.17214949227E+03 0.  0.
        -24    2    5    5    0    0  0.10369593142E+03 -0.33633650589E+01 -0.67033897790E+02  0.14686484564E+03  0.79445459367E+02 0.  0.
          5    1    3    3  501    0 -0.25879783099E+02 -0.30340752535E+02 -0.58246147598E+03  0.58384397354E+03  0.47000000000E+01 0. -1.
        -13    1    4    4    0    0 -0.17476784328E+02 -0.10820184016E+02 -0.23068148689E+02  0.30897473303E+02  0.00000000000E+00 0.  1.
         14    1    4    4    0    0 -0.59447521568E+02  0.73527518736E+02 -0.40291212513E+03  0.41385804862E+03  0.00000000000E+00 0. -1.
         -5    1    5    5    0  502 -0.89184242046E+00 -0.29003217126E+02  0.48892812032E+02  0.57048918088E+02  0.47000000000E+01 0.  1.
         11    1    6    6    0    0  0.53482641315E+02  0.32286285997E+02 -0.10657516058E+02  0.63374914864E+02  0.00000000000E+00 0. -1.
        -12    1    6    6    0    0  0.50213290100E+02 -0.35649651056E+02 -0.56376381732E+02  0.83489930772E+02  0.00000000000E+00 0.  1.
</event>
<event>
12    1  0.8691829E-002  0.2270906E+03  0.7818608E-02  0.1128820E+00
         21   -1    0    0  503  502  0.00000000000E+00  0.00000000000E+00  0.14296172504E+04  0.14296172504E+04  0.00000000000E+00 0. -1.
         21   -1    0    0  501  503 -0.00000000000E+00 -0.00000000000E+00 -0.38479981913E+02  0.38479981913E+02  0.00000000000E+00 0. -1.
          6    2    1    2  501    0 -0.81267991656E+02  0.12250757301E+03  0.50902034692E+03  0.55737944650E+03  0.17308247134E+03 0.  0.
         24    2    3    3    0    0  0.23007826673E+02  0.81290005396E+02  0.24477469655E+03  0.27029028281E+03  0.77490385492E+02 0.  0.
         -6    2    1    2    0  502  0.81267991656E+02 -0.12250757301E+03  0.88211692158E+03  0.91071778583E+03  0.17223248873E+03 0.  0.
        -24    2    5    5    0    0  0.54553559692E+02 -0.15299870356E+03  0.77928359739E+03  0.80008256322E+03  0.80402043763E+02 0.  0.
          5    1    3    3  501    0 -0.10427581833E+03  0.41217567616E+02  0.26424565037E+03  0.28708916369E+03  0.47000000000E+01 0. -1.
        -11    1    4    4    0    0 -0.24628707366E+01  0.74250611560E+02  0.22593721573E+03  0.23783785338E+03  0.00000000000E+00 0.  1.
         12    1    4    4    0    0  0.25470697409E+02  0.70393938362E+01  0.18837480823E+02  0.32452429429E+02  0.00000000000E+00 0. -1.
         -5    1    5    5    0  502  0.26714431965E+02  0.30491130552E+02  0.10283332420E+03  0.11063522261E+03  0.47000000000E+01 0.  1.
         11    1    6    6    0    0  0.62541734012E+02 -0.95653636489E+02  0.38610604558E+03  0.40266482972E+03  0.00000000000E+00 0. -1.
        -12    1    6    6    0    0 -0.79881743200E+01 -0.57345067076E+02  0.39317755181E+03  0.39741773349E+03  0.00000000000E+00 0.  1.
</event>
<event>
12    1  0.8691829E-002  0.1774751E+03  0.7818608E-02  0.1170596E+00
         21   -1    0    0  503  502  0.00000000000E+00  0.00000000000E+00  0.15975274527E+03  0.15975274527E+03  0.00000000000E+00 0.  1.
         21   -1    0    0  501  503 -0.00000000000E+00 -0.00000000000E+00 -0.44660333638E+03  0.44660333638E+03  0.00000000000E+00 0.  1.
          6    2    1    2  501    0 -0.94296504344E+01 -0.37401975496E+02 -0.37043328874E+03  0.41018404790E+03  0.17187875280E+03 0.  0.
         24    2    3    3    0    0 -0.24465472123E+02 -0.66975832246E+02 -0.13204469073E+03  0.16945203383E+03  0.78701143493E+02 0.  0.
         -6    2    1    2    0  502  0.94296504344E+01  0.37401975496E+02  0.83582697629E+02  0.19617203376E+03  0.17323271460E+03 0.  0.
        -24    2    5    5    0    0 -0.47036084518E+02  0.56202400157E+02  0.84123353024E+02  0.13647096594E+03  0.78590603700E+02 0.  0.
          5    1    3    3  501    0  0.15035821688E+02  0.29573856750E+02 -0.23838859801E+03  0.24073201407E+03  0.47000000000E+01 0. -1.
        -13    1    4    4    0    0 -0.91064326597E+01 -0.30522344498E+02 -0.12534873008E+03  0.12933230363E+03  0.00000000000E+00 0.  1.
         14    1    4    4    0    0 -0.15359039463E+02 -0.36453487748E+02 -0.66959606509E+01  0.40119730199E+02  0.00000000000E+00 0. -1.
         -5    1    5    5    0  502  0.56465734952E+02 -0.18800424661E+02 -0.54065539494E+00  0.59701067824E+02  0.47000000000E+01 0.  1.
         13    1    6    6    0    0 -0.29830168950E+01  0.43749587683E+02  0.37970583412E+01  0.44015252632E+02  0.00000000000E+00 0. -1.
        -14    1    6    6    0    0 -0.44053067623E+02  0.12452812474E+02  0.80326294682E+02  0.92455713306E+02  0.00000000000E+00 0.  1.
</event>
<event>
12    1  0.8691829E-002  0.2706345E+03  0.7818608E-02  0.1101937E+00
         21   -1    0    0  501  502  0.00000000000E+00  0.00000000000E+00  0.37943213477E+03  0.37943213477E+03  0.00000000000E+00 0.  1.
         21   -1    0    0  502  503 -0.00000000000E+00 -0.00000000000E+00 -0.25638434657E+03  0.25638434657E+03  0.00000000000E+00 0. -1.
         -6    2    1    2    0  503 -0.11378137339E+02 -0.20811035880E+03 -0.10320040261E+03  0.28306833827E+03  0.16136287548E+03 0.  0.
        -24    2    3    3    0    0 -0.17124231394E+02 -0.11141450262E+03 -0.12277489452E+03  0.18413221276E+03  0.78259608716E+02 0.  0.
          6    2    1    2  501    0  0.11378137339E+02  0.20811035880E+03  0.22624819082E+03  0.35274814307E+03  0.17263726463E+03 0.  0.
         24    2    5    5    0    0 -0.33289990451E+02  0.91405979132E+02  0.18277611008E+03  0.22035831839E+03  0.75414889660E+02 0.  0.
          5    1    5    5  501    0  0.44668127790E+02  0.11670437967E+03  0.43472080738E+02  0.13238982467E+03  0.47000000000E+01 0. -1.
        -13    1    6    6    0    0  0.11637503623E+02  0.20874998207E+02  0.99542132183E+02  0.10237105607E+03  0.00000000000E+00 0.  1.
         14    1    6    6    0    0 -0.44927494073E+02  0.70530980925E+02  0.83233977900E+02  0.11798726233E+03  0.00000000000E+00 0. -1.
         -5    1    3    3    0  503  0.57460940546E+01 -0.96695856175E+02  0.19574491901E+02  0.98936125513E+02  0.47000000000E+01 0.  1.
         13    1    4    4    0    0 -0.12244628573E+01 -0.11442147645E+03 -0.83500479398E+02  0.14165487511E+03  0.00000000000E+00 0. -1.
        -14    1    4    4    0    0 -0.15899768536E+02  0.30069738253E+01 -0.39274415117E+02  0.42477337651E+02  0.00000000000E+00 0.  1.
</event>
<event>
12    1  0.8691829E-002  0.1835045E+03  0.7818608E-02  0.1164492E+00
         21   -1    0    0  501  502  0.00000000000E+00  0.00000000000E+00  0.62852306135E+03  0.62852306135E+03  0.00000000000E+00 0. -1.
         21   -1    0    0  502  503 -0.00000000000E+00 -0.00000000000E+00 -0.13324496437E+03  0.13324496437E+03  0.00000000000E+00 0.  1.
         -6    2    1    2    0  503 -0.58924922330E+02 -0.25306379486E+02 -0.47010538396E+02  0.18927273593E+03  0.17176035203E+03 0.  0.
        -24    2    3    3    0    0 -0.83209503981E+02  0.21191690245E+02 -0.60406725976E+02  0.13492791799E+03  0.84756481888E+02 0.  0.
          6    2    1    2  501    0  0.58924922330E+02  0.25306379486E+02  0.54228863538E+03  0.57249528979E+03  0.17193409626E+03 0.  0.
         24    2    5    5    0    0  0.10313025490E+03 -0.14144108838E+01  0.41821198573E+03  0.43801400093E+03  0.79480500551E+02 0.  0.
          5    1    5    5  501    0 -0.44205332572E+02  0.26720790370E+02  0.12407664964E+03  0.13448128885E+03  0.47000000000E+01 0. -1.
        -11    1    6    6    0    0  0.88790727921E+02  0.22865418403E+02  0.22835540772E+03  0.24607481171E+03  0.00000000000E+00 0.  1.
         12    1    6    6    0    0  0.14339526981E+02 -0.24279829287E+02  0.18985657801E+03  0.19193918922E+03  0.00000000000E+00 0. -1.
         -5    1    3    3    0  503  0.24284581651E+02 -0.46498069731E+02  0.13396187580E+02  0.54344817934E+02  0.47000000000E+01 0.  1.
         11    1    4    4    0    0 -0.62079158373E+02  0.53076806225E+02 -0.34126562794E+02  0.88518876809E+02  0.00000000000E+00 0. -1.
        -12    1    4    4    0    0 -0.21130345607E+02 -0.31885115980E+02 -0.26280163182E+02  0.46409041182E+02  0.00000000000E+00 0.  1.
</event>
<event>
12    1  0.8691829E-002  0.2283829E+03  0.7818608E-02  0.1127955E+00
         21   -1    0    0  501  502  0.00000000000E+00  0.00000000000E+00  0.62903225236E+02  0.62903225236E+02  0.00000000000E+00 0. -1.
         21   -1    0    0  502  503 -0.00000000000E+00 -0.00000000000E+00 -0.10360339668E+04  0.10360339668E+04  0.00000000000E+00 0. -1.
         -6    2    1    2    0  503  0.14425235824E+03 -0.40669970092E+02 -0.73333025753E+03  0.76778312943E+03  0.17104057384E+03 0.  0.
        -24    2    3    3    0    0  0.49187549420E+02  0.25737140349E+02 -0.46865134611E+03  0.47877752681E+03  0.80697091382E+02 0.  0.
          6    2    1    2  501    0 -0.14425235824E+03  0.40669970092E+02 -0.23980048403E+03  0.33115406260E+03  0.17232513372E+03 0.  0.
         24    2    5    5    0    0 -0.17271125942E+03  0.26237767522E+02 -0.22382585804E+03  0.29516133830E+03  0.80651108667E+02 0.  0.
          5    1    5    5  501    0  0.28458901172E+02  0.14432202570E+02 -0.15974625994E+02  0.35992724301E+02  0.47000000000E+01 0. -1.
        -11    1    6    6    0    0  0.86285068927E+01 -0.18234884055E+01 -0.84256809509E+01  0.12197062788E+02  0.00000000000E+00 0.  1.
         12    1    6    6    0    0 -0.18133976631E+03  0.28061255928E+02 -0.21540017709E+03  0.28296427552E+03  0.00000000000E+00 0. -1.
         -5    1    3    3    0  503  0.95064808824E+02 -0.66407110442E+02 -0.26467891142E+03  0.28900560261E+03  0.47000000000E+01 0.  1.
         11    1    4    4    0    0  0.58367494337E+02 -0.11589466879E+02 -0.28632177748E+03  0.29244014840E+03  0.00000000000E+00 0. -1.
        -12    1    4    4    0    0 -0.91799449168E+01  0.37326607229E+02 -0.18232956863E+03  0.18633737841E+03  0.00000000000E+00 0.  1.
</event>
<event>
12    1  0.8691829E-002  0.1822024E+03  0.7818608E-02  0.1165989E+00
         21   -1    0    0  501  502  0.00000000000E+00  0.00000000000E+00  0.17986910464E+04  0.17986910464E+04  0.00000000000E+00 0. -1.
         21   -1    0    0  502  503 -0.00000000000E+00 -0.00000000000E+00 -0.27907553419E+02  0.27907553419E+02  0.00000000000E+00 0.  1.
         -6    2    1    2    0  503 -0.34502875482E+02 -0.48848278039E+02  0.34832805913E+03  0.39252148076E+03  0.17077492029E+03 0.  0.
        -24    2    3    3    0    0 -0.43726465091E+02 -0.24732681715E+02  0.85724641302E+02  0.12860997732E+03  0.81658452392E+02 0.  0.
          6    2    1    2  501    0  0.34502875482E+02  0.48848278039E+02  0.14224554338E+04  0.14340771190E+04  0.17210787148E+03 0.  0.
         24    2    5    5    0    0 -0.33188699354E+02 -0.94520877939E+01  0.89823021156E+03  0.90227334355E+03  0.78031030928E+02 0.  0.
          5    1    5    5  501    0  0.67691574835E+02  0.58300365833E+02  0.52422522224E+03  0.53180377546E+03  0.47000000000E+01 0. -1.
        -11    1    6    6    0    0 -0.14618243984E+02  0.33167568876E+02  0.28741496518E+03  0.28969146155E+03  0.00000000000E+00 0.  1.
         12    1    6    6    0    0 -0.18570455370E+02 -0.42619656670E+02  0.61081524638E+03  0.61258188200E+03  0.00000000000E+00 0. -1.
         -5    1    3    3    0  503  0.92235896089E+01 -0.24115596324E+02  0.26260341783E+03  0.26391150344E+03  0.47000000000E+01 0.  1.
         13    1    4    4    0    0 -0.33466206491E+02  0.70932869897E+01  0.88671148086E+02  0.95041434122E+02  0.00000000000E+00 0. -1.
        -14    1    4    4    0    0 -0.10260258600E+02 -0.31825968705E+02 -0.29465067836E+01  0.33568543203E+02  0.00000000000E+00 0.  1.
</event>
<event>
12    1  0.8691829E-002  0.2233927E+03  0.7818608E-02  0.1131503E+00
         21   -1    0    0  503  502  0.00000000000E+00  0.00000000000E+00  0.19684200403E+03  0.19684200403E+03  0.00000000000E+00 0. -1.
         21   -1    0    0  501  503 -0.00000000000E+00 -0.00000000000E+00 -0.26628259463E+03  0.26628259463E+03  0.00000000000E+00 0. -1.
          6    2    1    2  501    0 -0.43731428988E+02  0.13523908731E+03 -0.86864847356E+02  0.23905342956E+03  0.17146134218E+03 0.  0.
         24    2    3    3    0    0 -0.84914309465E+02  0.49602907353E+02 -0.46366610315E+02  0.13565235527E+03  0.81122195286E+02 0.  0.
         -6    2    1    2    0  502  0.43731428988E+02 -0.13523908731E+03  0.17424256758E+02  0.22407116910E+03  0.17234336507E+03 0.  0.
        -24    2    5    5    0    0 -0.26767866365E+02 -0.88122016774E+02  0.51771284396E+02  0.13246343314E+03  0.79901731652E+02 0.  0.
          5    1    3    3  501    0  0.41182880477E+02  0.85636179955E+02 -0.40498237041E+02  0.10340107429E+03  0.47000000000E+01 0. -1.
        -11    1    4    4    0    0 -0.44008500929E+02  0.60108694399E+02 -0.21804182304E+01  0.74528903923E+02  0.00000000000E+00 0.  1.
         12    1    4    4    0    0 -0.40905808536E+02 -0.10505787046E+02 -0.44186192084E+02  0.61123451345E+02  0.00000000000E+00 0. -1.
         -5    1    5    5    0  502  0.70499295353E+02 -0.47117070535E+02 -0.34347027638E+02  0.91607735965E+02  0.47000000000E+01 0.  1.
         13    1    6    6    0    0 -0.33288360086E+02 -0.74821696820E+01 -0.37753946794E+01  0.34327123173E+02  0.00000000000E+00 0. -1.
        -14    1    6    6    0    0  0.65204937211E+01 -0.80639847092E+02  0.55546679075E+02  0.98136309965E+02  0.00000000000E+00 0.  1.
</event>
<event>
12    1  0.8691829E-002  0.2019309E+03  0.7818608E-02  0.1148401E+00
         21   -1    0    0  501  502  0.00000000000E+00  0.00000000000E+00  0.15453228440E+03  0.15453228440E+03  0.00000000000E+00 0.  1.
         21   -1    0    0  502  503 -0.00000000000E+00 -0.00000000000E+00 -0.64508729015E+03  0.64508729015E+03  0.00000000000E+00 0.  1.
         -6    2    1    2    0  503 -0.10214658671E+03  0.13220051523E+02 -0.55366366765E+03  0.58933821149E+03  0.17368758077E+03 0.  0.
        -24    2    3    3    0    0 -0.56066809059E+02 -0.28818390594E+02 -0.16629379436E+03  0.19695053935E+03  0.84628022491E+02 0.  0.
          6    2    1    2  501    0  0.10214658671E+03 -0.13220051523E+02  0.63108661897E+02  0.21028136306E+03  0.17212452906E+03 0.  0.
         24    2    5    5    0    0  0.95443661703E+02  0.42006525558E+02  0.76683375619E+02  0.15282471094E+03  0.81246608731E+02 0.  0.
          5    1    5    5  501    0  0.67029250091E+01 -0.55226577081E+02 -0.13574713721E+02  0.57456652116E+02  0.47000000000E+01 0. -1.
        -13    1    6    6    0    0  0.62189740563E+02 -0.15547097750E+02  0.25740601120E+02  0.69078611927E+02  0.00000000000E+00 0.  1.
         14    1    6    6    0    0  0.33253921141E+02  0.57553623308E+02  0.50942774498E+02  0.83746099018E+02  0.00000000000E+00 0. -1.
         -5    1    3    3    0  503 -0.46079777653E+02  0.42038442117E+02 -0.38736987328E+03  0.39238767215E+03  0.47000000000E+01 0.  1.
         11    1    4    4    0    0  0.18164608307E+02  0.10778247261E+02 -0.39307071499E+02  0.44622522103E+02  0.00000000000E+00 0. -1.
        -12    1    4    4    0    0 -0.74231417366E+02 -0.39596637855E+02 -0.12698672286E+03  0.15232801724E+03  0.00000000000E+00 0.  1.
</event>
<event>
12    1  0.8691829E-002  0.2172112E+03  0.7818608E-02  0.1136174E+00
         21   -1    0    0  501  502  0.00000000000E+00  0.00000000000E+00  0.31794946188E+03  0.31794946188E+03  0.00000000000E+00 0.  1.
         21   -1    0    0  502  503 -0.00000000000E+00 -0.00000000000E+00 -0.22465648156E+03  0.22465648156E+03  0.00000000000E+00 0.  1.
         -6    2    1    2    0  503 -0.30603667353E+02 -0.12993796131E+03 -0.11222063540E+03  0.24357996241E+03  0.17005078309E+03 0.  0.
        -24    2    3    3    0    0 -0.83000695534E+02 -0.90070249597E+02 -0.98495126306E+02  0.17616065805E+03  0.79558294465E+02 0.  0.
          6    2    1    2  501    0  0.30603667353E+02  0.12993796131E+03  0.20551361572E+03  0.29902598103E+03  0.17134827936E+03 0.  0.
         24    2    5    5    0    0  0.75344334177E+02  0.73589606284E+02  0.17744067293E+03  0.22164998670E+03  0.80940257889E+02 0.  0.
          5    1    5    5  501    0 -0.44740666824E+02  0.56348355029E+02  0.28072942791E+02  0.77375994334E+02  0.47000000000E+01 0. -1.
        -11    1    6    6    0    0 -0.12582488533E+02  0.23454398117E+02  0.15853822108E+02  0.30980178892E+02  0.00000000000E+00 0.  1.
         12    1    6    6    0    0  0.87926822710E+02  0.50135208167E+02  0.16158685082E+03  0.19066980781E+03  0.00000000000E+00 0. -1.
         -5    1    3    3    0  503  0.52397028182E+02 -0.39867711715E+02 -0.13725509098E+02  0.67419304355E+02  0.47000000000E+01 0.  1.
         13    1    4    4    0    0 -0.28836689056E+02  0.11367301313E+02 -0.23059460056E+02  0.38633002380E+02  0.00000000000E+00 0. -1.
        -14    1    4    4    0    0 -0.54164006479E+02 -0.10143755091E+03 -0.75435666250E+02  0.13752765567E+03  0.00000000000E+00 0.  1.
</event>
<event>
12    1  0.8691829E-002  0.1731506E+03  0.7818608E-02  0.1174661E+00
         21   -1    0    0  501  502  0.00000000000E+00  0.00000000000E+00  0.49293267836E+03  0.49293267836E+03  0.00000000000E+00 0.  1.
         21   -1    0    0  502  503 -0.00000000000E+00 -0.00000000000E+00 -0.63556959108E+02  0.63556959108E+02  0.00000000000E+00 0.  1.
         -6    2    1    2    0  503  0.39582596439E+01  0.34152594172E+00  0.15596966545E+03  0.23286640007E+03  0.17287116383E+03 0.  0.
        -24    2    3    3    0    0  0.38466349026E+02  0.51862412835E+02  0.64678931857E+02  0.12240691402E+03  0.81429223879E+02 0.  0.
          6    2    1    2  501    0 -0.39582596439E+01 -0.34152594172E+00  0.27340605381E+03  0.32362323740E+03  0.17310501167E+03 0.  0.
         24    2    5    5    0    0  0.26142812959E+02 -0.43273846161E+02  0.82653071427E+02  0.12573930935E+03  0.80142194064E+02 0.  0.
          5    1    5    5  501    0 -0.30101072603E+02  0.42932320219E+02  0.19075298238E+03  0.19788392805E+03  0.47000000000E+01 0. -1.
        -11    1    6    6    0    0 -0.24247583180E+02 -0.71874754578E+01  0.40063589309E+01  0.25605780703E+02  0.00000000000E+00 0.  1.
         12    1    6    6    0    0  0.50390396139E+02 -0.36086370703E+02  0.78646712496E+02  0.10013352865E+03  0.00000000000E+00 0. -1.
         -5    1    3    3    0  503 -0.34508089382E+02 -0.51520886894E+02  0.91290733589E+02  0.11045948605E+03  0.47000000000E+01 0.  1.
         13    1    4    4    0    0  0.16013256361E+02  0.26746628915E+02 -0.15954075313E+02  0.35019124157E+02  0.00000000000E+00 0. -1.
        -14    1    4    4    0    0  0.22453092665E+02  0.25115783920E+02  0.80633007170E+02  0.87387789865E+02  0.00000000000E+00 0.  1.
</event>
<event>
12    1  0.8691829E-002  0.2155179E+03  0.7818608E-02  0.1137321E+00
         21   -1    0    0  503  502  0.00000000000E+00  0.00000000000E+00  0.10777202213E+04  0.10777202213E+04  0.00000000000E+00 0.  1.
         21   -1    0    0  501  503 -0.00000000000E+00 -0.00000000000E+00 -0.53215397332E+02  0.53215397332E+02  0.00000000000E+00 0.  1.
          6    2    1    2  501    0  0.30864443458E+02 -0.12563746663E+03  0.26529836636E+03  0.34180580162E+03  0.17236761858E+03 0.  0.
         24    2    3    3    0    0  0.81692175697E+02 -0.52310240185E+02  0.13820695947E+03  0.18645247463E+03  0.79078371565E+02 0.  0.
         -6    2    1    2    0  502 -0.30864443458E+02  0.12563746663E+03  0.75920645761E+03  0.78912981702E+03  0.17202917177E+03 0.  0.
        -24    2    5    5    0    0 -0.19467786779E+02  0.14848044253E+03  0.48628887548E+03  0.51498062048E+03  0.79389750666E+02 0.  0.
          5    1    3    3  501    0 -0.50827732238E+02 -0.73327226440E+02  0.12709140689E+03  0.15535332699E+03  0.47000000000E+01 0. -1.
        -11    1    4    4    0    0  0.43652442072E+02 -0.70369135996E+02  0.86128255021E+02  0.11947981969E+03  0.00000000000E+00 0.  1.
         12    1    4    4    0    0  0.38039733625E+02  0.18058895811E+02  0.52078704453E+02  0.66972654939E+02  0.00000000000E+00 0. -1.
         -5    1    5    5    0  502 -0.11396656679E+02 -0.22842975903E+02  0.27291758213E+03  0.27414919654E+03  0.47000000000E+01 0.  1.
         11    1    6    6    0    0 -0.29352310776E+02  0.10842886728E+03  0.23666362363E+03  0.26196955578E+03  0.00000000000E+00 0. -1.
        -12    1    6    6    0    0  0.98845239966E+01  0.40051575253E+02  0.24962525185E+03  0.25301106469E+03  0.00000000000E+00 0.  1.
</event>
<event>
12    1  0.8691829E-002  0.1999985E+03  0.7818608E-02  0.1149814E+00
         21   -1    0    0  501  502  0.00000000000E+00  0.00000000000E+00  0.95230606785E+02  0.95230606785E+02  0.00000000000E+00 0. -1.
         21   -1    0    0  502  503 -0.00000000000E+00 -0.00000000000E+00 -0.25768733925E+04  0.25768733925E+04  0.00000000000E+00 0. -1.
         -6    2    1    2    0  503  0.64125950523E+02 -0.77453763650E+02 -0.24631771191E+04  0.24712548919E+04  0.17247607880E+03 0.  0.
        -24    2    3    3    0    0  0.49862154352E+02 -0.51534590035E+02 -0.23881636162E+04  0.23904812882E+04  0.77027807116E+02 0.  0.
          6    2    1    2  501    0 -0.64125950523E+02  0.77453763650E+02 -0.18465666623E+02  0.20084910737E+03  0.17288192518E+03 0.  0.
         24    2    5    5    0    0 -0.81858991506E+02 -0.70161034249E+01 -0.68939719238E+01  0.11363893993E+03  0.78205892505E+02 0.  0.
          5    1    5    5  501    0  0.17733040984E+02  0.84469867075E+02 -0.11571694699E+02  0.87210167437E+02  0.47000000000E+01 0. -1.
        -11    1    6    6    0    0 -0.70613670802E+02  0.25668016398E+02  0.88576275266E+01  0.75654445576E+02  0.00000000000E+00 0.  1.
         12    1    6    6    0    0 -0.11245320704E+02 -0.32684119823E+02 -0.15751599450E+02  0.37984494357E+02  0.00000000000E+00 0. -1.
         -5    1    3    3    0  503  0.14263796171E+02 -0.25919173615E+02 -0.75013502948E+02  0.80773603774E+02  0.47000000000E+01 0.  1.
         11    1    4    4    0    0  0.37229810521E+02 -0.13985197620E+02 -0.41074437786E+03  0.41266522568E+03  0.00000000000E+00 0. -1.
        -12    1    4    4    0    0  0.12632343830E+02 -0.37549392415E+02 -0.19774192383E+04  0.19778160625E+04  0.00000000000E+00 0.  1.
</event>
<event>
12    1  0.8691829E-002  0.1917895E+03  0.7818608E-02  0.1157534E+00
         21   -1    0    0  503  502  0.00000000000E+00  0.00000000000E+00  0.80450487350E+03  0.80450487350E+03  0.00000000000E+00 0.  1.
         21   -1    0    0  501  503 -0.00000000000E+00 -0.00000000000E+00 -0.51818083678E+02  0.51818083678E+02  0.00000000000E+00 0.  1.
          6    2    1    2  501    0  0.45943304328E+02  0.63651878054E+02  0.22369467621E+03  0.29465664228E+03  0.17498822784E+03 0.  0.
         24    2    3    3    0    0  0.55242977213E+02  0.69879007823E+02  0.64951390553E+02  0.13544991565E+03  0.78696469110E+02 0.  0.
         -6    2    1    2    0  502 -0.45943304328E+02 -0.63651878054E+02  0.52899211361E+03  0.56166631490E+03  0.17168006360E+03 0.  0.
        -24    2    5    5    0    0 -0.11709409621E+02 -0.28065058196E+02  0.49300785692E+03  0.50038550204E+03  0.80025907734E+02 0.  0.
          5    1    3    3  501    0 -0.92996728846E+01 -0.62271297686E+01  0.15874328566E+03  0.15920672663E+03  0.47000000000E+01 0. -1.
        -13    1    4    4    0    0  0.19445132796E+02  0.78267645566E+02  0.34528512924E+02  0.87727736416E+02  0.00000000000E+00 0.  1.
         14    1    4    4    0    0  0.35797844416E+02 -0.83886377434E+01  0.30422877629E+02  0.47722179238E+02  0.00000000000E+00 0. -1.
         -5    1    5    5    0  502 -0.34233894706E+02 -0.35586819859E+02  0.35984256693E+02  0.61280812855E+02  0.47000000000E+01 0.  1.
         13    1    6    6    0    0  0.21404063869E+01  0.23501284911E+02  0.66793236360E+02  0.70839453382E+02  0.00000000000E+00 0. -1.
        -14    1    6    6    0    0 -0.13849816008E+02 -0.51566343107E+02  0.42621462056E+03  0.42954604866E+03  0.00000000000E+00 0.  1.
</event>
<event>
12    1  0.8691829E-002  0.3072717E+03  0.7818608E-02  0.1082366E+00
         21   -1    0    0  503  502  0.00000000000E+00  0.00000000000E+00  0.17084479817E+04  0.17084479817E+04  0.00000000000E+00 0.  1.
         21   -1    0    0  501  503 -0.00000000000E+00 -0.00000000000E+00 -0.68590004527E+02  0.68590004527E+02  0.00000000000E+00 0. -1.
          6    2    1    2  501    0  0.64978613079E+02 -0.24258790251E+03  0.41957537350E+03  0.52005707900E+03  0.17704451633E+03 0.  0.
         24    2    3    3    0    0 -0.29316702636E+02 -0.89280475432E+02  0.82722084515E+02  0.13810550868E+03  0.58307082889E+02 0.  0.
         -6    2    1    2    0  502 -0.64978613079E+02  0.24258790251E+03  0.12202826036E+04  0.12569809072E+04  0.16685400122E+03 0.  0.
        -24    2    5    5    0    0 -0.89192370687E+02  0.23705818333E+03  0.11791635129E+04  0.12087133873E+04  0.80059985536E+02 0.  0.
          5    1    3    3  501    0  0.94295315715E+02 -0.15330742707E+03  0.33685328899E+03  0.38195157031E+03  0.47000000000E+01 0. -1.
        -11    1    4    4    0    0  0.46920676368E+01  0.70289395659E+01  0.65075027167E+01  0.10666259032E+02  0.00000000000E+00 0.  1.
         12    1    4    4    0    0 -0.34008770273E+02 -0.96309414998E+02  0.76214581798E+02  0.12743924965E+03  0.00000000000E+00 0. -1.
         -5    1    5    5    0  502  0.24213757608E+02  0.55297191734E+01  0.41119090772E+02  0.48267519903E+02  0.47000000000E+01 0.  1.
         13    1    6    6    0    0 -0.77650370177E+02  0.95993156229E+02  0.50807119595E+03  0.52285811286E+03  0.00000000000E+00 0. -1.
        -14    1    6    6    0    0 -0.11542000510E+02  0.14106502711E+03  0.67109231691E+03  0.68585527443E+03  0.00000000000E+00 0.  1.
</event>
<event>
12    1  0.8691829E-002  0.1882858E+03  0.7818608E-02  0.1160963E+00
         21   -1    0    0  503  502  0.00000000000E+00  0.00000000000E+00  0.19672783679E+03  0.19672783679E+03  0.00000000000E+00 0.  1.
         21   -1    0    0  501  503 -0.00000000000E+00 -0.00000000000E+00 -0.31107745360E+03  0.31107745360E+03  0.00000000000E+00 0.  1.
          6    2    1    2  501    0 -0.30280957308E+02  0.67740949618E+02 -0.22464942704E+03  0.29311927951E+03  0.17304847391E+03 0.  0.
         24    2    3    3    0    0 -0.58279941699E+02  0.32568150460E+02 -0.22477915600E+03  0.24791777780E+03  0.80500431988E+02 0.  0.
         -6    2    1    2    0  502  0.30280957308E+02 -0.67740949618E+02  0.11029981024E+03  0.21468601087E+03  0.16857717074E+03 0.  0.
        -24    2    5    5    0    0 -0.45738538112E+02 -0.31180704614E+02  0.39239318392E+02  0.10428991175E+03  0.79198556661E+02 0.  0.
          5    1    3    3  501    0  0.27998984391E+02  0.35172799158E+02  0.12972895420E+00  0.45201501713E+02  0.47000000000E+01 0. -1.
        -11    1    4    4    0    0 -0.46525865804E+02 -0.11780296365E+01 -0.45410959806E+02  0.65024604675E+02  0.00000000000E+00 0.  1.
         12    1    4    4    0    0 -0.11754075895E+02  0.33746180097E+02 -0.17936819619E+03  0.18289317313E+03  0.00000000000E+00 0. -1.
         -5    1    5    5    0  502  0.76019495420E+02 -0.36560245004E+02  0.71060491849E+02  0.11039609912E+03  0.47000000000E+01 0.  1.
         13    1    6    6    0    0  0.18004675981E+02  0.51035003017E+01 -0.40138065842E+01  0.19139611172E+02  0.00000000000E+00 0. -1.
        -14    1    6    6    0    0 -0.63743214093E+02 -0.36284204915E+02  0.43253124977E+02  0.85150300583E+02  0.00000000000E+00 0.  1.
</event>
<event>
12    1  0.8691829E-002  0.2101808E+03  0.7818608E-02  0.1141602E+00
         21   -1    0    0  503  502  0.00000000000E+00  0.00000000000E+00  0.19805102570E+04  0.19805102570E+04  0.00000000000E+00 0. -1.
         21   -1    0    0  501  503 -0.00000000000E+00 -0.00000000000E+00 -0.93578544644E+02  0.93578544644E+02  0.00000000000E+00 0. -1.
          6    2    1    2  501    0  0.84103699263E+02  0.85066917322E+02  0.37326269964E+02  0.21257966255E+03  0.17171793689E+03 0.  0.
         24    2    3    3    0    0  0.37982543839E+02  0.86282018563E+02 -0.32016464241E+02  0.12915818908E+03  0.82277113834E+02 0.  0.
         -6    2    1    2    0  502 -0.84103699263E+02 -0.85066917322E+02  0.18496054424E+04  0.18615091391E+04  0.17281831428E+03 0.  0.
        -24    2    5    5    0    0 -0.26101119687E+02  0.31327330116E+02  0.94256601453E+03  0.94518248676E+03  0.57241344115E+02 0.  0.
          5    1    3    3  501    0  0.46121155424E+02 -0.12151012404E+01  0.69342734205E+02  0.83421473469E+02  0.47000000000E+01 0. -1.
        -11    1    4    4    0    0  0.42296772045E+01  0.44989111948E+01 -0.39861161310E+02  0.40336615527E+02  0.00000000000E+00 0.  1.
         12    1    4    4    0    0  0.33752866634E+02  0.81783107368E+02  0.78446970689E+01  0.88821573556E+02  0.00000000000E+00 0. -1.
         -5    1    5    5    0  502 -0.58002579576E+02 -0.11639424744E+03  0.90703942788E+03  0.91632665235E+03  0.47000000000E+01 0.  1.
         13    1    6    6    0    0 -0.29239949798E+02  0.31955919372E+02  0.35842978385E+03  0.36103748476E+03  0.00000000000E+00 0. -1.
        -14    1    6    6    0    0  0.31388301109E+01 -0.62858925549E+00  0.58413623068E+03  0.58414500201E+03  0.00000000000E+00 0.  1.
</event>
<event>
12    1  0.8691829E-002  0.1770440E+03  0.7818608E-02  0.1172962E+00
         21   -1    0    0  501  502  0.00000000000E+00  0.00000000000E+00  0.23118580032E+03  0.23118580032E+03  0.00000000000E+00 0.  1.
         21   -1    0    0  502  503 -0.00000000000E+00 -0.00000000000E+00 -0.21093281156E+03  0.21093281156E+03  0.00000000000E+00 0.  1.
         -6    2    1    2    0  503  0.45416705980E+01 -0.21194491158E+02 -0.12791429944E+03  0.21125475673E+03  0.16672333673E+03 0.  0.
        -24    2    3    3    0    0 -0.34031146043E+02  0.39146237182E+02 -0.77786823388E+02  0.12371208407E+03  0.81014462081E+02 0.  0.
          6    2    1    2  501    0 -0.45416705980E+01  0.21194491158E+02  0.14816728820E+03  0.23086385515E+03  0.17571209718E+03 0.  0.
         24    2    5    5    0    0 -0.55785648348E+02 -0.32585047110E+02  0.90925164207E+02  0.13696532081E+03  0.79487670505E+02 0.  0.
          5    1    5    5  501    0  0.51243977750E+02  0.53779538268E+02  0.57242123996E+02  0.93898534342E+02  0.47000000000E+01 0. -1.
        -11    1    6    6    0    0  0.17483631375E+00  0.35224257525E+00  0.68152641615E+02  0.68153776137E+02  0.00000000000E+00 0.  1.
         12    1    6    6    0    0 -0.55960484662E+02 -0.32937289685E+02  0.22772522592E+02  0.68811544675E+02  0.00000000000E+00 0. -1.
         -5    1    3    3    0  503  0.38572816641E+02 -0.60340728340E+02 -0.50127476055E+02  0.87542672657E+02  0.47000000000E+01 0.  1.
         11    1    4    4    0    0 -0.34139814936E+02  0.21883579680E+02  0.34155366808E+01  0.40695010926E+02  0.00000000000E+00 0. -1.
        -12    1    4    4    0    0  0.10866889328E+00  0.17262657502E+02 -0.81202360069E+02  0.83017073146E+02  0.00000000000E+00 0.  1.
</event>
<event>
12    1  0.8691829E-002  0.1822479E+03  0.7818608E-02  0.1165697E+00
         21   -1    0    0  503  502  0.00000000000E+00  0.00000000000E+00  0.22142363320E+03  0.22142363320E+03  0.00000000000E+00 0. -1.
         21   -1    0    0  501  503 -0.00000000000E+00 -0.00000000000E+00 -0.15488890150E+03  0.15488890150E+03  0.00000000000E+00 0.  1.
          6    2    1    2  501    0  0.52134022323E+02  0.33969036876E+02  0.67277874583E+02  0.19406309303E+03  0.17106232758E+03 0.  0.
         24    2    3    3    0    0  0.36238659376E+02  0.86811510649E+02  0.58038099327E+02  0.13791638302E+03  0.82480475975E+02 0.  0.
         -6    2    1    2    0  502 -0.52134022323E+02 -0.33969036876E+02 -0.74314288909E+00  0.18224944168E+03  0.17129639512E+03 0.  0.
        -24    2    5    5    0    0  0.26634100736E+02 -0.37307403459E+02  0.30486101761E+02  0.97320544220E+02  0.80253774065E+02 0.  0.
          5    1    3    3  501    0  0.15895362947E+02 -0.52842473773E+02  0.92397752559E+01  0.56146710006E+02  0.47000000000E+01 0. -1.
        -11    1    4    4    0    0 -0.22199108647E+02  0.36387148624E+02  0.22560401450E+01  0.42683893061E+02  0.00000000000E+00 0.  1.
         12    1    4    4    0    0  0.58437768023E+02  0.50424362025E+02  0.55782059182E+02  0.95232489959E+02  0.00000000000E+00 0. -1.
         -5    1    5    5    0  502 -0.78768123059E+02  0.33383665830E+01 -0.31229244650E+02  0.84928897456E+02  0.47000000000E+01 0.  1.
         13    1    6    6    0    0 -0.65618933856E+01 -0.44692970865E+02 -0.80939808188E+01  0.45891530973E+02  0.00000000000E+00 0. -1.
        -14    1    6    6    0    0  0.33195994122E+02  0.73855674059E+01  0.38580082580E+02  0.51429013247E+02  0.00000000000E+00 0.  1.
</event>
<event>
12    1  0.8691829E-002  0.2308274E+03  0.7818608E-02  0.1126117E+00
         21   -1    0    0  501  502  0.00000000000E+00  0.00000000000E+00  0.39509598471E+02  0.39509598471E+02  0.00000000000E+00 0.  1.
         21   -1    0    0  502  503 -0.00000000000E+00 -0.00000000000E+00 -0.16559195053E+04  0.16559195053E+04  0.00000000000E+00 0. -1.
         -6    2    1    2    0  503 -0.14094134145E+03 -0.62473594511E+02 -0.11741038376E+04  0.11965143116E+04  0.17134545379E+03 0.  0.
        -24    2    3    3    0    0 -0.16117175988E+03 -0.57203167831E+02 -0.80425831496E+03  0.82604859405E+03  0.79223127624E+02 0.  0.
          6    2    1    2  501    0  0.14094134145E+03  0.62473594511E+02 -0.44230606915E+03  0.49891479214E+03  0.17179609795E+03 0.  0.
         24    2    5    5    0    0  0.50925733559E+02  0.92990363542E+02 -0.28117833927E+03  0.31178297178E+03  0.83106708319E+02 0.  0.
          5    1    5    5  501    0  0.90015607892E+02 -0.30516769031E+02 -0.16112772988E+03  0.18713182036E+03  0.47000000000E+01 0. -1.
        -13    1    6    6    0    0  0.38407621687E+02  0.25432413095E+02 -0.39997329434E+02  0.61006060365E+02  0.00000000000E+00 0.  1.
         14    1    6    6    0    0  0.12518111872E+02  0.67557950447E+02 -0.24118100983E+03  0.25077691141E+03  0.00000000000E+00 0. -1.
         -5    1    3    3    0  503  0.20230418433E+02 -0.52704266799E+01 -0.36984552267E+03  0.37046571754E+03  0.47000000000E+01 0.  1.
         11    1    4    4    0    0 -0.35968312261E+02 -0.50367486950E+02 -0.31130172350E+03  0.31739465384E+03  0.00000000000E+00 0. -1.
        -12    1    4    4    0    0 -0.12520344762E+03 -0.68356808808E+01 -0.49295659146E+03  0.50865394021E+03  0.00000000000E+00 0.  1.
</event>
<event>
12    1  0.8691829E-002  0.1989639E+03  0.7818608E-02  0.1150814E+00
         21   -1    0    0  501  502  0.00000000000E+00  0.00000000000E+00  0.80124091319E+03  0.80124091319E+03  0.00000000000E+00 0.  1.
         21   -1    0    0  502  503 -0.00000000000E+00 -0.00000000000E+00 -0.78395002090E+02  0.78395002090E+02  0.00000000000E+00 0.  1.
         -6    2    1    2    0  503 -0.63220113798E+02 -0.75489983080E+02  0.62940195226E+03  0.65982139393E+03  0.17181948098E+03 0.  0.
        -24    2    3    3    0    0 -0.56107461838E+02  0.21374737927E+02  0.27355444388E+03  0.29092723132E+03  0.78750831470E+02 0.  0.
          6    2    1    2  501    0  0.63220113798E+02  0.75489983080E+02  0.93443958844E+02  0.21981452135E+03  0.17289051454E+03 0.  0.
         24    2    5    5    0    0  0.32762974207E+02  0.11814041378E+03  0.62322236294E+02  0.15868066653E+03  0.79151266250E+02 0.  0.
          5    1    5    5  501    0  0.30457139591E+02 -0.42650430696E+02  0.31121722550E+02  0.61133854819E+02  0.47000000000E+01 0. -1.
        -13    1    6    6    0    0  0.33235255372E+02  0.70833347885E+01  0.22232131517E+02  0.40608170399E+02  0.00000000000E+00 0.  1.
         14    1    6    6    0    0 -0.47228116434E+00  0.11105707899E+03  0.40090104778E+02  0.11807249614E+03  0.00000000000E+00 0. -1.
         -5    1    3    3    0  503 -0.71126519598E+01 -0.96864721006E+02  0.35584750838E+03  0.36889416261E+03  0.47000000000E+01 0.  1.
         13    1    4    4    0    0 -0.11025043952E+01 -0.69695154002E+01 -0.29025505970E+01  0.76298401571E+01  0.00000000000E+00 0. -1.
        -14    1    4    4    0    0 -0.55004957443E+02  0.28344253327E+02  0.27645699448E+03  0.28329739116E+03  0.00000000000E+00 0.  1.
</event>
<event>
12    1  0.8691829E-002  0.1885815E+03  0.7818608E-02  0.1159892E+00
         21   -1    0    0  501  502  0.00000000000E+00  0.00000000000E+00  0.47986675476E+03  0.47986675476E+03  0.00000000000E+00 0.  1.
         21   -1    0    0  502  503 -0.00000000000E+00 -0.00000000000E+00 -0.90191698001E+02  0.90191698001E+02  0.00000000000E+00 0. -1.
         -6    2    1    2    0  503 -0.74804806083E+02  0.13491627895E+02  0.31639660963E+03  0.36833382722E+03  0.17258392350E+03 0.  0.
        -24    2    3    3    0    0 -0.37068986767E+02 -0.26330035246E+02  0.68697573146E+02  0.11458856206E+03  0.79647984675E+02 0.  0.
          6    2    1    2  501    0  0.74804806083E+02 -0.13491627895E+02  0.73278447131E+02  0.20172462555E+03  0.17188749431E+03 0.  0.
         24    2    5    5    0    0  0.16375704707E+00  0.14366100976E+02  0.84741065801E+02  0.12109695731E+03  0.85305411095E+02 0.  0.
          5    1    5    5  501    0  0.74641049036E+02 -0.27857728871E+02 -0.11462618670E+02  0.80627668240E+02  0.47000000000E+01 0. -1.
        -13    1    6    6    0    0  0.53261169501E+01  0.48460153282E+02  0.65364684249E+02  0.81543215076E+02  0.00000000000E+00 0.  1.
         14    1    6    6    0    0 -0.51623599030E+01 -0.34094052306E+02  0.19376381551E+02  0.39553742230E+02  0.00000000000E+00 0. -1.
         -5    1    3    3    0  503 -0.37735819316E+02  0.39821663140E+02  0.24769903649E+03  0.25374526516E+03  0.47000000000E+01 0.  1.
         11    1    4    4    0    0  0.19836129790E+02  0.46146598621E+01  0.37542777082E+02  0.42710973317E+02  0.00000000000E+00 0. -1.
        -12    1    4    4    0    0 -0.56905116556E+02 -0.30944695108E+02  0.31154796064E+02  0.71877588742E+02  0.00000000000E+00 0.  1.
</event>
<event>
12    1  0.8691829E-002  0.3035610E+03  0.7818608E-02  0.1083490E+00
         21   -1    0    0  501  502  0.00000000000E+00  0.00000000000E+00  0.69635828498E+03  0.69635828498E+03  0.00000000000E+00 0. -1.
         21   -1    0    0  502  503 -0.00000000000E+00 -0.00000000000E+00 -0.18899039811E+03  0.18899039811E+03  0.00000000000E+00 0. -1.
         -6    2    1    2    0  503  0.23921900227E+03 -0.72471089202E+02  0.11217348280E+02  0.30376815763E+03  0.17225409973E+03 0.  0.
        -24    2    3    3    0    0  0.22101426515E+03 -0.63806637780E+01  0.16533486804E+02  0.23485003146E+03  0.77415520548E+02 0.  0.
          6    2    1    2  501    0 -0.23921900227E+03  0.72471089202E+02  0.49615053859E+03  0.58158052546E+03  0.17202546563E+03 0.  0.
         24    2    5    5    0    0 -0.17288838989E+03  0.31115747829E+01  0.23073682651E+03  0.29930934212E+03  0.80290235494E+02 0.  0.
          5    1    5    5  501    0 -0.66330612375E+02  0.69359514419E+02  0.26541371209E+03  0.28227118333E+03  0.47000000000E+01 0. -1.
        -11    1    6    6    0    0 -0.14247084236E+03  0.32135616901E+02  0.15700030543E+03  0.21442885697E+03  0.00000000000E+00 0.  1.
         12    1    6    6    0    0 -0.30417547535E+02 -0.29024042118E+02  0.73736521074E+02  0.84880485148E+02  0.00000000000E+00 0. -1.
         -5    1    3    3    0  503  0.18204737118E+02 -0.66090425424E+02 -0.53161385239E+01  0.68918126172E+02  0.47000000000E+01 0.  1.
         13    1    4    4    0    0  0.84974046113E+02  0.25794331275E+02  0.31576349893E+02  0.94249678574E+02  0.00000000000E+00 0. -1.
        -14    1    4    4    0    0  0.13604021904E+03 -0.32174995053E+02 -0.15042863089E+02  0.14060035289E+03  0.00000000000E+00 0.  1.
</event>
<event>
12    1  0.8691829E-002  0.1782087E+03  0.7818608E-02  0.1169627E+00
         21   -1    0    0  503  502  0.00000000000E+00  0.00000000000E+00  0.81004901034E+03  0.81004901034E+03  0.00000000000E+00 0.  1.
         21   -1    0    0  501  503 -0.00000000000E+00 -0.00000000000E+00 -0.47470406651E+02  0.47470406651E+02  0.00000000000E+00 0.  1.
          6    2    1    2  501    0  0.42620706662E+02  0.95840700749E+01  0.20190171288E+03  0.26930025679E+03  0.17277137381E+03 0.  0.
         24    2    3    3    0    0  0.33639230215E+02  0.68315926380E+02  0.16846648834E+03  0.20096211148E+03  0.78779114942E+02 0.  0.
         -6    2    1    2    0  502 -0.42620706662E+02 -0.95840700749E+01  0.56067689082E+03  0.58821916021E+03  0.17243788883E+03 0.  0.
        -24    2    5    5    0    0  0.41013493876E+02  0.14456587667E+02  0.25198123431E+03  0.26745798570E+03  0.78410025276E+02 0.  0.
          5    1    3    3  501    0  0.89814764467E+01 -0.58731856306E+02  0.33435224537E+02  0.68338145308E+02  0.47000000000E+01 0. -1.
        -13    1    4    4    0    0 -0.10054488342E+02 -0.13178579974E+01 -0.31948122049E+01  0.10631853580E+02  0.00000000000E+00 0.  1.
         14    1    4    4    0    0  0.43693718558E+02  0.69633784378E+02  0.17166130054E+03  0.19033025790E+03  0.00000000000E+00 0. -1.
         -5    1    5    5    0  502 -0.83634200539E+02 -0.24040657742E+02  0.30869565651E+03  0.32076117451E+03  0.47000000000E+01 0.  1.
         11    1    6    6    0    0  0.67109443571E+01 -0.13313716054E+02  0.38041417993E+01  0.15387114874E+02  0.00000000000E+00 0. -1.
        -12    1    6    6    0    0  0.34302549519E+02  0.27770303720E+02  0.24817709251E+03  0.25207087082E+03  0.00000000000E+00 0.  1.
</event>
<event>
12    1  0.8691829E-002  0.2342063E+03  0.7818608E-02  0.1124056E+00
         21   -1    0    0  503  502  0.00000000000E+00  0.00000000000E+00  0.10036460554E+04  0.10036460554E+04  0.00000000000E+00 0. -1.
         21   -1    0    0  501  503 -0.00000000000E+00 -0.00000000000E+00 -0.91824169167E+02  0.91824169167E+02  0.00000000000E+00 0. -1.
          6    2    1    2  501    0 -0.12724536746E+03 -0.93839324740E+02  0.10640801591E+03  0.25724556316E+03  0.17278718559E+03 0.  0.
         24    2    3    3    0    0 -0.66096210806E+02 -0.36726624975E+02  0.12725140871E+03  0.17088806865E+03  0.85394712491E+02 0.  0.
         -6    2    1    2    0  502  0.12724536746E+03  0.93839324740E+02  0.80541387033E+03  0.83822466142E+03  0.17009373322E+03 0.  0.
        -24    2    5    5    0    0  0.14127097372E+03  0.39904333012E+02  0.67873873222E+03  0.69975307018E+03  0.86129256384E+02 0.  0.
          5    1    3    3  501    0 -0.61149156655E+02 -0.57112699765E+02 -0.20843392805E+02  0.86357494508E+02  0.47000000000E+01 0. -1.
        -11    1    4    4    0    0 -0.84701407090E+02 -0.42046273639E+02  0.10227256399E+03  0.13929068467E+03  0.00000000000E+00 0.  1.
         12    1    4    4    0    0  0.18605196284E+02  0.53196486641E+01  0.24978844727E+02  0.31597383983E+02  0.00000000000E+00 0. -1.
         -5    1    5    5    0  502 -0.14025606263E+02  0.53934991727E+02  0.12667513811E+03  0.13847159124E+03  0.47000000000E+01 0.  1.
         13    1    6    6    0    0  0.14319061138E+03  0.56175880013E+02  0.61328120993E+03  0.63227614468E+03  0.00000000000E+00 0. -1.
        -14    1    6    6    0    0 -0.19196376569E+01 -0.16271547001E+02  0.65457522288E+02  0.67476925498E+02  0.00000000000E+00 0.  1.
</event>
<event>
12    1  0.8691829E-002  0.2002393E+03  0.7818608E-02  0.1149588E+00
         21   -1    0    0  501  502  0.00000000000E+00  0.00000000000E+00  0.69947980375E+03  0.69947980375E+03  0.00000000000E+00 0. -1.
         21   -1    0    0  502  503 -0.00000000000E+00 -0.00000000000E+00 -0.57255418783E+02  0.57255418783E+02  0.00000000000E+00 0. -1.
         -6    2    1    2    0  503  0.58596999609E+02  0.83550538032E+02  0.32312037670E+03  0.38000835800E+03  0.17200370213E+03 0.  0.
        -24    2    3    3    0    0  0.50561496547E+01  0.11017182551E+03  0.18774703771E+03  0.23194301273E+03  0.79907541588E+02 0.  0.
          6    2    1    2  501    0 -0.58596999609E+02 -0.83550538032E+02  0.31910400827E+03  0.37672686453E+03  0.17228308564E+03 0.  0.
         24    2    5    5    0    0 -0.41471950466E+02 -0.10170566102E+03  0.32373571023E+03  0.35091178247E+03  0.79185256452E+02 0.  0.
          5    1    5    5  501    0 -0.17125049143E+02  0.18155122985E+02 -0.46317019602E+01  0.25815082061E+02  0.47000000000E+01 0. -1.
        -11    1    6    6    0    0  0.95592624897E+01 -0.54758580397E+02  0.79376654593E+02  0.96904772435E+02  0.00000000000E+00 0.  1.
         12    1    6    6    0    0 -0.51031212956E+02 -0.46947080620E+02  0.24435905564E+03  0.25400701003E+03  0.00000000000E+00 0. -1.
         -5    1    3    3    0  503  0.53540849955E+02 -0.26621287475E+02  0.13537333899E+03  0.14806534527E+03  0.47000000000E+01 0.  1.
         13    1    4    4    0    0 -0.31662454173E+02  0.76329604350E+02  0.14160329303E+03  0.16395185910E+03  0.00000000000E+00 0. -1.
        -14    1    4    4    0    0  0.36718603827E+02  0.33842221157E+02  0.46143744678E+02  0.67991153637E+02  0.00000000000E+00 0.  1.
</event>
<event>
12    1  0.8691829E-002  0.1786171E+03  0.7818608E-02  0.1169488E+00
         21   -1    0    0  503  502  0.00000000000E+00  0.00000000000E+00  0.11851524221E+04  0.11851524221E+04  0.00000000000E+00 0.  1.
         21   -1    0    0  501  503 -0.00000000000E+00 -0.00000000000E+00 -0.52415817139E+02  0.52415817139E+02  0.00000000000E+00 0. -1.
          6    2    1    2  501    0 -0.20668570819E+02  0.40489105643E+02  0.13417027581E+03  0.22339587774E+03  0.17273534028E+03 0.  0.
         24    2    3    3    0    0 -0.32381033520E+02 -0.38873493537E+02  0.98805705216E+02  0.13559868653E+03  0.77876547000E+02 0.  0.
         -6    2    1    2    0  502  0.20668570819E+02 -0.40489105643E+02  0.99856632913E+03  0.10141723615E+04  0.17130180276E+03 0.  0.
        -24    2    5    5    0    0  0.57756381234E+01 -0.53145102019E+00  0.20709670461E+03  0.22154087703E+03  0.78470852545E+02 0.  0.
          5    1    3    3  501    0  0.11712462701E+02  0.79362599180E+02  0.35364570595E+02  0.87797191211E+02  0.47000000000E+01 0. -1.
        -13    1    4    4    0    0 -0.41597272317E+02  0.63297613976E+01  0.68536532683E+02  0.80421733727E+02  0.00000000000E+00 0.  1.
         14    1    4    4    0    0  0.92162387971E+01 -0.45203254935E+02  0.30269172533E+02  0.55176952798E+02  0.00000000000E+00 0. -1.
         -5    1    5    5    0  502  0.14892932695E+02 -0.39957654623E+02  0.79146962452E+03  0.79263148445E+03  0.47000000000E+01 0.  1.
         13    1    6    6    0    0 -0.50887219130E+01  0.36956253562E+02  0.12820691793E+03  0.13352405616E+03  0.00000000000E+00 0. -1.
        -14    1    6    6    0    0  0.10864360036E+02 -0.37487704583E+02  0.78889786685E+02  0.88016820875E+02  0.00000000000E+00 0.  1.
</event>
<event>
12    1  0.8691829E-002  0.1735482E+03  0.7818608E-02  0.1174582E+00
         21   -1    0    0  503  502  0.00000000000E+00  0.00000000000E+00  0.62234242287E+02  0.62234242287E+02  0.00000000000E+00 0. -1.
         21   -1    0    0  501  503 -0.00000000000E+00 -0.00000000000E+00 -0.10658631011E+04  0.10658631011E+04  0.00000000000E+00 0. -1.
          6    2    1    2  501    0 -0.33196404487E+01  0.68998740352E+01 -0.92106613663E+03  0.93727359817E+03  0.17337918417E+03 0.  0.
         24    2    3    3    0    0 -0.55281702776E+02  0.13003892212E+02 -0.79131998324E+03  0.79729692411E+03  0.79182709338E+02 0.  0.
         -6    2    1    2    0  502  0.33196404487E+01 -0.68998740352E+01 -0.82562722198E+02  0.19082374523E+03  0.17186759547E+03 0.  0.
        -24    2    5    5    0    0 -0.57993240586E+02  0.48592063033E+01 -0.18291625151E+02  0.10109967228E+03  0.80620917543E+02 0.  0.
          5    1    3    3  501    0  0.51962062327E+02 -0.61040181763E+01 -0.12974615340E+03  0.13997667406E+03  0.47000000000E+01 0. -1.
        -13    1    4    4    0    0 -0.46074275105E+02  0.44492781392E+02 -0.56306863100E+03  0.56669985851E+03  0.00000000000E+00 0.  1.
         14    1    4    4    0    0 -0.92074276707E+01 -0.31488889180E+02 -0.22825135224E+03  0.23059706560E+03  0.00000000000E+00 0. -1.
         -5    1    5    5    0  502  0.61312881035E+02 -0.11759080339E+02 -0.64271097048E+02  0.89724072951E+02  0.47000000000E+01 0.  1.
         13    1    6    6    0    0 -0.73785443371E+02 -0.13699651565E+02 -0.14591395922E+02  0.76451821047E+02  0.00000000000E+00 0. -1.
        -14    1    6    6    0    0  0.15792202785E+02  0.18558857868E+02 -0.37002292290E+01  0.24647851236E+02  0.00000000000E+00 0.  1.
</event>
<event>
12    1  0.8691829E-002  0.1846933E+03  0.7818608E-02  0.1163931E+00
         21   -1    0    0  501  502  0.00000000000E+00  0.00000000000E+00  0.29361511579E+04  0.29361511579E+04  0.00000000000E+00 0.  1.
         21   -1    0    0  502  503 -0.00000000000E+00 -0.00000000000E+00 -0.40239123405E+02  0.40239123405E+02  0.00000000000E+00 0.  1.
         -6    2    1    2    0  503  0.51229144726E+02  0.34872081693E+02  0.18656724004E+03  0.26075760793E+03  0.17130880797E+03 0.  0.
        -24    2    3    3    0    0  0.75111757096E+02  0.39683538053E+02  0.58800565126E+02  0.13060407358E+03  0.79895921868E+02 0.  0.
          6    2    1    2  501    0 -0.51229144726E+02 -0.34872081693E+02  0.27093447944E+04  0.27156326733E+04  0.17398595942E+03 0.  0.
         24    2    5    5    0    0 -0.55625711691E+02  0.23094318468E+00  0.25695560061E+04  0.25713601967E+04  0.78618826396E+02 0.  0.
          5    1    5    5  501    0  0.43965669645E+01 -0.35103024878E+02  0.13978878832E+03  0.14427247657E+03  0.47000000000E+01 0. -1.
        -11    1    6    6    0    0 -0.35685489608E+02 -0.18795971522E+02  0.50109247481E+03  0.50271305038E+03  0.00000000000E+00 0.  1.
         12    1    6    6    0    0 -0.19940222083E+02  0.19026914706E+02  0.20684635313E+04  0.20686471464E+04  0.00000000000E+00 0. -1.
         -5    1    3    3    0  503 -0.23882612369E+02 -0.48114563595E+01  0.12776667491E+03  0.13015353435E+03  0.47000000000E+01 0.  1.
         11    1    4    4    0    0 -0.16995807135E+02  0.10589386445E+02  0.99460846920E+01  0.22358827477E+02  0.00000000000E+00 0. -1.
        -12    1    4    4    0    0  0.92107564230E+02  0.29094151608E+02  0.48854480434E+02  0.10824524611E+03  0.00000000000E+00 0.  1.
</event>
<event>
12    1  0.8691829E-002  0.2136298E+03  0.7818608E-02  0.1138790E+00
         21   -1    0    0  503  502  0.00000000000E+00  0.00000000000E+00  0.60372204712E+03  0.60372204712E+03  0.00000000000E+00 0. -1.
         21   -1    0    0  501  503 -0.00000000000E+00 -0.00000000000E+00 -0.32220707075E+03  0.32220707075E+03  0.00000000000E+00 0.  1.
          6    2    1    2  501    0  0.23761618464E+02 -0.12402302220E+03 -0.26434666069E+03  0.33987766527E+03  0.17231176914E+03 0.  0.
         24    2    3    3    0    0  0.55378729099E+02 -0.11843848233E+03 -0.12764907753E+03  0.19938158699E+03  0.79776265280E+02 0.  0.
         -6    2    1    2    0  502 -0.23761618464E+02  0.12402302220E+03  0.54586163707E+03  0.58605145260E+03  0.17188674677E+03 0.  0.
        -24    2    5    5    0    0 -0.14447736261E+02  0.10535586646E+03  0.21272180663E+03  0.25222597764E+03  0.84016552520E+02 0.  0.
          5    1    3    3  501    0 -0.31617110635E+02 -0.55845398675E+01 -0.13669758317E+03  0.14049607829E+03  0.47000000000E+01 0. -1.
        -13    1    4    4    0    0 -0.71121964511E+01 -0.77064787997E+02 -0.54511675181E+02  0.94663021388E+02  0.00000000000E+00 0.  1.
         14    1    4    4    0    0  0.62490925550E+02 -0.41373694337E+02 -0.73137402345E+02  0.10471856560E+03  0.00000000000E+00 0. -1.
         -5    1    5    5    0  502 -0.93138822031E+01  0.18667155738E+02  0.33313983044E+03  0.33382547496E+03  0.47000000000E+01 0.  1.
         11    1    6    6    0    0 -0.33547771113E+02  0.21242631661E+02  0.11611351167E+03  0.12271532072E+03  0.00000000000E+00 0. -1.
        -12    1    6    6    0    0  0.19100034852E+02  0.84113234801E+02  0.96608294959E+02  0.12951065692E+03  0.00000000000E+00 0.  1.
</event>
<event>
12    1  0.8691829E-002  0.1843043E+03  0.7818608E-02  0.1164557E+00
         21   -1    0    0  501  502  0.00000000000E+00  0.00000000000E+00  0.27988489111E+03  0.27988489111E+03  0.00000000000E+00 0. -1.
         21   -1    0    0  502  503 -0.00000000000E+00 -0.00000000000E+00 -0.11971803214E+03  0.11971803214E+03  0.00000000000E+00 0. -1.
         -6    2    1    2    0  503  0.45010949804E+02  0.42487689583E+02  0.94785122464E+02  0.20404514742E+03  0.16976163695E+03 0.  0.
        -24    2    3    3    0    0 -0.77268280157E+00 -0.32392464016E+02  0.76272548053E+02  0.11422319115E+03  0.78610222276E+02 0.  0.
          6    2    1    2  501    0 -0.45010949804E+02 -0.42487689583E+02  0.65381736505E+02  0.19555777582E+03  0.17359977779E+03 0.  0.
         24    2    5    5    0    0 -0.35243584481E+02  0.34964368800E+02  0.62666789692E+02  0.11730380653E+03  0.85839613025E+02 0.  0.
          5    1    5    5  501    0 -0.97673653233E+01 -0.77452058383E+02  0.27149468128E+01  0.78253969288E+02  0.47000000000E+01 0. -1.
        -11    1    6    6    0    0 -0.30005799044E+02 -0.11038212214E+01 -0.13457850575E+02  0.32904105210E+02  0.00000000000E+00 0.  1.
         12    1    6    6    0    0 -0.52377854362E+01  0.36068190021E+02  0.76124640267E+02  0.84399701323E+02  0.00000000000E+00 0. -1.
         -5    1    3    3    0  503  0.45783632605E+02  0.74880153599E+02  0.18512574411E+02  0.89821956274E+02  0.47000000000E+01 0.  1.
         11    1    4    4    0    0 -0.18924765770E+01  0.24547990776E+02  0.39126217528E+02  0.46228197205E+02  0.00000000000E+00 0. -1.
        -12    1    4    4    0    0  0.11197937754E+01 -0.56940454793E+02  0.37146330524E+02  0.67994993945E+02  0.00000000000E+00 0.  1.
</event>
<event>
12    1  0.8691829E-002  0.1793243E+03  0.7818608E-02  0.1168597E+00
         21   -1    0    0  501  502  0.00000000000E+00  0.00000000000E+00  0.11740006971E+02  0.11740006971E+02  0.00000000000E+00 0. -1.
         21   -1    0    0  502  503 -0.00000000000E+00 -0.00000000000E+00 -0.27313833302E+04  0.27313833302E+04  0.00000000000E+00 0. -1.
         -6    2    1    2    0  503  0.35854853902E+02 -0.32291336768E+02 -0.13320882674E+04  0.13440285452E+04  0.17211994994E+03 0.  0.
        -24    2    3    3    0    0  0.41775656637E+02 -0.11492258839E+02 -0.33924937818E+03  0.35094304661E+03  0.78699452775E+02 0.  0.
          6    2    1    2  501    0 -0.35854853902E+02  0.32291336768E+02 -0.13875550558E+04  0.13990947920E+04  0.17271046003E+03 0.  0.
         24    2    5    5    0    0 -0.15233286298E+02 -0.46149794522E+02 -0.90814560087E+03  0.91285022838E+03  0.78773412525E+02 0.  0.
          5    1    5    5  501    0 -0.20621567604E+02  0.78441131290E+02 -0.47940945495E+03  0.48624456360E+03  0.47000000000E+01 0. -1.
        -11    1    6    6    0    0 -0.42492656546E+01  0.13402428814E+02 -0.50370512355E+03  0.50390131261E+03  0.00000000000E+00 0.  1.
         12    1    6    6    0    0 -0.10984020643E+02 -0.59552223335E+02 -0.40444047732E+03  0.40894891577E+03  0.00000000000E+00 0. -1.
         -5    1    3    3    0  503 -0.59208027348E+01 -0.20799077929E+02 -0.99283888919E+03  0.99308549855E+03  0.47000000000E+01 0.  1.
         13    1    4    4    0    0  0.45213838068E+01 -0.41586991196E+02 -0.14935258297E+03  0.15510033781E+03  0.00000000000E+00 0. -1.
        -14    1    4    4    0    0  0.37254272830E+02  0.30094732357E+02 -0.18989679521E+03  0.19584270880E+03  0.00000000000E+00 0.  1.
</event>
<event>
12    1  0.8691829E-002  0.1728436E+03  0.7818608E-02  0.1175128E+00
         21   -1    0    0  501  502  0.00000000000E+00  0.00000000000E+00  0.88999949312E+02  0.88999949312E+02  0.00000000000E+00 0. -1.
         21   -1    0    0  502  503 -0.00000000000E+00 -0.00000000000E+00 -0.40567375896E+03  0.40567375896E+03  0.00000000000E+00 0. -1.
         -6    2    1    2    0  503 -0.17705824145E+02  0.94553292958E+01 -0.26194349226E+03  0.31337193274E+03  0.17083522948E+03 0.  0.
        -24    2    3    3    0    0  0.23428993213E+02  0.40276445483E+02 -0.24128958727E+03  0.25777797450E+03  0.77831288228E+02 0.  0.
          6    2    1    2  501    0  0.17705824145E+02 -0.94553292958E+01 -0.54730317382E+02  0.18130177552E+03  0.17167418765E+03 0.  0.
         24    2    5    5    0    0 -0.10501404484E+02 -0.61263976138E+02 -0.99607360840E+01  0.10709807586E+03  0.86644257285E+02 0.  0.
          5    1    5    5  501    0  0.28207228629E+02  0.51808646843E+02 -0.44769581298E+02  0.74203699666E+02  0.47000000000E+01 0. -1.
        -11    1    6    6    0    0 -0.34039596261E+02 -0.25489642906E+02 -0.37070485820E+02  0.56414864424E+02  0.00000000000E+00 0.  1.
         12    1    6    6    0    0  0.23538191777E+02 -0.35774333233E+02  0.27109749736E+02  0.50683211433E+02  0.00000000000E+00 0. -1.
         -5    1    3    3    0  503 -0.41134817358E+02 -0.30821116187E+02 -0.20653904991E+02  0.55593958246E+02  0.47000000000E+01 0.  1.
         13    1    4    4    0    0 -0.25268208899E+02  0.10339804437E+02 -0.12805177433E+03  0.13092994633E+03  0.00000000000E+00 0. -1.
        -14    1    4    4    0    0  0.48697202112E+02  0.29936641046E+02 -0.11323781294E+03  0.12684802817E+03  0.00000000000E+00 0.  1.
</event>
<event>
12    1  0.8691829E-002  0.1785214E+03  0.7818608E-02  0.1169327E+00
         21   -1    0    0  501  502  0.00000000000E+00  0.00000000000E+00  0.71790796160E+03  0.71790796160E+03  0.00000000000E+00 0. -1.
         21   -1    0    0  502  503 -0.00000000000E+00 -0.00000000000E+00 -0.49698024199E+02  0.49698024199E+02  0.00000000000E+00 0. -1.
         -6    2    1    2    0  503 -0.14909533523E+01  0.46900411485E+02  0.46080740073E+03  0.49417946181E+03  0.17224403725E+03 0.  0.
        -24    2    3    3    0    0 -0.62411974058E+02  0.23230000399E+02  0.21942762994E+03  0.24406360292E+03  0.83568355629E+02 0.  0.
          6    2    1    2  501    0  0.14909533523E+01 -0.46900411485E+02  0.20740253667E+03  0.27342652399E+03  0.17188478776E+03 0.  0.
         24    2    5    5    0    0  0.35323861302E+02  0.32726316188E+02  0.12070251472E+03  0.15085383035E+03  0.76609360538E+02 0.  0.
          5    1    5    5  501    0 -0.33832907949E+02 -0.79626727673E+02  0.86700021947E+02  0.12257269364E+03  0.47000000000E+01 0. -1.
        -11    1    6    6    0    0  0.58318119526E+02  0.13908522412E+02  0.89886576278E+02  0.10804650228E+03  0.00000000000E+00 0.  1.
         12    1    6    6    0    0 -0.22994258224E+02  0.18817793775E+02  0.30815938446E+02  0.42807328066E+02  0.00000000000E+00 0. -1.
         -5    1    3    3    0  503  0.60921020705E+02  0.23670411086E+02  0.24137977079E+03  0.25011585889E+03  0.47000000000E+01 0.  1.
         13    1    4    4    0    0  0.11013757454E+01 -0.52200455352E+01 -0.60639573640E+01  0.80767247591E+01  0.00000000000E+00 0. -1.
        -14    1    4    4    0    0 -0.63513349803E+02  0.28450045934E+02  0.22549158731E+03  0.23598687816E+03  0.00000000000E+00 0.  1.
</event>
<event>
12    1  0.8691829E-002  0.2859356E+03  0.7818608E-02  0.1092604E+00
         21   -1    0    0  503  502  0.00000000000E+00  0.00000000000E+00  0.79604792703E+02  0.79604792703E+02  0.00000000000E+00 0.  1.
         21   -1    0    0  501  503 -0.00000000000E+00 -0.00000000000E+00 -0.10376916484E+04  0.10376916484E+04  0.00000000000E+00 0. -1.
          6    2    1    2  501    0  0.22786942712E+03 -0.88908402724E+01 -0.41416459301E+03  0.50279616301E+03  0.17107936340E+03 0.  0.
         24    2    3    3    0    0  0.19990440899E+03  0.13767913388E+02 -0.22437052093E+03  0.30956226031E+03  0.73043371858E+02 0.  0.
         -6    2    1    2    0  502 -0.22786942712E+03  0.88908402724E+01 -0.54392226272E+03  0.61450027812E+03  0.17249823500E+03 0.  0.
        -24    2    5    5    0    0 -0.64577055882E+02 -0.37567968380E+02 -0.29853367633E+03  0.31607027337E+03  0.72086846324E+02 0.  0.
          5    1    3    3  501    0  0.27965018126E+02 -0.22658753660E+02 -0.18979407208E+03  0.19323390270E+03  0.47000000000E+01 0. -1.
        -11    1    4    4    0    0  0.11300527447E+03 -0.16408293389E+02 -0.16285384644E+03  0.19889896795E+03  0.00000000000E+00 0.  1.
         12    1    4    4    0    0  0.86899134525E+02  0.30176206777E+02 -0.61516674487E+02  0.11066329236E+03  0.00000000000E+00 0. -1.
         -5    1    5    5    0  502 -0.16329237124E+03  0.46458808653E+02 -0.24538858639E+03  0.29843000475E+03  0.47000000000E+01 0.  1.
         11    1    6    6    0    0 -0.75078573931E+02 -0.40532741115E+02 -0.20708654134E+03  0.22397439803E+03  0.00000000000E+00 0. -1.
        -12    1    6    6    0    0  0.10501518049E+02  0.29647727348E+01 -0.91447134985E+02  0.92095875345E+02  0.00000000000E+00 0.  1.
</event>
<event>
12    1  0.8691829E-002  0.1803748E+03  0.7818608E-02  0.1168241E+00
         21   -1    0    0  503  502  0.00000000000E+00  0.00000000000E+00  0.31403373659E+03  0.31403373659E+03  0.00000000000E+00 0.  1.
         21   -1    0    0  501  503 -0.00000000000E+00 -0.00000000000E+00 -0.10549081671E+03  0.10549081671E+03  0.00000000000E+00 0.  1.
          6    2    1    2  501    0  0.38044086659E+02  0.28853224751E+02  0.14296929478E+03  0.22760020179E+03  0.17053378403E+03 0.  0.
         24    2    3    3    0    0 -0.31311799485E+02  0.29576927825E+02  0.37906656319E+02  0.10162000220E+03  0.83871847521E+02 0.  0.
         -6    2    1    2    0  502 -0.38044086659E+02 -0.28853224751E+02  0.65573625104E+02  0.19192435151E+03  0.17394020606E+03 0.  0.
        -24    2    5    5    0    0  0.28733599504E+02  0.23682752978E+02  0.60212879208E+02  0.10665937674E+03  0.79775555753E+02 0.  0.
          5    1    3    3  501    0  0.69355886144E+02 -0.72370307415E+00  0.10506263846E+03  0.12598019959E+03  0.47000000000E+01 0. -1.
        -11    1    4    4    0    0  0.21728385829E+02  0.31070546151E+02  0.28446276572E+01  0.38020961263E+02  0.00000000000E+00 0.  1.
         12    1    4    4    0    0 -0.53040185314E+02 -0.14936183262E+01  0.35062028661E+02  0.63599040934E+02  0.00000000000E+00 0. -1.
         -5    1    5    5    0  502 -0.66777686163E+02 -0.52535977729E+02  0.53607458959E+01  0.85264974766E+02  0.47000000000E+01 0.  1.
         11    1    6    6    0    0 -0.88452355145E+01 -0.52684649568E+01 -0.14725925693E+02  0.17967965991E+02  0.00000000000E+00 0. -1.
        -12    1    6    6    0    0  0.37578835018E+02  0.28951217935E+02  0.74938804902E+02  0.88691410753E+02  0.00000000000E+00 0.  1.
</event>
<event>
12    1  0.8691829E-002  0.1756542E+03  0.7818608E-02  0.1172228E+00
         21   -1    0    0  503  502  0.00000000000E+00  0.00000000000E+00  0.35195957277E+02  0.35195957277E+02  0.00000000000E+00 0. -1.
         21   -1    0    0  501  503 -0.00000000000E+00 -0.00000000000E+00 -0.19601924185E+04  0.19601924185E+04  0.00000000000E+00 0. -1.
          6    2    1    2  501    0  0.66997746306E+01  0.35317658713E+02 -0.17060440206E+04  0.17150628553E+04  0.17193653893E+03 0.  0.
         24    2    3    3    0    0 -0.52650361331E+02  0.25330850111E+02 -0.60958861266E+03  0.61694686572E+03  0.74909584951E+02 0.  0.
         -6    2    1    2    0  502 -0.66997746306E+01 -0.35317658713E+02 -0.21895244067E+03  0.28032552052E+03  0.17131842336E+03 0.  0.
        -24    2    5    5    0    0 -0.16613354689E+02 -0.20059658816E+02 -0.27615027768E+02  0.88067409622E+02  0.79466253297E+02 0.  0.
          5    1    3    3  501    0  0.59350135962E+02  0.99868086023E+01 -0.10964554079E+04  0.10981159896E+04  0.47000000000E+01 0. -1.
        -13    1    4    4    0    0 -0.20102158851E+01  0.37058869132E+02 -0.36581866753E+03  0.36769647573E+03  0.00000000000E+00 0.  1.
         14    1    4    4    0    0 -0.50640145446E+02 -0.11728019021E+02 -0.24376994513E+03  0.24925038999E+03  0.00000000000E+00 0. -1.
         -5    1    5    5    0  502  0.99135800588E+01 -0.15257999898E+02 -0.19133741290E+03  0.19225811090E+03  0.47000000000E+01 0.  1.
         13    1    6    6    0    0  0.28322966189E+02  0.93331574858E+01 -0.77149234936E+01  0.30802894132E+02  0.00000000000E+00 0. -1.
        -14    1    6    6    0    0 -0.44936320878E+02 -0.29392816302E+02 -0.19900104274E+02  0.57264515490E+02  0.00000000000E+00 0.  1.
</event>
<event>
12    1  0.8691829E-002  0.1925698E+03  0.7818608E-02  0.1156370E+00
         21   -1    0    0  503  502  0.00000000000E+00  0.00000000000E+00  0.62695896346E+03  0.62695896346E+03  0.00000000000E+00 0. -1.
         21   -1    0    0  501  503 -0.00000000000E+00 -0.00000000000E+00 -0.10536353493E+03  0.10536353493E+03  0.00000000000E+00 0.  1.
          6    2    1    2  501    0 -0.35236297150E+02  0.75881272558E+02  0.17194930095E+02  0.19241232549E+03  0.17241598886E+03 0.  0.
         24    2    3    3    0    0  0.14238942040E+02  0.95502811591E+02  0.43811202145E+02  0.13271877454E+03  0.79820531127E+02 0.  0.
         -6    2    1    2    0  502  0.35236297150E+02 -0.75881272558E+02  0.50440049843E+03  0.53991017291E+03  0.17344615254E+03 0.  0.
        -24    2    5    5    0    0 -0.38141973868E+02 -0.38239037563E+01  0.26359368145E+03  0.27801964586E+03  0.79648365776E+02 0.  0.
          5    1    3    3  501    0 -0.49475239190E+02 -0.19621539033E+02 -0.26616272049E+02  0.59693550948E+02  0.47000000000E+01 0. -1.
        -11    1    4    4    0    0  0.20607265708E+02  0.96224497121E+02  0.10692425853E+02  0.98985560648E+02  0.00000000000E+00 0.  1.
         12    1    4    4    0    0 -0.63683236680E+01 -0.72168553030E+00  0.33118776291E+02  0.33733213890E+02  0.00000000000E+00 0. -1.
         -5    1    5    5    0  502  0.73378271018E+02 -0.72057368802E+02  0.24080681698E+03  0.26189052705E+03  0.47000000000E+01 0.  1.
         13    1    6    6    0    0 -0.31224668357E+02 -0.25168844307E+02  0.54186783779E+02  0.67414079939E+02  0.00000000000E+00 0. -1.
        -14    1    6    6    0    0 -0.69173055112E+01  0.21344940550E+02  0.20940689767E+03  0.21060556592E+03  0.00000000000E+00 0.  1.
</event>
<event>
12    1  0.8691829E-002  0.2159991E+03  0.7818608E-02  0.1136924E+00
         21   -1    0    0  501  502  0.00000000000E+00  0.00000000000E+00  0.55437051980E+03  0.55437051980E+03  0.00000000000E+00 0.  1.
         21   -1    0    0  502  503 -0.00000000000E+00 -0.00000000000E+00 -0.90555464700E+02  0.90555464700E+02  0.00000000000E+00 0.  1.
         -6    2    1    2    0  503 -0.96346226558E+02  0.85141685286E+02  0.31797169420E+03  0.38439771846E+03  0.17356239715E+03 0.  0.
        -24    2    3    3    0    0 -0.22347627226E+02  0.86420697060E+02  0.10701291883E+03  0.16078393651E+03  0.80198230160E+02 0.  0.
          6    2    1    2  501    0  0.96346226558E+02 -0.85141685286E+02  0.14584336091E+03  0.26052826604E+03  0.17341565540E+03 0.  0.
         24    2    5    5    0    0  0.13234773886E+03 -0.44523884923E+02  0.11141940499E+03  0.19608438863E+03  0.80848644685E+02 0.  0.
          5    1    5    5  501    0 -0.36001512300E+02 -0.40617800363E+02  0.34423955918E+02  0.64443877407E+02  0.47000000000E+01 0. -1.
        -13    1    6    6    0    0  0.85291019237E+02  0.58208042861E+01  0.89502908942E+02  0.12377079799E+03  0.00000000000E+00 0.  1.
         14    1    6    6    0    0  0.47056719621E+02 -0.50344689209E+02  0.21916496047E+02  0.72313590645E+02  0.00000000000E+00 0. -1.
         -5    1    3    3    0  503 -0.73998599332E+02 -0.12790117745E+01  0.21095877537E+03  0.22361378195E+03  0.47000000000E+01 0.  1.
         11    1    4    4    0    0  0.14136857182E+02  0.45398475897E+01 -0.64454742459E+01  0.16186571143E+02  0.00000000000E+00 0. -1.
        -12    1    4    4    0    0 -0.36484484408E+02  0.81880849471E+02  0.11345839307E+03  0.14459736537E+03  0.00000000000E+00 0.  1.
</event>
<event>
12    1  0.8691829E-002  0.2075447E+03  0.7818608E-02  0.1144545E+00
         21   -1    0    0  501  502  0.00000000000E+00  0.00000000000E+00  0.12429131028E+04  0.12429131028E+04  0.00000000000E+00 0.  1.
         21   -1    0    0  502  503 -0.00000000000E+00 -0.00000000000E+00 -0.38079456979E+02  0.38079456979E+02  0.00000000000E+00 0.  1.
         -6    2    1    2    0  503  0.11253508932E+03  0.89176896445E+01  0.38182776808E+03  0.43222081744E+03  0.16816277542E+03 0.  0.
        -24    2    3    3    0    0 -0.33731779119E+01  0.30879173015E+02  0.16509467504E+03  0.18541652902E+03  0.78473790867E+02 0.  0.
          6    2    1    2  501    0 -0.11253508932E+03 -0.89176896445E+01  0.82300587770E+03  0.84877174229E+03  0.17415833104E+03 0.  0.
         24    2    5    5    0    0 -0.12217866825E+03 -0.32536604359E+02  0.80123723048E+03  0.81490707415E+03  0.78142065396E+02 0.  0.
          5    1    5    5  501    0  0.96435789332E+01  0.23618914715E+02  0.21768647217E+02  0.33864668145E+02  0.47000000000E+01 0. -1.
        -11    1    6    6    0    0 -0.65815370401E+02 -0.35446042814E+02  0.25412864612E+03  0.26489517495E+03  0.00000000000E+00 0.  1.
         12    1    6    6    0    0 -0.56363297852E+02  0.29094384550E+01  0.54710858436E+03  0.55001189920E+03  0.00000000000E+00 0. -1.
         -5    1    3    3    0  503  0.11590826723E+03 -0.21961483370E+02  0.21673309303E+03  0.24680428842E+03  0.47000000000E+01 0.  1.
         11    1    4    4    0    0 -0.24559131628E+02 -0.61661190291E+01  0.15128473896E+02  0.29496486106E+02  0.00000000000E+00 0. -1.
        -12    1    4    4    0    0  0.21185953716E+02  0.37045292044E+02  0.14996620115E+03  0.15592004292E+03  0.00000000000E+00 0.  1.
</event>
<event>
12    1  0.8691829E-002  0.1836008E+03  0.7818608E-02  0.1165621E+00
         21   -1    0    0  503  502  0.00000000000E+00  0.00000000000E+00  0.30461716989E+03  0.30461716989E+03  0.00000000000E+00 0.  1.
         21   -1    0    0  501  503 -0.00000000000E+00 -0.00000000000E+00 -0.22304815827E+03  0.22304815827E+03  0.00000000000E+00 0.  1.
          6    2    1    2  501    0  0.41744957127E+02  0.79477496095E+01 -0.14880058616E+03  0.23632785308E+03  0.17861531718E+03 0.  0.
         24    2    3    3    0    0  0.76981616253E+02  0.10249580194E+02 -0.16382229932E+03  0.19766698867E+03  0.78760837483E+02 0.  0.
         -6    2    1    2    0  502 -0.41744957127E+02 -0.79477496095E+01  0.23036959778E+03  0.29133747508E+03  0.17320959741E+03 0.  0.
        -24    2    5    5    0    0 -0.86577277644E+02 -0.39063463358E+02  0.16336507554E+03  0.20479372542E+03  0.78935054889E+02 0.  0.
          5    1    3    3  501    0 -0.35236659126E+02 -0.23018305847E+01  0.15021713160E+02  0.38660864407E+02  0.47000000000E+01 0. -1.
        -11    1    4    4    0    0 -0.28686707603E+01  0.23589567594E+02 -0.69047841367E+02  0.73022608613E+02  0.00000000000E+00 0.  1.
         12    1    4    4    0    0  0.79850287013E+02 -0.13339987400E+02 -0.94774457952E+02  0.12464438006E+03  0.00000000000E+00 0. -1.
         -5    1    5    5    0  502  0.44832320518E+02  0.31115713749E+02  0.67004522232E+02  0.86543749657E+02  0.47000000000E+01 0.  1.
         13    1    6    6    0    0 -0.30576917997E+02 -0.10491770975E+02  0.29046891081E+01  0.32457085377E+02  0.00000000000E+00 0. -1.
        -14    1    6    6    0    0 -0.56000359647E+02 -0.28571692383E+02  0.16046038644E+03  0.17233664004E+03  0.00000000000E+00 0.  1.
</event>
<event>
12    1  0.8691829E-002  0.2132597E+03  0.7818608E-02  0.1139094E+00
         21   -1    0    0  501  502  0.00000000000E+00  0.00000000000E+00  0.78387967967E+03  0.78387967967E+03  0.00000000000E+00 0.  1.
         21   -1    0    0  502  503 -0.00000000000E+00 -0.00000000000E+00 -0.10607701323E+03  0.10607701323E+03  0.00000000000E+00 0. -1.
         -6    2    1    2    0  503  0.11335162331E+03 -0.54102656334E+02  0.38837935406E+02  0.21634284645E+03  0.17181430108E+03 0.  0.
        -24    2    3    3    0    0  0.42472265244E+02 -0.14344809438E+02 -0.49027728197E+02  0.96563738800E+02  0.70079744905E+02 0.  0.
          6    2    1    2  501    0 -0.11335162331E+03  0.54102656334E+02  0.63896473104E+03  0.67361384645E+03  0.17234848036E+03 0.  0.
         24    2    5    5    0    0 -0.53970544942E+02  0.55694377582E+02  0.57684818756E+03  0.58753713055E+03  0.80195790876E+02 0.  0.
          5    1    5    5  501    0 -0.59381078369E+02 -0.15917212479E+01  0.62116543483E+02  0.86076715894E+02  0.47000000000E+01 0. -1.
        -11    1    6    6    0    0 -0.33457757008E+02 -0.38888922271E+01  0.36404408059E+03  0.36559901203E+03  0.00000000000E+00 0.  1.
         12    1    6    6    0    0 -0.20512787934E+02  0.59583269809E+02  0.21280410697E+03  0.22193811852E+03  0.00000000000E+00 0. -1.
         -5    1    3    3    0  503  0.70879358067E+02 -0.39757846896E+02  0.87865663603E+02  0.11977910765E+03  0.47000000000E+01 0.  1.
         11    1    4    4    0    0  0.57545809888E+02 -0.97374707312E+01 -0.16873484183E+02  0.60754037235E+02  0.00000000000E+00 0. -1.
        -12    1    4    4    0    0 -0.15073544643E+02 -0.46073387070E+01 -0.32154244014E+02  0.35809701565E+02  0.00000000000E+00 0.  1.
</event>
<event>
12    1  0.8691829E-002  0.2126843E+03  0.7818608E-02  0.1139506E+00
         21   -1    0    0  503  502  0.00000000000E+00  0.00000000000E+00  0.86193245629E+03  0.86193245629E+03  0.00000000000E+00 0.  1.
         21   -1    0    0  501  503 -0.00000000000E+00 -0.00000000000E+00 -0.24527970100E+03  0.24527970100E+03  0.00000000000E+00 0.  1.
          6    2    1    2  501    0 -0.12232059591E+03  0.25544503643E+02 -0.18261137112E+03  0.28013430745E+03  0.17179484131E+03 0.  0.
         24    2    3    3    0    0 -0.15400163558E+03  0.25788781518E+02 -0.17395553357E+03  0.24695658194E+03  0.79658400020E+02 0.  0.
         -6    2    1    2    0  502  0.12232059591E+03 -0.25544503643E+02  0.79926412641E+03  0.82707784983E+03  0.17210396879E+03 0.  0.
        -24    2    5    5    0    0  0.14534473213E+03 -0.36134069283E+00  0.75531072854E+03  0.77123616532E+03  0.56442043991E+02 0.  0.
          5    1    3    3  501    0  0.31681039671E+02 -0.24427787510E+00 -0.86558375517E+01  0.33177725510E+02  0.47000000000E+01 0. -1.
        -13    1    4    4    0    0 -0.22362238534E+02  0.24868491794E+02 -0.75478526664E+02  0.82556160180E+02  0.00000000000E+00 0.  1.
         14    1    4    4    0    0 -0.13163939704E+03  0.92028972394E+00 -0.98477006901E+02  0.16440042176E+03  0.00000000000E+00 0. -1.
         -5    1    5    5    0  502 -0.23024136219E+02 -0.25183162950E+02  0.43953397863E+02  0.55841684507E+02  0.47000000000E+01 0.  1.
         11    1    6    6    0    0 -0.29029779634E+01  0.62234648976E+01  0.21452467505E+02  0.22524812062E+02  0.00000000000E+00 0. -1.
        -12    1    6    6    0    0  0.14824771009E+03 -0.65848055905E+01  0.73385826104E+03  0.74871135326E+03  0.00000000000E+00 0.  1.
</event>
<event>
12    1  0.8691829E-002  0.3027737E+03  0.7818608E-02  0.1084050E+00
         21   -1    0    0  501  502  0.00000000000E+00  0.00000000000E+00  0.10484954812E+04  0.10484954812E+04  0.00000000000E+00 0. -1.
         21   -1    0    0  502  503 -0.00000000000E+00 -0.00000000000E+00 -0.88201704185E+02  0.88201704185E+02  0.00000000000E+00 0.  1.
         -6    2    1    2    0  503  0.33326617398E+02 -0.24727955068E+03  0.41243504810E+03  0.51074104790E+03  0.16880731469E+03 0.  0.
        -24    2    3    3    0    0  0.33824421399E+02 -0.26725476416E+03  0.37959862466E+03  0.47201666712E+03  0.78328907459E+02 0.  0.
          6    2    1    2  501    0 -0.33326617398E+02  0.24727955068E+03  0.54785872892E+03  0.62595613749E+03  0.17150527571E+03 0.  0.
         24    2    5    5    0    0  0.43376803289E+02  0.71594291128E+02  0.17415745739E+03  0.20592821519E+03  0.71192136233E+02 0.  0.
          5    1    5    5  501    0 -0.76703420687E+02  0.17568525956E+03  0.37370127153E+03  0.42002792231E+03  0.47000000000E+01 0. -1.
        -13    1    6    6    0    0  0.11646781413E+02  0.68637513102E+02  0.77620655465E+02  0.10426754949E+03  0.00000000000E+00 0.  1.
         14    1    6    6    0    0  0.31730021876E+02  0.29567780255E+01  0.96536801923E+02  0.10166066570E+03  0.00000000000E+00 0. -1.
         -5    1    3    3    0  503 -0.49780400071E+00  0.19975213479E+02  0.32836423441E+02  0.38724380779E+02  0.47000000000E+01 0.  1.
         13    1    4    4    0    0  0.34165091354E+02 -0.24404951405E+03  0.37441943024E+03  0.44823802663E+03  0.00000000000E+00 0. -1.
        -14    1    4    4    0    0 -0.34066995532E+00 -0.23205250111E+02  0.51791944228E+01  0.23778640491E+02  0.00000000000E+00 0.  1.
</event>
<event>
12    1  0.8691829E-002  0.2527705E+03  0.7818608E-02  0.1111851E+00
         21   -1    0    0  503  502  0.00000000000E+00  0.00000000000E+00  0.58263977480E+03  0.58263977480E+03  0.00000000000E+00 0.  1.
         21   -1    0    0  501  503 -0.00000000000E+00 -0.00000000000E+00 -0.14143525558E+03  0.14143525558E+03  0.00000000000E+00 0. -1.
          6    2    1    2  501    0  0.79974927757E+02 -0.16622295241E+03  0.47501542185E+02  0.25719511637E+03  0.17282034718E+03 0.  0.
         24    2    3    3    0    0  0.66310750526E+02 -0.12188603409E+03  0.98687639346E+02  0.18795222065E+03  0.79583077009E+02 0.  0.
         -6    2    1    2    0  502 -0.79974927757E+02  0.16622295241E+03  0.39370297703E+03  0.46687991400E+03  0.17014335425E+03 0.  0.
        -24    2    5    5    0    0 -0.35331104382E+02  0.17259846559E+03  0.36497300870E+03  0.41320292439E+03  0.80578175569E+02 0.  0.
          5    1    3    3  501    0  0.13664177231E+02 -0.44336918320E+02 -0.51186097161E+02  0.69242895723E+02  0.47000000000E+01 0. -1.
        -11    1    4    4    0    0 -0.13167137394E+02 -0.41568521522E+02  0.45653657133E+02  0.63131386000E+02  0.00000000000E+00 0.  1.
         12    1    4    4    0    0  0.79477887920E+02 -0.80317512565E+02  0.53033982213E+02  0.12482083465E+03  0.00000000000E+00 0. -1.
         -5    1    5    5    0  502 -0.44643823375E+02 -0.63755131831E+01  0.28729968332E+02  0.53676989616E+02  0.47000000000E+01 0.  1.
         11    1    6    6    0    0 -0.87304540568E+01  0.14760966474E+03  0.33424760348E+03  0.36549458872E+03  0.00000000000E+00 0. -1.
        -12    1    6    6    0    0 -0.26600650326E+02  0.24988800848E+02  0.30725405221E+02  0.47708335661E+02  0.00000000000E+00 0.  1.
</event>
<event>
12    1  0.8691829E-002  0.1829402E+03  0.7818608E-02  0.1166276E+00
         21   -1    0    0  503  502  0.00000000000E+00  0.00000000000E+00  0.16678425751E+03  0.16678425751E+03  0.00000000000E+00 0.  1.
         21   -1    0    0  501  503 -0.00000000000E+00 -0.00000000000E+00 -0.20705037030E+03  0.20705037030E+03  0.00000000000E+00 0.  1.
          6    2    1    2  501    0 -0.44160012288E+02 -0.15333221957E+02 -0.65820010970E+02  0.19442066091E+03  0.17686691370E+03 0.  0.
         24    2    3    3    0    0 -0.75041734792E+02  0.97541746875E+01  0.79035705387E+01  0.11051407758E+03  0.80152910314E+02 0.  0.
         -6    2    1    2    0  502  0.44160012288E+02  0.15333221957E+02  0.25553898178E+02  0.17941396691E+03  0.17132178913E+03 0.  0.
        -24    2    5    5    0    0 -0.29706412991E+02 -0.76515225163E+01 -0.22606781609E+02  0.88166565086E+02  0.79506351034E+02 0.  0.
          5    1    3    3  501    0  0.30881722504E+02 -0.25087396645E+02 -0.73723581509E+02  0.83906583328E+02  0.47000000000E+01 0. -1.
        -13    1    4    4    0    0  0.97206589279E+01  0.39315291821E+01  0.22018206345E+02  0.24387487414E+02  0.00000000000E+00 0.  1.
         14    1    4    4    0    0 -0.84762393720E+02  0.58226455054E+01 -0.14114635806E+02  0.86126590167E+02  0.00000000000E+00 0. -1.
         -5    1    5    5    0  502  0.73866425279E+02  0.22984744474E+02  0.48160679786E+02  0.91247401823E+02  0.47000000000E+01 0.  1.
         11    1    6    6    0    0  0.42279757877E+01  0.47878188966E+01  0.26463000044E+02  0.27222956496E+02  0.00000000000E+00 0. -1.
        -12    1    6    6    0    0 -0.33934388778E+02 -0.12439341413E+02 -0.49069781653E+02  0.60943608590E+02  0.00000000000E+00 0.  1.
</event>
<event>
12    1  0.8691829E-002  0.2038542E+03  0.7818608E-02  0.1147007E+00
         21   -1    0    0  501  502  0.00000000000E+00  0.00000000000E+00  0.29122242407E+03  0.29122242407E+03  0.00000000000E+00 0. -1.
         21   -1    0    0  502  503 -0.00000000000E+00 -0.00000000000E+00 -0.28246159739E+03  0.28246159739E+03  0.00000000000E+00 0. -1.
         -6    2    1    2    0  503 -0.56513394516E+02 -0.91337747959E+02 -0.19854086422E+03  0.28456110306E+03  0.17326337941E+03 0.  0.
        -24    2    3    3    0    0 -0.82781562515E+02 -0.15292739533E+02 -0.76547314241E+02  0.13835106170E+03  0.78707496350E+02 0.  0.
          6    2    1    2  501    0  0.56513394516E+02  0.91337747959E+02  0.20730169090E+03  0.28912291840E+03  0.17053364163E+03 0.  0.
         24    2    5    5    0    0  0.96001419403E+02  0.66583807976E+02  0.11349100867E+03  0.18426780047E+03  0.86166914936E+02 0.  0.
          5    1    5    5  501    0 -0.39488024887E+02  0.24753939984E+02  0.93810682231E+02  0.10485511792E+03  0.47000000000E+01 0. -1.
        -13    1    6    6    0    0  0.20365930510E+02  0.32511007138E+02 -0.59735392588E+01  0.38825505560E+02  0.00000000000E+00 0.  1.
         14    1    6    6    0    0  0.75635488892E+02  0.34072800837E+02  0.11946454793E+03  0.14544229491E+03  0.00000000000E+00 0. -1.
         -5    1    3    3    0  503  0.26268167999E+02 -0.76045008427E+02 -0.12199354998E+03  0.14621004136E+03  0.47000000000E+01 0.  1.
         11    1    4    4    0    0 -0.33257584941E+02 -0.41553764625E+02 -0.15420389127E+02  0.55412730590E+02  0.00000000000E+00 0. -1.
        -12    1    4    4    0    0 -0.49523977574E+02  0.26261025092E+02 -0.61126925114E+02  0.82938331112E+02  0.00000000000E+00 0.  1.
</event>
<event>
12    1  0.8691829E-002  0.2294756E+03  0.7818608E-02  0.1128098E+00
         21   -1    0    0  501  502  0.00000000000E+00  0.00000000000E+00  0.34448556071E+03  0.34448556071E+03  0.00000000000E+00 0.  1.
         21   -1    0    0  502  503 -0.00000000000E+00 -0.00000000000E+00 -0.24342205005E+03  0.24342205005E+03  0.00000000000E+00 0. -1.
         -6    2    1    2    0  503  0.13323643284E+03 -0.36936331623E+02 -0.13310538432E+03  0.26004466950E+03  0.17547064475E+03 0.  0.
        -24    2    3    3    0    0  0.27987588053E+02 -0.41708364404E+02 -0.12143730716E+03  0.15393941209E+03  0.80171255930E+02 0.  0.
          6    2    1    2  501    0 -0.13323643284E+03  0.36936331623E+02  0.23416889498E+03  0.32786294127E+03  0.18314692804E+03 0.  0.
         24    2    5    5    0    0 -0.76449015489E+00  0.29016063095E+02  0.44343123683E+02  0.96200558258E+02  0.80285231696E+02 0.  0.
          5    1    5    5  501    0 -0.13247194268E+03  0.79202685286E+01  0.18982577130E+03  0.23166238301E+03  0.47000000000E+01 0. -1.
        -13    1    6    6    0    0 -0.77865610453E+01  0.18741462969E+02  0.67187816210E+02  0.70186007253E+02  0.00000000000E+00 0.  1.
         14    1    6    6    0    0  0.70220708904E+01  0.10274600126E+02 -0.22844692527E+02  0.26014551005E+02  0.00000000000E+00 0. -1.
         -5    1    3    3    0  503  0.10524884478E+03  0.47720327807E+01 -0.11668077163E+02  0.10610525741E+03  0.47000000000E+01 0.  1.
         13    1    4    4    0    0  0.44904063148E+02  0.31300092683E+01 -0.44493292230E+02  0.63291586318E+02  0.00000000000E+00 0. -1.
        -14    1    4    4    0    0 -0.16916475095E+02 -0.44838373672E+02 -0.76944014927E+02  0.90647825767E+02  0.00000000000E+00 0.  1.
</event>
<event>
12    1  0.8691829E-002  0.1895774E+03  0.7818608E-02  0.1159736E+00
         21   -1    0    0  503  502  0.00000000000E+00  0.00000000000E+00  0.15954116848E+03  0.15954116848E+03  0.00000000000E+00 0.  1.
         21   -1    0    0  501  503 -0.00000000000E+00 -0.00000000000E+00 -0.37147719092E+03  0.37147719092E+03  0.00000000000E+00 0. -1.
          6    2    1    2  501    0  0.44817437341E+02  0.54034412347E+02 -0.27448796305E+03  0.33138786022E+03  0.17188935871E+03 0.  0.
         24    2    3    3    0    0 -0.42067140677E+02  0.32510162081E+02 -0.12987915084E+03  0.16125255579E+03  0.79418121124E+02 0.  0.
         -6    2    1    2    0  502 -0.44817437341E+02 -0.54034412347E+02  0.62551940598E+02  0.19963049918E+03  0.17610017184E+03 0.  0.
        -24    2    5    5    0    0 -0.98350292516E+02 -0.35702483449E+02  0.57994796132E+02  0.14266837346E+03  0.77739443303E+02 0.  0.
          5    1    3    3  501    0  0.86884578018E+02  0.21524250266E+02 -0.14460881221E+03  0.17013530444E+03  0.47000000000E+01 0. -1.
        -13    1    4    4    0    0 -0.41314012341E+02 -0.10960088169E+02 -0.99271745649E+02  0.10808261022E+03  0.00000000000E+00 0.  1.
         14    1    4    4    0    0 -0.75312833630E+00  0.43470250250E+02 -0.30607405186E+02  0.53169945565E+02  0.00000000000E+00 0. -1.
         -5    1    5    5    0  502  0.53532855176E+02 -0.18331928898E+02  0.45571444656E+01  0.56962125716E+02  0.47000000000E+01 0.  1.
         11    1    6    6    0    0 -0.64553245628E+02 -0.25692003958E+02 -0.58663417249E+01  0.69725279159E+02  0.00000000000E+00 0. -1.
        -12    1    6    6    0    0 -0.33797046888E+02 -0.10010479491E+02  0.63861137857E+02  0.72943094302E+02  0.00000000000E+00 0.  1.
</event>
<event>
12    1  0.8691829E-002  0.3656845E+03  0.7818608E-02  0.1056364E+00
         21   -1    0    0  501  502  0.00000000000E+00  0.00000000000E+00  0.24440415819E+03  0.24440415819E+03  0.00000000000E+00 0.  1.
         21   -1    0    0  502  503 -0.00000000000E+00 -0.00000000000E+00 -0.54705036132E+03  0.54705036132E+03  0.00000000000E+00 0.  1.
         -6    2    1    2    0  503 -0.32143836386E+02 -0.32070718316E+03 -0.15410596996E+03  0.39675292687E+03  0.17256277539E+03 0.  0.
        -24    2    3    3    0    0 -0.10241820437E+02 -0.10564313546E+03 -0.11674580041E+03  0.17732158183E+03  0.80919679389E+02 0.  0.
          6    2    1    2  501    0  0.32143836386E+02  0.32070718316E+03 -0.14854023317E+03  0.39470159264E+03  0.17273917567E+03 0.  0.
         24    2    5    5    0    0 -0.11909224185E+02  0.70914333351E+02 -0.68001742239E+02  0.12853307744E+03  0.82011235525E+02 0.  0.
          5    1    5    5  501    0  0.44053060571E+02  0.24979284981E+03 -0.80538490930E+02  0.26616851520E+03  0.47000000000E+01 0. -1.
        -11    1    6    6    0    0 -0.25258437451E+02  0.85523504387E+02 -0.57795966348E+02  0.10626679722E+03  0.00000000000E+00 0.  1.
         12    1    6    6    0    0  0.13349213267E+02 -0.14609171035E+02 -0.10205775891E+02  0.22266280217E+02  0.00000000000E+00 0. -1.
         -5    1    3    3    0  503 -0.21902015949E+02 -0.21506404770E+03 -0.37360169549E+02  0.21943134504E+03  0.47000000000E+01 0.  1.
         13    1    4    4    0    0 -0.41249991070E+02 -0.82350841290E+02 -0.65338215015E+02  0.11292610489E+03  0.00000000000E+00 0. -1.
        -14    1    4    4    0    0  0.31008170633E+02 -0.23292294174E+02 -0.51407585397E+02  0.64395476939E+02  0.00000000000E+00 0.  1.
</event>
<event>
12    1  0.8691829E-002  0.2125800E+03  0.7818608E-02  0.1139613E+00
         21   -1    0    0  501  502  0.00000000000E+00  0.00000000000E+00  0.60583283860E+02  0.60583283860E+02  0.00000000000E+00 0.  1.
         21   -1    0    0  502  503 -0.00000000000E+00 -0.00000000000E+00 -0.10332309561E+04  0.10332309561E+04  0.00000000000E+00 0. -1.
         -6    2    1    2    0  503 -0.81979932092E+02  0.95216687749E+02 -0.77507265713E+03  0.80359680045E+03  0.17100662845E+03 0.  0.
        -24    2    3    3    0    0 -0.13958313245E+02  0.69653466050E+02 -0.65536389506E+03  0.66348007536E+03  0.75216591322E+02 0.  0.
          6    2    1    2  501    0  0.81979932092E+02 -0.95216687749E+02 -0.19757501510E+03  0.29021743950E+03  0.17147404674E+03 0.  0.
         24    2    5    5    0    0  0.79330184744E+02 -0.94588698680E+02 -0.73365388736E+02  0.16588909674E+03  0.83044638739E+02 0.  0.
          5    1    5    5  501    0  0.26497473484E+01 -0.62798906834E+00 -0.12420962636E+03  0.12432834275E+03  0.47000000000E+01 0. -1.
        -11    1    6    6    0    0  0.85143660696E+02 -0.83862181611E+02 -0.86827864801E+02  0.14772063690E+03  0.00000000000E+00 0.  1.
         12    1    6    6    0    0 -0.58134759517E+01 -0.10726517070E+02  0.13462476064E+02  0.18168459837E+02  0.00000000000E+00 0. -1.
         -5    1    3    3    0  503 -0.68021618848E+02  0.25563221698E+02 -0.11970876207E+03  0.14011672509E+03  0.47000000000E+01 0.  1.
         13    1    4    4    0    0 -0.13743887362E+02  0.83180365948E+02 -0.46098971865E+03  0.46863566704E+03  0.00000000000E+00 0. -1.
        -14    1    4    4    0    0 -0.21442588326E+00 -0.13526899898E+02 -0.19437417641E+03  0.19484440832E+03  0.00000000000E+00 0.  1.
</event>
<event>
12    1  0.8691829E-002  0.2276529E+03  0.7818608E-02  0.1128340E+00
         21   -1    0    0  503  502  0.00000000000E+00  0.00000000000E+00  0.29150096928E+02  0.29150096928E+02  0.00000000000E+00 0.  1.
         21   -1    0    0  501  503 -0.00000000000E+00 -0.00000000000E+00 -0.21155391718E+04  0.21155391718E+04  0.00000000000E+00 0. -1.
          6    2    1    2  501    0 -0.58805988651E+02 -0.13637746227E+03 -0.61415763433E+03  0.65499268875E+03  0.17253656422E+03 0.  0.
         24    2    3    3    0    0  0.45045397075E+00 -0.11620826565E+03 -0.25965862901E+03  0.29497913726E+03  0.78009767878E+02 0.  0.
         -6    2    1    2    0  502  0.58805988651E+02  0.13637746227E+03 -0.14722314406E+04  0.14896965800E+04  0.17226006318E+03 0.  0.
        -24    2    5    5    0    0  0.64905522527E+02  0.15632702193E+02 -0.72053390185E+03  0.72832427876E+03  0.82644074644E+02 0.  0.
          5    1    3    3  501    0 -0.59256442622E+02 -0.20169196621E+02 -0.35449900532E+03  0.36001355149E+03  0.47000000000E+01 0. -1.
        -11    1    4    4    0    0 -0.30033264883E+02 -0.10018463408E+03 -0.17972519872E+03  0.20794255207E+03  0.00000000000E+00 0.  1.
         12    1    4    4    0    0  0.30483718853E+02 -0.16023631569E+02 -0.79933430291E+02  0.87036585192E+02  0.00000000000E+00 0. -1.
         -5    1    5    5    0  502 -0.60995338757E+01  0.12074476007E+03 -0.75169753872E+03  0.76137230125E+03  0.47000000000E+01 0.  1.
         11    1    6    6    0    0  0.60758676831E+02  0.18229347581E+02 -0.25523586834E+03  0.26300052170E+03  0.00000000000E+00 0. -1.
        -12    1    6    6    0    0  0.41468456960E+01 -0.25966453872E+01 -0.46529803351E+03  0.46532375706E+03  0.00000000000E+00 0.  1.
</event>
<event>
12    1  0.8691829E-002  0.2191038E+03  0.7818608E-02  0.1134725E+00
         21   -1    0    0  501  502  0.00000000000E+00  0.00000000000E+00  0.10825004492E+03  0.10825004492E+03  0.00000000000E+00 0. -1.
         21   -1    0    0  502  503 -0.00000000000E+00 -0.00000000000E+00 -0.46259229711E+03  0.46259229711E+03  0.00000000000E+00 0.  1.
         -6    2    1    2    0  503 -0.95485134861E+01 -0.13741137752E+03 -0.11605786758E+03  0.24713579984E+03  0.16921469839E+03 0.  0.
        -24    2    3    3    0    0 -0.54533980913E+02 -0.38643023814E+02 -0.25368074501E+02  0.10562393269E+03  0.77753698242E+02 0.  0.
          6    2    1    2  501    0  0.95485134861E+01  0.13741137752E+03 -0.23828438461E+03  0.32370654220E+03  0.17039195031E+03 0.  0.
         24    2    5    5    0    0 -0.24432577624E+02  0.35115833769E+02 -0.42690733760E+02  0.10032780759E+03  0.80081818132E+02 0.  0.
          5    1    5    5  501    0  0.33981091110E+02  0.10229554375E+03 -0.19559365085E+03  0.22337873461E+03  0.47000000000E+01 0. -1.
        -13    1    6    6    0    0 -0.33440034785E+02  0.49133938919E+02 -0.53909066447E+02  0.80240683730E+02  0.00000000000E+00 0.  1.
         14    1    6    6    0    0  0.90074571615E+01 -0.14018105150E+02  0.11218332687E+02  0.20087123856E+02  0.00000000000E+00 0. -1.
         -5    1    3    3    0  503  0.44985467427E+02 -0.98768353705E+02 -0.90689793078E+02  0.14151186714E+03  0.47000000000E+01 0.  1.
         11    1    4    4    0    0 -0.32319772737E+02 -0.44161773881E+02  0.17138736550E+02  0.57346022292E+02  0.00000000000E+00 0. -1.
        -12    1    4    4    0    0 -0.22214208176E+02  0.55187500677E+01 -0.42506811051E+02  0.48277910403E+02  0.00000000000E+00 0.  1.
</event>
<event>
12    1  0.8691829E-002  0.4439311E+03  0.7818608E-02  0.1029600E+00
         21   -1    0    0  501  502  0.00000000000E+00  0.00000000000E+00  0.97402357398E+03  0.97402357398E+03  0.00000000000E+00 0.  1.
         21   -1    0    0  502  503 -0.00000000000E+00 -0.00000000000E+00 -0.21974364546E+03  0.21974364546E+03  0.00000000000E+00 0. -1.
         -6    2    1    2    0  503 -0.39305737470E+03  0.11368582205E+03  0.20734038259E+03  0.48933998220E+03  0.17042598976E+03 0.  0.
        -24    2    3    3    0    0 -0.29916168043E+03  0.67920849534E+02  0.21715536368E+03  0.38431970814E+03  0.80213672440E+02 0.  0.
          6    2    1    2  501    0  0.39305737470E+03 -0.11368582205E+03  0.54693954592E+03  0.70442723724E+03  0.17221004539E+03 0.  0.
         24    2    5    5    0    0  0.32198536175E+03 -0.92888555274E+02  0.33706652255E+03  0.48182325419E+03  0.78974367827E+02 0.  0.
          5    1    5    5  501    0  0.71072012946E+02 -0.20797266777E+02  0.20987302337E+03  0.22260398305E+03  0.47000000000E+01 0. -1.
        -11    1    6    6    0    0  0.13878949058E+03 -0.53201652311E+02  0.20196481384E+03  0.25076428082E+03  0.00000000000E+00 0.  1.
         12    1    6    6    0    0  0.18319587117E+03 -0.39686902963E+02  0.13510170871E+03  0.23105897338E+03  0.00000000000E+00 0. -1.
         -5    1    3    3    0  503 -0.93895694265E+02  0.45764972517E+02 -0.98149810838E+01  0.10502027406E+03  0.47000000000E+01 0.  1.
         11    1    4    4    0    0 -0.16434449863E+03  0.15949532638E+02  0.74059139653E+02  0.18096479765E+03  0.00000000000E+00 0. -1.
        -12    1    4    4    0    0 -0.13481718180E+03  0.51971316896E+02  0.14309622402E+03  0.20335491048E+03  0.00000000000E+00 0.  1.
</event>
<event>
12    1  0.8691829E-002  0.2011173E+03  0.7818608E-02  0.1149205E+00
         21   -1    0    0  503  502  0.00000000000E+00  0.00000000000E+00  0.16335429564E+04  0.16335429564E+04  0.00000000000E+00 0.  1.
         21   -1    0    0  501  503 -0.00000000000E+00 -0.00000000000E+00 -0.25161579022E+02  0.25161579022E+02  0.00000000000E+00 0.  1.
          6    2    1    2  501    0  0.84900100395E+02  0.61664218744E+02  0.66845840759E+03  0.69750560881E+03  0.16931310855E+03 0.  0.
         24    2    3    3    0    0  0.10847267637E+03  0.30497915691E+02  0.32547273133E+03  0.35226906830E+03  0.73922616708E+02 0.  0.
         -6    2    1    2    0  502 -0.84900100395E+02 -0.61664218744E+02  0.93992296981E+03  0.96119892663E+03  0.17157413693E+03 0.  0.
        -24    2    5    5    0    0 -0.12592487835E+01 -0.69934844317E+02  0.33955737712E+03  0.35496041731E+03  0.76191976873E+02 0.  0.
          5    1    3    3  501    0 -0.23572575978E+02  0.31166303053E+02  0.34298567626E+03  0.34523654051E+03  0.47000000000E+01 0. -1.
        -11    1    4    4    0    0 -0.66440032129E+01 -0.63316709207E+01  0.58447852994E+02  0.59164046134E+02  0.00000000000E+00 0.  1.
         12    1    4    4    0    0  0.11511667959E+03  0.36829586612E+02  0.26702487834E+03  0.29310502217E+03  0.00000000000E+00 0. -1.
         -5    1    5    5    0  502 -0.83640851612E+02  0.82706255728E+01  0.60036559269E+03  0.60623850932E+03  0.47000000000E+01 0.  1.
         13    1    6    6    0    0 -0.78938292945E+01 -0.27226215452E+02  0.27968389294E+03  0.28111680725E+03  0.00000000000E+00 0. -1.
        -14    1    6    6    0    0  0.66345805110E+01 -0.42708628865E+02  0.59873484181E+02  0.73843610056E+02  0.00000000000E+00 0.  1.
</event>
<event>
12    1  0.8691829E-002  0.1917264E+03  0.7818608E-02  0.1157484E+00
         21   -1    0    0  501  502  0.00000000000E+00  0.00000000000E+00  0.12828264639E+03  0.12828264639E+03  0.00000000000E+00 0.  1.
         21   -1    0    0  502  503 -0.00000000000E+00 -0.00000000000E+00 -0.28283724228E+03  0.28283724228E+03  0.00000000000E+00 0.  1.
         -6    2    1    2    0  503  0.24163619033E+02  0.73757421033E+02 -0.81119876353E+02  0.20818127738E+03  0.17531392491E+03 0.  0.
        -24    2    3    3    0    0  0.16305417283E+02 -0.12093459794E+02 -0.90627863083E+02  0.12132152326E+03  0.78060130904E+02 0.  0.
          6    2    1    2  501    0 -0.24163619033E+02 -0.73757421033E+02 -0.73434719538E+02  0.20293861129E+03  0.17253227024E+03 0.  0.
         24    2    5    5    0    0  0.29205736847E+02 -0.33267022652E+02 -0.95779666797E+02  0.13216328242E+03  0.79584664277E+02 0.  0.
          5    1    5    5  501    0 -0.53369355880E+02 -0.40490398380E+02  0.22344947260E+02  0.70775328865E+02  0.47000000000E+01 0. -1.
        -11    1    6    6    0    0 -0.12384807279E+02 -0.45795321029E+02 -0.45716519328E+02  0.65883192234E+02  0.00000000000E+00 0.  1.
         12    1    6    6    0    0  0.41590544125E+02  0.12528298377E+02 -0.50063147469E+02  0.66280090189E+02  0.00000000000E+00 0. -1.
         -5    1    3    3    0  503  0.78582017499E+01  0.85850880827E+02  0.95079867299E+01  0.86859754116E+02  0.47000000000E+01 0.  1.
         11    1    4    4    0    0  0.42399619743E+02 -0.12682277294E+02 -0.83111597612E+02  0.94159999837E+02  0.00000000000E+00 0. -1.
        -12    1    4    4    0    0 -0.26094202460E+02  0.58881749984E+00 -0.75162654708E+01  0.27161523423E+02  0.00000000000E+00 0.  1.
</event>
<event>
12    1  0.8691829E-002  0.2204322E+03  0.7818608E-02  0.1133774E+00
         21   -1    0    0  503  502  0.00000000000E+00  0.00000000000E+00  0.99632844210E+03  0.99632844210E+03  0.00000000000E+00 0. -1.
         21   -1    0    0  501  503 -0.00000000000E+00 -0.00000000000E+00 -0.48852354230E+02  0.48852354230E+02  0.00000000000E+00 0. -1.
          6    2    1    2  501    0 -0.57784240823E+02 -0.12678910387E+03  0.51822950890E+03  0.56316265485E+03  0.17080941597E+03 0.  0.
         24    2    3    3    0    0 -0.62274852481E+01 -0.26346936395E+02  0.10635864451E+03  0.13607200056E+03  0.80439327725E+02 0.  0.
         -6    2    1    2    0  502  0.57784240823E+02  0.12678910387E+03  0.42924657897E+03  0.48201814147E+03  0.16933507553E+03 0.  0.
        -24    2    5    5    0    0 -0.90482825438E+01  0.15830487973E+02  0.41743793977E+02  0.73412097713E+02  0.57570096305E+02 0.  0.
          5    1    3    3  501    0 -0.51556755575E+02 -0.10044216747E+03  0.41187086439E+03  0.42709065429E+03  0.47000000000E+01 0. -1.
        -13    1    4    4    0    0 -0.68092894988E-01  0.28612553173E+02  0.26973615337E+02  0.39322496870E+02  0.00000000000E+00 0.  1.
         14    1    4    4    0    0 -0.61593923532E+01 -0.54959489569E+02  0.79385029171E+02  0.96749503690E+02  0.00000000000E+00 0. -1.
         -5    1    5    5    0  502  0.66832523367E+02  0.11095861589E+03  0.38750278499E+03  0.40860604376E+03  0.47000000000E+01 0.  1.
         13    1    6    6    0    0 -0.42070130952E+01  0.21338739950E+02 -0.79673975063E+01  0.23162905795E+02  0.00000000000E+00 0. -1.
        -14    1    6    6    0    0 -0.48412694486E+01 -0.55082519771E+01  0.49711191484E+02  0.50249191918E+02  0.00000000000E+00 0.  1.
</event>
<event>
12    1  0.8691829E-002  0.2077556E+03  0.7818608E-02  0.1143973E+00
         21   -1    0    0  503  502  0.00000000000E+00  0.00000000000E+00  0.24686729268E+03  0.24686729268E+03  0.00000000000E+00 0. -1.
         21   -1    0    0  501  503 -0.00000000000E+00 -0.00000000000E+00 -0.56192664937E+03  0.56192664937E+03  0.00000000000E+00 0. -1.
          6    2    1    2  501    0 -0.10024481102E+03 -0.59439889396E+02 -0.49462998442E+03  0.53648971159E+03  0.17198914666E+03 0.  0.
         24    2    3    3    0    0 -0.14379705693E+02  0.40799782560E+01 -0.10902719188E+03  0.13634074744E+03  0.80488810924E+02 0.  0.
         -6    2    1    2    0  502  0.10024481102E+03  0.59439889396E+02  0.17957062773E+03  0.27230423046E+03  0.16829100093E+03 0.  0.
        -24    2    5    5    0    0  0.53295092691E+02 -0.30751845789E+02  0.11679054438E+03  0.15271219890E+03  0.76778522467E+02 0.  0.
          5    1    3    3  501    0 -0.85865105323E+02 -0.63519867652E+02 -0.38560279254E+03  0.40014896416E+03  0.47000000000E+01 0. -1.
        -11    1    4    4    0    0 -0.34603028446E+01 -0.38118421134E+02 -0.50561746057E+02  0.63415123511E+02  0.00000000000E+00 0.  1.
         12    1    4    4    0    0 -0.10919402849E+02  0.42198399390E+02 -0.58465445824E+02  0.72925623927E+02  0.00000000000E+00 0. -1.
         -5    1    5    5    0  502  0.46949718326E+02  0.90191735185E+02  0.62780083347E+02  0.11959203156E+03  0.47000000000E+01 0.  1.
         11    1    6    6    0    0  0.44427518750E+02 -0.58403314506E+01  0.11802054014E+03  0.12624088794E+03  0.00000000000E+00 0. -1.
        -12    1    6    6    0    0  0.88675739405E+01 -0.24911514338E+02 -0.12299957601E+01  0.26471310957E+02  0.00000000000E+00 0.  1.
</event>
<event>
12    1  0.8691829E-002  0.2076265E+03  0.7818608E-02  0.1143495E+00
         21   -1    0    0  501  502  0.00000000000E+00  0.00000000000E+00  0.26738798011E+03  0.26738798011E+03  0.00000000000E+00 0.  1.
         21   -1    0    0  502  503 -0.00000000000E+00 -0.00000000000E+00 -0.35209409469E+03  0.35209409469E+03  0.00000000000E+00 0. -1.
         -6    2    1    2    0  503  0.64598483179E+02  0.97681757503E+02 -0.27048146306E+03  0.34087618194E+03  0.17123568487E+03 0.  0.
        -24    2    3    3    0    0  0.54830505093E+02  0.85503737533E+02 -0.28869962180E+03  0.31642809665E+03  0.80386536817E+02 0.  0.
          6    2    1    2  501    0 -0.64598483179E+02 -0.97681757503E+02  0.18577534848E+03  0.27860589286E+03  0.17144699954E+03 0.  0.
         24    2    5    5    0    0  0.22006600997E+02 -0.80637007338E+02  0.13323299460E+03  0.17577713683E+03  0.78485371528E+02 0.  0.
          5    1    5    5  501    0 -0.86605084177E+02 -0.17044750165E+02  0.52542353886E+02  0.10282875602E+03  0.47000000000E+01 0. -1.
        -11    1    6    6    0    0  0.28554123159E+02 -0.69716153490E+02  0.47407199495E+02  0.89011923756E+02  0.00000000000E+00 0.  1.
         12    1    6    6    0    0 -0.65475221616E+01 -0.10920853848E+02  0.85825795103E+02  0.86765213077E+02  0.00000000000E+00 0. -1.
         -5    1    3    3    0  503  0.97679780857E+01  0.12178019971E+02  0.18218158739E+02  0.24448085285E+02  0.47000000000E+01 0.  1.
         11    1    4    4    0    0  0.40827034753E+02  0.31156767710E+02 -0.22819286932E+03  0.23390078356E+03  0.00000000000E+00 0. -1.
        -12    1    4    4    0    0  0.14003470340E+02  0.54346969822E+02 -0.60506752481E+02  0.82527313092E+02  0.00000000000E+00 0.  1.
</event>
<event>
12    1  0.8691829E-002  0.2668018E+03  0.7818608E-02  0.1103127E+00
         21   -1    0    0  501  502  0.00000000000E+00  0.00000000000E+00  0.14727830526E+03  0.14727830526E+03  0.00000000000E+00 0.  1.
         21   -1    0    0  502  503 -0.00000000000E+00 -0.00000000000E+00 -0.56426487656E+03  0.56426487656E+03  0.00000000000E+00 0. -1.
         -6    2    1    2    0  503  0.13332295787E+03  0.15436111101E+03 -0.34326221812E+03  0.43474277241E+03  0.17195919308E+03 0.  0.
        -24    2    3    3    0    0  0.16132717297E+03  0.10593837673E+03 -0.29446736550E+03  0.36036518909E+03  0.76828664943E+02 0.  0.
          6    2    1    2  501    0 -0.13332295787E+03 -0.15436111101E+03 -0.73724353183E+02  0.27680040942E+03  0.17199076346E+03 0.  0.
         24    2    5    5    0    0 -0.15165896610E+03 -0.16626770931E+03 -0.52873660839E+02  0.24622562157E+03  0.84770511102E+02 0.  0.
          5    1    5    5  501    0  0.18336008225E+02  0.11906598297E+02 -0.20850692344E+02  0.30574787846E+02  0.47000000000E+01 0. -1.
        -11    1    6    6    0    0 -0.53107977938E+02 -0.98924281968E+01 -0.17827898744E+00  0.54021747840E+02  0.00000000000E+00 0.  1.
         12    1    6    6    0    0 -0.98550988160E+02 -0.15637528111E+03 -0.52695381851E+02  0.19220387373E+03  0.00000000000E+00 0. -1.
         -5    1    3    3    0  503 -0.28004215099E+02  0.48422734281E+02 -0.48794852616E+02  0.74377583319E+02  0.47000000000E+01 0.  1.
         11    1    4    4    0    0  0.16255259667E+03  0.11437092887E+03 -0.28655155425E+03  0.34873464023E+03  0.00000000000E+00 0. -1.
        -12    1    4    4    0    0 -0.12254237009E+01 -0.84325521412E+01 -0.79158112538E+01  0.11630548855E+02  0.00000000000E+00 0.  1.
</event>
<event>
12    1  0.8691829E-002  0.1861824E+03  0.7818608E-02  0.1162013E+00
         21   -1    0    0  503  502  0.00000000000E+00  0.00000000000E+00  0.22265801290E+03  0.22265801290E+03  0.00000000000E+00 0. -1.
         21   -1    0    0  501  503 -0.00000000000E+00 -0.00000000000E+00 -0.16082044079E+03  0.16082044079E+03  0.00000000000E+00 0. -1.
          6    2    1    2  501    0 -0.55891434503E+02  0.44415290266E+02 -0.41259532919E+01  0.18595613807E+03  0.17165690005E+03 0.  0.
         24    2    3    3    0    0 -0.14520953681E+02 -0.33542760875E+02 -0.31254595923E+02  0.93506001929E+02  0.80190696016E+02 0.  0.
         -6    2    1    2    0  502  0.55891434503E+02 -0.44415290266E+02  0.65963525398E+02  0.19752231562E+03  0.17195146997E+03 0.  0.
        -24    2    5    5    0    0  0.94950073613E+02 -0.66259056078E+02  0.48953569156E+02  0.14941664023E+03  0.80765719537E+02 0.  0.
          5    1    3    3  501    0 -0.41370480822E+02  0.77958051141E+02  0.27128642631E+02  0.92450136139E+02  0.47000000000E+01 0. -1.
        -13    1    4    4    0    0  0.61964345979E+01 -0.41269931799E+02  0.13271444388E+02  0.43791943421E+02  0.00000000000E+00 0.  1.
         14    1    4    4    0    0 -0.20717388279E+02  0.77271709239E+01 -0.44526040311E+02  0.49714058508E+02  0.00000000000E+00 0. -1.
         -5    1    5    5    0  502 -0.39058639110E+02  0.21843765812E+02  0.17009956241E+02  0.48105675396E+02  0.47000000000E+01 0.  1.
         13    1    6    6    0    0  0.54556369577E+01 -0.49736855054E+02  0.14338956391E+02  0.52049249712E+02  0.00000000000E+00 0. -1.
        -14    1    6    6    0    0  0.89494436655E+02 -0.16522201024E+02  0.34614612766E+02  0.97367390515E+02  0.00000000000E+00 0.  1.
</event>
<event>
12    1  0.8691829E-002  0.2084423E+03  0.7818608E-02  0.1144667E+00
         21   -1    0    0  503  502  0.00000000000E+00  0.00000000000E+00  0.22979339974E+03  0.22979339974E+03  0.00000000000E+00 0.  1.
         21   -1    0    0  501  503 -0.00000000000E+00 -0.00000000000E+00 -0.25052700641E+03  0.25052700641E+03  0.00000000000E+00 0. -1.
          6    2    1    2  501    0 -0.60940732394E+02 -0.10110736656E+03 -0.13710207672E+03  0.24948984010E+03  0.17178977977E+03 0.  0.
         24    2    3    3    0    0 -0.92342887627E-01 -0.11345354571E+03 -0.61172556134E+02  0.15129443928E+03  0.79222535752E+02 0.  0.
         -6    2    1    2    0  502  0.60940732394E+02  0.10110736656E+03  0.11636847006E+03  0.23083056605E+03  0.16063827987E+03 0.  0.
        -24    2    5    5    0    0  0.30216563133E+02  0.36474781657E+02  0.12755490759E+03  0.15824563654E+03  0.80795895005E+02 0.  0.
          5    1    3    3  501    0 -0.60848389507E+02  0.12346179157E+02 -0.75929520591E+02  0.98195400821E+02  0.47000000000E+01 0. -1.
        -13    1    4    4    0    0  0.22207923225E+02 -0.11662378153E+02  0.78728508971E+01  0.26290391770E+02  0.00000000000E+00 0.  1.
         14    1    4    4    0    0 -0.22300266112E+02 -0.10179116756E+03 -0.69045407031E+02  0.12500404751E+03  0.00000000000E+00 0. -1.
         -5    1    5    5    0  502  0.30724169261E+02  0.64632584900E+02 -0.11186437522E+02  0.72584929511E+02  0.47000000000E+01 0.  1.
         11    1    6    6    0    0 -0.12036538308E+02  0.14514062180E+02 -0.31676110127E+01  0.19119885327E+02  0.00000000000E+00 0. -1.
        -12    1    6    6    0    0  0.42253101441E+02  0.21960719477E+02  0.13072251860E+03  0.13912575121E+03  0.00000000000E+00 0.  1.
</event>
<event>
12    1  0.8691829E-002  0.3359050E+03  0.7818608E-02  0.1068815E+00
         21   -1    0    0  501  502  0.00000000000E+00  0.00000000000E+00  0.88898347829E+02  0.88898347829E+02  0.00000000000E+00 0.  1.
         21   -1    0    0  502  503 -0.00000000000E+00 -0.00000000000E+00 -0.12966022338E+04  0.12966022338E+04  0.00000000000E+00 0.  1.
         -6    2    1    2    0  503  0.24430267537E+03  0.15397706308E+03 -0.72214747395E+03  0.79644784751E+03  0.17157933011E+03 0.  0.
        -24    2    3    3    0    0  0.17969759301E+03  0.89284485053E+02 -0.63242218710E+03  0.66826179749E+03  0.79706104201E+02 0.  0.
          6    2    1    2  501    0 -0.24430267537E+03 -0.15397706308E+03 -0.48555641198E+03  0.58905273408E+03  0.16680935575E+03 0.  0.
         24    2    5    5    0    0 -0.16026977361E+03 -0.17020972127E+03 -0.34221439322E+03  0.42203760868E+03  0.79669960892E+02 0.  0.
          5    1    5    5  501    0 -0.84032901759E+02  0.16232658185E+02 -0.14334201876E+03  0.16701512540E+03  0.47000000000E+01 0. -1.
        -11    1    6    6    0    0 -0.12133107441E+03 -0.14571826715E+03 -0.31751505605E+03  0.36982543695E+03  0.00000000000E+00 0.  1.
         12    1    6    6    0    0 -0.38938699202E+02 -0.24491454118E+02 -0.24699337175E+02  0.52212171735E+02  0.00000000000E+00 0. -1.
         -5    1    3    3    0  503  0.64605082356E+02  0.64692578027E+02 -0.89725286851E+02  0.12818605002E+03  0.47000000000E+01 0.  1.
         13    1    4    4    0    0  0.15926945668E+03  0.60287088506E+02 -0.42536643394E+03  0.45818980346E+03  0.00000000000E+00 0. -1.
        -14    1    4    4    0    0  0.20428136333E+02  0.28997396547E+02 -0.20705575316E+03  0.21007199404E+03  0.00000000000E+00 0.  1.
</event>
<event>
12    1  0.8691829E-002  0.1799963E+03  0.7818608E-02  0.1167964E+00
         21   -1    0    0  501  502  0.00000000000E+00  0.00000000000E+00  0.14280837122E+03  0.14280837122E+03  0.00000000000E+00 0. -1.
         21   -1    0    0  502  503 -0.00000000000E+00 -0.00000000000E+00 -0.27959982064E+03  0.27959982064E+03  0.00000000000E+00 0. -1.
         -6    2    1    2    0  503  0.32163703660E+02  0.37389662586E+02 -0.16072571773E+03  0.24082760877E+03  0.17243169693E+03 0.  0.
        -24    2    3    3    0    0  0.54071564178E+02  0.86206025737E+02 -0.93960214912E+02  0.15513797095E+03  0.69886015176E+02 0.  0.
          6    2    1    2  501    0 -0.32163703660E+02 -0.37389662586E+02  0.23934268305E+02  0.18158058309E+03  0.17310738937E+03 0.  0.
         24    2    5    5    0    0  0.31925541671E+02 -0.26279883282E+02 -0.31984955588E+02  0.95674191220E+02  0.80128902435E+02 0.  0.
          5    1    5    5  501    0 -0.64089245331E+02 -0.11109779304E+02  0.55919223893E+02  0.85906391869E+02  0.47000000000E+01 0. -1.
        -11    1    6    6    0    0  0.26488358911E+02  0.23858763644E+02  0.55756028100E+00  0.35653676302E+02  0.00000000000E+00 0.  1.
         12    1    6    6    0    0  0.54371827602E+01 -0.50138646926E+02 -0.32542515869E+02  0.60020514918E+02  0.00000000000E+00 0. -1.
         -5    1    3    3    0  503 -0.21907860518E+02 -0.48816363151E+02 -0.66765502813E+02  0.85689637820E+02  0.47000000000E+01 0.  1.
         11    1    4    4    0    0  0.44973508428E+02  0.25646723190E+02 -0.12559481305E+02  0.53273928345E+02  0.00000000000E+00 0. -1.
        -12    1    4    4    0    0  0.90980557505E+01  0.60559302547E+02 -0.81400733606E+02  0.10186404260E+03  0.00000000000E+00 0.  1.
</event>
<event>
12    1  0.8691829E-002  0.1799367E+03  0.7818608E-02  0.1169262E+00
         21   -1    0    0  501  502  0.00000000000E+00  0.00000000000E+00  0.53488288087E+03  0.53488288087E+03  0.00000000000E+00 0.  1.
         21   -1    0    0  502  503 -0.00000000000E+00 -0.00000000000E+00 -0.64696267474E+02  0.64696267474E+02  0.00000000000E+00 0.  1.
         -6    2    1    2    0  503  0.99737471068E+01 -0.49369495859E+02  0.32341366080E+03  0.36737336022E+03  0.16682316103E+03 0.  0.
        -24    2    3    3    0    0  0.24702482668E+02 -0.20855021229E+02  0.32372142624E+03  0.33493579505E+03  0.79632157069E+02 0.  0.
          6    2    1    2  501    0 -0.99737471068E+01  0.49369495859E+02  0.14677295260E+03  0.23220578812E+03  0.17274375726E+03 0.  0.
         24    2    5    5    0    0 -0.11951388835E+02  0.98628632536E+02  0.11571795137E+03  0.17375173169E+03  0.83238075079E+02 0.  0.
          5    1    5    5  501    0  0.19776417279E+01 -0.49259136677E+02  0.31055001224E+02  0.58454056437E+02  0.47000000000E+01 0. -1.
        -13    1    6    6    0    0  0.59948729332E+01  0.80958044631E+02  0.33600166703E+02  0.87858492444E+02  0.00000000000E+00 0.  1.
         14    1    6    6    0    0 -0.17946261768E+02  0.17670587905E+02  0.82117784670E+02  0.85893239242E+02  0.00000000000E+00 0. -1.
         -5    1    3    3    0  503 -0.14728735561E+02 -0.28514474630E+02 -0.30776543868E+00  0.32437565171E+02  0.47000000000E+01 0.  1.
         13    1    4    4    0    0  0.66857946112E+01  0.24735037620E+02  0.43715397305E+02  0.50671075548E+02  0.00000000000E+00 0. -1.
        -14    1    4    4    0    0  0.18016688057E+02 -0.45590058850E+02  0.28000602893E+03  0.28426471950E+03  0.00000000000E+00 0.  1.
</event>
<event>
12    1  0.8691829E-002  0.2203069E+03  0.7818608E-02  0.1133892E+00
         21   -1    0    0  501  502  0.00000000000E+00  0.00000000000E+00  0.17002230951E+03  0.17002230951E+03  0.00000000000E+00 0. -1.
         21   -1    0    0  502  503 -0.00000000000E+00 -0.00000000000E+00 -0.28511682782E+03  0.28511682782E+03  0.00000000000E+00 0. -1.
         -6    2    1    2    0  503  0.13128510342E+03  0.16450889317E+02 -0.73066411978E+02  0.23210739515E+03  0.17614974364E+03 0.  0.
        -24    2    3    3    0    0 -0.81677422794E+01  0.10263591804E+02 -0.32736182117E+02  0.86732031813E+02  0.79238465358E+02 0.  0.
          6    2    1    2  501    0 -0.13128510342E+03 -0.16450889317E+02 -0.42028106337E+02  0.22303174218E+03  0.17455768719E+03 0.  0.
         24    2    5    5    0    0 -0.32978242686E+02 -0.75094713604E+01 -0.79294316588E+02  0.11741428032E+03  0.79715543837E+02 0.  0.
          5    1    5    5  501    0 -0.98306860736E+02 -0.89414179570E+01  0.37266210251E+02  0.10561746186E+03  0.47000000000E+01 0. -1.
        -13    1    6    6    0    0 -0.56756809468E+02  0.48643112982E+01 -0.39066689734E+02  0.69073896605E+02  0.00000000000E+00 0.  1.
         14    1    6    6    0    0  0.23778566782E+02 -0.12373782659E+02 -0.40227626854E+02  0.48340383716E+02  0.00000000000E+00 0. -1.
         -5    1    3    3    0  503  0.13945284570E+03  0.61872975138E+01 -0.40330229861E+02  0.14537536334E+03  0.47000000000E+01 0.  1.
         13    1    4    4    0    0  0.17401917267E+02  0.16145695403E+02 -0.49983003757E+02  0.55333632351E+02  0.00000000000E+00 0. -1.
        -14    1    4    4    0    0 -0.25569659546E+02 -0.58821035992E+01  0.17246821641E+02  0.31398399462E+02  0.00000000000E+00 0.  1.
</event>
<event>
12    1  0.8691829E-002  0.2063940E+03  0.7818608E-02  0.1144741E+00
         21   -1    0    0  501  502  0.00000000000E+00  0.00000000000E+00  0.15101136126E+03  0.15101136126E+03  0.00000000000E+00 0.  1.
         21   -1    0    0  502  503 -0.00000000000E+00 -0.00000000000E+00 -0.30636290384E+03  0.30636290384E+03  0.00000000000E+00 0.  1.
         -6    2    1    2    0  503  0.30679243519E+02  0.10700076849E+03 -0.14479600925E+03  0.25211974673E+03  0.17380478116E+03 0.  0.
        -24    2    3    3    0    0  0.38044294741E+02  0.22234792103E+02 -0.27274013488E+00  0.84344361026E+02  0.71917609162E+02 0.  0.
          6    2    1    2  501    0 -0.30679243519E+02 -0.10700076849E+03 -0.10555533342E+02  0.20525451837E+03  0.17212674861E+03 0.  0.
         24    2    5    5    0    0 -0.27666007916E+02 -0.41354307005E+02 -0.71627091599E+02  0.11541932081E+03  0.75601538757E+02 0.  0.
          5    1    5    5  501    0 -0.30132356031E+01 -0.65646461483E+02  0.61071558257E+02  0.89835197567E+02  0.47000000000E+01 0. -1.
        -11    1    6    6    0    0  0.21324489705E+02 -0.21294280800E+02 -0.53698017890E+01  0.30610701188E+02  0.00000000000E+00 0.  1.
         12    1    6    6    0    0 -0.48990497622E+02 -0.20060026206E+02 -0.66257289810E+02  0.84808619618E+02  0.00000000000E+00 0. -1.
         -5    1    3    3    0  503 -0.73650512213E+01  0.84765976385E+02 -0.14452326911E+03  0.16777538570E+03  0.47000000000E+01 0.  1.
         11    1    4    4    0    0 -0.20183740242E+02  0.55974757781E+00  0.78915010689E+01  0.21678848600E+02  0.00000000000E+00 0. -1.
        -12    1    4    4    0    0  0.58228034983E+02  0.21675044525E+02 -0.81642412037E+01  0.62665512426E+02  0.00000000000E+00 0.  1.
</event>
<event>
12    1  0.8691829E-002  0.2130996E+03  0.7818608E-02  0.1139522E+00
         21   -1    0    0  503  502  0.00000000000E+00  0.00000000000E+00  0.83015666909E+03  0.83015666909E+03  0.00000000000E+00 0. -1.
         21   -1    0    0  501  503 -0.00000000000E+00 -0.00000000000E+00 -0.92761540915E+02  0.92761540915E+02  0.00000000000E+00 0. -1.
          6    2    1    2  501    0  0.10679064001E+02 -0.12349337776E+03  0.72157928492E+02  0.22498493780E+03  0.17334012471E+03 0.  0.
         24    2    3    3    0    0  0.12913911635E+01 -0.10113011700E+03 -0.19401253071E+02  0.13015130684E+03  0.79586341759E+02 0.  0.
         -6    2    1    2    0  502 -0.10679064001E+02  0.12349337776E+03  0.66523719969E+03  0.69793327221E+03  0.17089664669E+03 0.  0.
        -24    2    5    5    0    0 -0.45393156254E+02  0.72963485644E+02  0.22601825053E+03  0.25443162227E+03  0.79164335200E+02 0.  0.
          5    1    3    3  501    0  0.93876728379E+01 -0.22363260761E+02  0.91559181563E+02  0.94833630964E+02  0.47000000000E+01 0. -1.
        -13    1    4    4    0    0  0.22361129819E+02  0.29051458163E+01 -0.35610036021E+01  0.22828507303E+02  0.00000000000E+00 0.  1.
         14    1    4    4    0    0 -0.21069738656E+02 -0.10403526282E+03 -0.15840249469E+02  0.10732279953E+03  0.00000000000E+00 0. -1.
         -5    1    5    5    0  502  0.34714092252E+02  0.50529892117E+02  0.43921894916E+03  0.44350164994E+03  0.47000000000E+01 0.  1.
         11    1    6    6    0    0 -0.38547495345E+02  0.24692586185E+02  0.18542002527E+03  0.19098748384E+03  0.00000000000E+00 0. -1.
        -12    1    6    6    0    0 -0.68456609091E+01  0.48270899459E+02  0.40598225255E+02  0.63444138434E+02  0.00000000000E+00 0.  1.
</event>
<event>
12    1  0.8691829E-002  0.1874802E+03  0.7818608E-02  0.1161265E+00
         21   -1    0    0  503  502  0.00000000000E+00  0.00000000000E+00  0.83374086175E+03  0.83374086175E+03  0.00000000000E+00 0. -1.
         21   -1    0    0  501  503 -0.00000000000E+00 -0.00000000000E+00 -0.13556450422E+03  0.13556450422E+03  0.00000000000E+00 0. -1.
          6    2    1    2  501    0  0.67688434377E+02 -0.41739607532E+01 -0.54909332174E+02  0.19323391863E+03  0.17240987922E+03 0.  0.
         24    2    3    3    0    0 -0.76340575772E+01 -0.43714667719E+02 -0.59849073969E+02  0.10789086765E+03  0.78033817399E+02 0.  0.
         -6    2    1    2    0  502 -0.67688434377E+02  0.41739607532E+01  0.75308568971E+03  0.77607144734E+03  0.17478469396E+03 0.  0.
        -24    2    5    5    0    0  0.20977627669E+02  0.38741473918E+02  0.40561282963E+03  0.41577148618E+03  0.80019988090E+02 0.  0.
          5    1    3    3  501    0  0.75322491955E+02  0.39540706966E+02  0.49397417955E+01  0.85343050980E+02  0.47000000000E+01 0. -1.
        -13    1    4    4    0    0 -0.38364694946E+02 -0.17590176780E+02 -0.92921978221E+01  0.43215842903E+02  0.00000000000E+00 0.  1.
         14    1    4    4    0    0  0.30730637369E+02 -0.26124490939E+02 -0.50556876147E+02  0.64675024744E+02  0.00000000000E+00 0. -1.
         -5    1    5    5    0  502 -0.88666062047E+02 -0.34567513165E+02  0.34747286008E+03  0.36029996116E+03  0.47000000000E+01 0.  1.
         13    1    6    6    0    0 -0.23074782607E+02 -0.82751866580E+01  0.15912377924E+03  0.16100093610E+03  0.00000000000E+00 0. -1.
        -14    1    6    6    0    0  0.44052410276E+02  0.47016660576E+02  0.24648905039E+03  0.25477055008E+03  0.00000000000E+00 0.  1.
</event>
<event>
12    1  0.8691829E-002  0.1832294E+03  0.7818608E-02  0.1164908E+00
         21   -1    0    0  503  502  0.00000000000E+00  0.00000000000E+00  0.60729254521E+03  0.60729254521E+03  0.00000000000E+00 0.  1.
         21   -1    0    0  501  503 -0.00000000000E+00 -0.00000000000E+00 -0.60093327002E+02  0.60093327002E+02  0.00000000000E+00 0.  1.
          6    2    1    2  501    0  0.43167198532E+02 -0.44754672038E+02  0.17736129767E+03  0.25500988370E+03  0.17235609411E+03 0.  0.
         24    2    3    3    0    0  0.39362090676E+02 -0.46270574905E+02  0.33076624339E+02  0.11059058525E+03  0.86289478984E+02 0.  0.
         -6    2    1    2    0  502 -0.43167198532E+02  0.44754672038E+02  0.36983792053E+03  0.41237598850E+03  0.17148609487E+03 0.  0.
        -24    2    5    5    0    0 -0.65624975416E+02 -0.18404009345E+02  0.24469366561E+03  0.27033182172E+03  0.92514641481E+02 0.  0.
          5    1    3    3  501    0  0.38051078558E+01  0.15159028668E+01  0.14428467333E+03  0.14441929846E+03  0.47000000000E+01 0. -1.
        -11    1    4    4    0    0 -0.24594187016E+02 -0.60998766587E+01 -0.52795656704E+01  0.25883514906E+02  0.00000000000E+00 0.  1.
         12    1    4    4    0    0  0.63956277692E+02 -0.40170698246E+02  0.38356190009E+02  0.84707070341E+02  0.00000000000E+00 0. -1.
         -5    1    5    5    0  502  0.22457776884E+02  0.63158681383E+02  0.12514425492E+03  0.14204416678E+03  0.47000000000E+01 0.  1.
         13    1    6    6    0    0 -0.17055396161E+02 -0.36460934177E+02  0.19294623029E+03  0.19710031467E+03  0.00000000000E+00 0. -1.
        -14    1    6    6    0    0 -0.48569579255E+02  0.18056924832E+02  0.51747435320E+02  0.73231507055E+02  0.00000000000E+00 0.  1.
</event>
<event>
12    1  0.8691829E-002  0.1920590E+03  0.7818608E-02  0.1158264E+00
         21   -1    0    0  501  502  0.00000000000E+00  0.00000000000E+00  0.17381203271E+03  0.17381203271E+03  0.00000000000E+00 0.  1.
         21   -1    0    0  502  503 -0.00000000000E+00 -0.00000000000E+00 -0.20605871162E+03  0.20605871162E+03  0.00000000000E+00 0.  1.
         -6    2    1    2    0  503 -0.75385438102E+02  0.31746985850E+02 -0.34080525174E+02  0.19505936580E+03  0.17376949848E+03 0.  0.
        -24    2    3    3    0    0  0.65960383534E+01 -0.18083137359E+02 -0.54509871207E+02  0.96858287188E+02  0.77715469240E+02 0.  0.
          6    2    1    2  501    0  0.75385438102E+02 -0.31746985850E+02  0.18338462657E+01  0.18481137853E+03  0.16571375095E+03 0.  0.
         24    2    5    5    0    0  0.68256253527E+02  0.24794317151E+01 -0.54525726292E+02  0.11832254976E+03  0.79762818571E+02 0.  0.
          5    1    5    5  501    0  0.71291845744E+01 -0.34226417565E+02  0.56359572558E+02  0.66488828768E+02  0.47000000000E+01 0. -1.
        -13    1    6    6    0    0  0.35392381205E+02  0.36894177522E+02 -0.79560562009E+01  0.51740697837E+02  0.00000000000E+00 0.  1.
         14    1    6    6    0    0  0.32863872323E+02 -0.34414745806E+02 -0.46569670091E+02  0.66581851922E+02  0.00000000000E+00 0. -1.
         -5    1    3    3    0  503 -0.81981476455E+02  0.49830123208E+02  0.20429346033E+02  0.98201078609E+02  0.47000000000E+01 0.  1.
         13    1    4    4    0    0  0.38021783463E+02 -0.30087709204E+01 -0.83952233935E+01  0.39053661749E+02  0.00000000000E+00 0. -1.
        -14    1    4    4    0    0 -0.31425745109E+02 -0.15074366438E+02 -0.46114647813E+02  0.57804625439E+02  0.00000000000E+00 0.  1.
</event>
<event>
12    1  0.8691829E-002  0.1962168E+03  0.7818608E-02  0.1153123E+00
         21   -1    0    0  503  502  0.00000000000E+00  0.00000000000E+00  0.40760995553E+03  0.40760995553E+03  0.00000000000E+00 0.  1.
         21   -1    0    0  501  503 -0.00000000000E+00 -0.00000000000E+00 -0.47367965889E+03  0.47367965889E+03  0.00000000000E+00 0. -1.
          6    2    1    2  501    0 -0.74780137878E+02 -0.56208771502E+02 -0.42749316408E+03  0.47037370456E+03  0.17248049628E+03 0.  0.
         24    2    3    3    0    0  0.27550620304E+02 -0.26906030373E+02 -0.18206391454E+03  0.20281466204E+03  0.80644572110E+02 0.  0.
         -6    2    1    2    0  502  0.74780137878E+02  0.56208771502E+02  0.36142346071E+03  0.41091590986E+03  0.17167839704E+03 0.  0.
        -24    2    5    5    0    0  0.61545206391E+02 -0.13227596617E+02  0.10897372459E+03  0.14871459046E+03  0.79233673542E+02 0.  0.
          5    1    3    3  501    0 -0.10233075818E+03 -0.29302741129E+02 -0.24542924953E+03  0.26755904252E+03  0.47000000000E+01 0. -1.
        -13    1    4    4    0    0  0.28494987569E+02 -0.32479001981E+02 -0.34898057142E+02  0.55540294188E+02  0.00000000000E+00 0.  1.
         14    1    4    4    0    0 -0.94436726506E+00  0.55729716082E+01 -0.14716585740E+03  0.14727436785E+03  0.00000000000E+00 0. -1.
         -5    1    5    5    0  502  0.13234931487E+02  0.69436368119E+02  0.25244973612E+03  0.26220131940E+03  0.47000000000E+01 0.  1.
         11    1    6    6    0    0  0.29430873441E+02 -0.35769922629E+02  0.97324423830E+02  0.10778546818E+03  0.00000000000E+00 0. -1.
        -12    1    6    6    0    0  0.32114332950E+02  0.22542326012E+02  0.11649300763E+02  0.40929122286E+02  0.00000000000E+00 0.  1.
</event>
<event>
12    1  0.8691829E-002  0.1755258E+03  0.7818608E-02  0.1172356E+00
         21   -1    0    0  503  502  0.00000000000E+00  0.00000000000E+00  0.13316592095E+04  0.13316592095E+04  0.00000000000E+00 0.  1.
         21   -1    0    0  501  503 -0.00000000000E+00 -0.00000000000E+00 -0.23204748527E+02  0.23204748527E+02  0.00000000000E+00 0.  1.
          6    2    1    2  501    0 -0.12116385218E+02  0.31942742188E+02  0.59893142330E+03  0.62395202308E+03  0.17155212536E+03 0.  0.
         24    2    3    3    0    0  0.26652909282E+02  0.77431021063E+02  0.41092101415E+03  0.42661412590E+03  0.80234605731E+02 0.  0.
         -6    2    1    2    0  502  0.12116385218E+02 -0.31942742188E+02  0.70952303765E+03  0.73091193492E+03  0.17216901606E+03 0.  0.
        -24    2    5    5    0    0 -0.12915057565E+02 -0.30818505305E+01  0.15503920573E+03  0.17509367861E+03  0.80276674450E+02 0.  0.
          5    1    3    3  501    0 -0.38769294500E+02 -0.45488278875E+02  0.18801040916E+03  0.19733789718E+03  0.47000000000E+01 0. -1.
        -13    1    4    4    0    0  0.38976207375E+02  0.11098089943E+02  0.90381276641E+02  0.99050933913E+02  0.00000000000E+00 0.  1.
         14    1    4    4    0    0 -0.12323298093E+02  0.66332931120E+02  0.32053973751E+03  0.32756319199E+03  0.00000000000E+00 0. -1.
         -5    1    5    5    0  502  0.25031442783E+02 -0.28860891657E+02  0.55448383191E+03  0.55581825631E+03  0.47000000000E+01 0.  1.
         13    1    6    6    0    0  0.24527035544E+02 -0.10996665917E+02  0.16898453258E+02  0.31749958368E+02  0.00000000000E+00 0. -1.
        -14    1    6    6    0    0 -0.37442093109E+02  0.79148153864E+01  0.13814075248E+03  0.14334372024E+03  0.00000000000E+00 0.  1.
</event>
<event>
12    1  0.8691829E-002  0.2982292E+03  0.7818608E-02  0.1086173E+00
         21   -1    0    0  501  502  0.00000000000E+00  0.00000000000E+00  0.39847446574E+03  0.39847446574E+03  0.00000000000E+00 0.  1.
         21   -1    0    0  502  503 -0.00000000000E+00 -0.00000000000E+00 -0.22472886520E+03  0.22472886520E+03  0.00000000000E+00 0. -1.
         -6    2    1    2    0  503 -0.37961504496E+02  0.24038000653E+03  0.59141120392E+02  0.30403668539E+03  0.17238622502E+03 0.  0.
        -24    2    3    3    0    0 -0.62041616991E+02  0.12600557552E+03  0.73238950673E+02  0.18621393246E+03  0.97903613049E+02 0.  0.
          6    2    1    2  501    0  0.37961504496E+02 -0.24038000653E+03  0.11460448014E+03  0.31916664555E+03  0.17178340256E+03 0.  0.
         24    2    5    5    0    0 -0.13408178211E+02 -0.19361906327E+03  0.13238116948E+03  0.24730893336E+03  0.77258097199E+02 0.  0.
          5    1    5    5  501    0  0.51369682707E+02 -0.46760943262E+02 -0.17776689341E+02  0.71857712183E+02  0.47000000000E+01 0. -1.
        -11    1    6    6    0    0 -0.17627317947E+02 -0.69699567471E+02  0.92309105491E+02  0.11700308970E+03  0.00000000000E+00 0.  1.
         12    1    6    6    0    0  0.42191397354E+01 -0.12391949580E+03  0.40072063993E+02  0.13030584366E+03  0.00000000000E+00 0. -1.
         -5    1    3    3    0  503  0.24080112496E+02  0.11437443102E+03 -0.14097830281E+02  0.11782275293E+03  0.47000000000E+01 0.  1.
         11    1    4    4    0    0 -0.49800202498E-01  0.57880576849E+02 -0.13782335954E+02  0.59498877643E+02  0.00000000000E+00 0. -1.
        -12    1    4    4    0    0 -0.61991816789E+02  0.68124998666E+02  0.87021286627E+02  0.12671505482E+03  0.00000000000E+00 0.  1.
</event>
<event>
12    1  0.8691829E-002  0.1811858E+03  0.7818608E-02  0.1167664E+00
         21   -1    0    0  503  502  0.00000000000E+00  0.00000000000E+00  0.55268107849E+03  0.55268107849E+03  0.00000000000E+00 0. -1.
         21   -1    0    0  501  503 -0.00000000000E+00 -0.00000000000E+00 -0.81860146951E+02  0.81860146951E+02  0.00000000000E+00 0. -1.
          6    2    1    2  501    0 -0.26239696426E+02 -0.34278479171E+02  0.62387298305E+02  0.18772320517E+03  0.17170990352E+03 0.  0.
         24    2    3    3    0    0  0.90590455161E+01 -0.94560983396E+01 -0.28733992182E+02  0.86790894427E+02  0.80842643124E+02 0.  0.
         -6    2    1    2    0  502  0.26239696426E+02  0.34278479171E+02  0.40843363324E+03  0.44681802027E+03  0.17596810699E+03 0.  0.
        -24    2    5    5    0    0 -0.74979322466E+01  0.50389158037E+02  0.10590095683E+03  0.14194773334E+03  0.79616958658E+02 0.  0.
          5    1    3    3  501    0 -0.35298741942E+02 -0.24822380831E+02  0.91121290486E+02  0.10093231075E+03  0.47000000000E+01 0. -1.
        -13    1    4    4    0    0 -0.35523971534E+02 -0.32370917661E+01 -0.53669164488E+01  0.36072636566E+02  0.00000000000E+00 0.  1.
         14    1    4    4    0    0  0.44583017051E+02 -0.62190065734E+01 -0.23367075733E+02  0.50718257860E+02  0.00000000000E+00 0. -1.
         -5    1    5    5    0  502  0.33737628672E+02 -0.16110678866E+02  0.30253267641E+03  0.30487028693E+03  0.47000000000E+01 0.  1.
         13    1    6    6    0    0 -0.38731612849E+02  0.48858935910E+01  0.49409312467E+02  0.62970548262E+02  0.00000000000E+00 0. -1.
        -14    1    6    6    0    0  0.31233680602E+02  0.45503264446E+02  0.56491644367E+02  0.78977185076E+02  0.00000000000E+00 0.  1.
</event>
<event>
12    1  0.8691829E-002  0.2052903E+03  0.7818608E-02  0.1145369E+00
         21   -1    0    0  501  502  0.00000000000E+00  0.00000000000E+00  0.49030668543E+03  0.49030668543E+03  0.00000000000E+00 0.  1.
         21   -1    0    0  502  503 -0.00000000000E+00 -0.00000000000E+00 -0.34568158306E+04  0.34568158306E+04  0.00000000000E+00 0.  1.
         -6    2    1    2    0  503  0.10668206292E+03 -0.30807568408E+02 -0.34321276153E+04  0.34382564594E+04  0.17256113137E+03 0.  0.
        -24    2    3    3    0    0  0.13009293891E+03 -0.18578204937E+02 -0.20518180401E+04  0.20576862004E+04  0.82739999210E+02 0.  0.
          6    2    1    2  501    0 -0.10668206292E+03  0.30807568408E+02  0.46561847016E+03  0.50886605659E+03  0.17266712188E+03 0.  0.
         24    2    5    5    0    0 -0.52138630846E+02 -0.23211937972E+02  0.12162710171E+03  0.15638166740E+03  0.80030263896E+02 0.  0.
          5    1    5    5  501    0 -0.54543432074E+02  0.54019506380E+02  0.34399136846E+03  0.35248438919E+03  0.47000000000E+01 0. -1.
        -11    1    6    6    0    0 -0.41509817934E+02 -0.22503999995E+02  0.13280002939E+03  0.14094446710E+03  0.00000000000E+00 0.  1.
         12    1    6    6    0    0 -0.10628812911E+02 -0.70793797678E+00 -0.11172927684E+02  0.15437200300E+02  0.00000000000E+00 0. -1.
         -5    1    3    3    0  503 -0.23410875992E+02 -0.12229363471E+02 -0.13803095753E+04  0.13805702590E+04  0.47000000000E+01 0.  1.
         11    1    4    4    0    0 -0.49335874269E+01  0.14568440734E+02 -0.14765548577E+03  0.14845444496E+03  0.00000000000E+00 0. -1.
        -12    1    4    4    0    0  0.13502652634E+03 -0.33146645671E+02 -0.19041625543E+04  0.19092317555E+04  0.00000000000E+00 0.  1.
</event>
<event>
12    1  0.8691829E-002  0.2643145E+03  0.7818608E-02  0.1104603E+00
         21   -1    0    0  503  502  0.00000000000E+00  0.00000000000E+00  0.91259546479E+03  0.91259546479E+03  0.00000000000E+00 0. -1.
         21   -1    0    0  501  503 -0.00000000000E+00 -0.00000000000E+00 -0.14052653856E+03  0.14052653856E+03  0.00000000000E+00 0.  1.
          6    2    1    2  501    0 -0.19964439830E+03 -0.13384195142E+02  0.30686783117E+02  0.26608992724E+03  0.17269958966E+03 0.  0.
         24    2    3    3    0    0 -0.81335065304E+02 -0.48984258322E+02 -0.30916885496E+02  0.12795389009E+03  0.80009335516E+02 0.  0.
         -6    2    1    2    0  502  0.19964439830E+03  0.13384195142E+02  0.74138214311E+03  0.78703207611E+03  0.17243834911E+03 0.  0.
        -24    2    5    5    0    0  0.19824800204E+03 -0.34306524621E+02  0.63185069287E+03  0.66746793740E+03  0.76150780853E+02 0.  0.
          5    1    3    3  501    0 -0.11830933300E+03  0.35600063180E+02  0.61603668613E+02  0.13813603715E+03  0.47000000000E+01 0. -1.
        -13    1    4    4    0    0 -0.78196581088E+02 -0.75311290845E+01 -0.44757756338E+01  0.78685804099E+02  0.00000000000E+00 0.  1.
         14    1    4    4    0    0 -0.31384842161E+01 -0.41453129237E+02 -0.26441109862E+02  0.49268085994E+02  0.00000000000E+00 0. -1.
         -5    1    5    5    0  502  0.13963962593E+01  0.47690719763E+02  0.10953145024E+03  0.11956413871E+03  0.47000000000E+01 0.  1.
         13    1    6    6    0    0  0.16192895889E+03 -0.56482468829E+02  0.47770294651E+03  0.50755429475E+03  0.00000000000E+00 0. -1.
        -14    1    6    6    0    0  0.36319043154E+02  0.22175944207E+02  0.15414774636E+03  0.15991364265E+03  0.00000000000E+00 0.  1.
</event>
<event>
12    1  0.8691829E-002  0.2224899E+03  0.7818608E-02  0.1132196E+00
         21   -1    0    0  503  502  0.00000000000E+00  0.00000000000E+00  0.83409117495E+03  0.83409117495E+03  0.00000000000E+00 0.  1.
         21   -1    0    0  501  503 -0.00000000000E+00 -0.00000000000E+00 -0.21512122204E+03  0.21512122204E+03  0.00000000000E+00 0.  1.
          6    2    1    2  501    0 -0.13098761605E+03  0.53644402288E+02 -0.13708955172E+03  0.26133366715E+03  0.17165739990E+03 0.  0.
         24    2    3    3    0    0 -0.16103677431E+03  0.30481718422E+02 -0.99232996838E+02  0.20753152422E+03  0.79750661745E+02 0.  0.
         -6    2    1    2    0  502  0.13098761605E+03 -0.53644402288E+02  0.75605950463E+03  0.78787872984E+03  0.17056213217E+03 0.  0.
        -24    2    5    5    0    0 -0.42238621148E+01 -0.22608596828E+02  0.31941092640E+03  0.32969815853E+03  0.78412665913E+02 0.  0.
          5    1    3    3  501    0  0.30049158255E+02  0.23162683866E+02 -0.37856554884E+02  0.53802142926E+02  0.47000000000E+01 0. -1.
        -11    1    4    4    0    0 -0.10498521676E+03  0.29406268462E+02 -0.10475795810E+03  0.15119806265E+03  0.00000000000E+00 0.  1.
         12    1    4    4    0    0 -0.56051557546E+02  0.10754499598E+01  0.55249612666E+01  0.56333461574E+02  0.00000000000E+00 0. -1.
         -5    1    5    5    0  502  0.13521147816E+03 -0.31035805460E+02  0.43664857823E+03  0.45818057131E+03  0.47000000000E+01 0.  1.
         11    1    6    6    0    0 -0.40014889574E+01 -0.41084221160E+02  0.30027040407E+03  0.30309444189E+03  0.00000000000E+00 0. -1.
        -12    1    6    6    0    0 -0.22237315740E+00  0.18475624332E+02  0.19140522322E+02  0.26603716640E+02  0.00000000000E+00 0.  1.
</event>
<event>
12    1  0.8691829E-002  0.1768633E+03  0.7818608E-02  0.1171181E+00
         21   -1    0    0  503  502  0.00000000000E+00  0.00000000000E+00  0.84234842427E+02  0.84234842427E+02  0.00000000000E+00 0.  1.
         21   -1    0    0  501  503 -0.00000000000E+00 -0.00000000000E+00 -0.37163009937E+03  0.37163009937E+03  0.00000000000E+00 0.  1.
          6    2    1    2  501    0  0.10100461975E+02 -0.30945245703E+02 -0.16424678368E+03  0.24136619064E+03  0.17384189504E+03 0.  0.
         24    2    3    3    0    0  0.63578729095E+02  0.17763525677E+02 -0.97172172757E+02  0.14260606258E+03  0.80847141496E+02 0.  0.
         -6    2    1    2    0  502 -0.10100461975E+02  0.30945245703E+02 -0.12314847326E+03  0.21449875116E+03  0.17258198115E+03 0.  0.
        -24    2    5    5    0    0 -0.37553030502E+02  0.23642716854E+02 -0.14952607562E+03  0.17544957252E+03  0.80344863230E+02 0.  0.
          5    1    3    3  501    0 -0.53478267121E+02 -0.48708771380E+02 -0.67074610923E+02  0.98760128058E+02  0.47000000000E+01 0. -1.
        -11    1    4    4    0    0  0.11566524401E+02  0.28303166908E+02  0.14523554346E+01  0.30609852664E+02  0.00000000000E+00 0.  1.
         12    1    4    4    0    0  0.52012204694E+02 -0.10539641232E+02 -0.98624528191E+02  0.11199620992E+03  0.00000000000E+00 0. -1.
         -5    1    5    5    0  502  0.27452568527E+02  0.73025288483E+01  0.26377602357E+02  0.39049178639E+02  0.47000000000E+01 0.  1.
         13    1    6    6    0    0  0.20862574459E+02  0.84532776624E+01 -0.81290866505E+02  0.84349925272E+02  0.00000000000E+00 0. -1.
        -14    1    6    6    0    0 -0.58415604961E+02  0.15189439192E+02 -0.68235209116E+02  0.91099647250E+02  0.00000000000E+00 0.  1.
</event>
<event>
12    1  0.8691829E-002  0.4230073E+03  0.7818608E-02  0.1036185E+00
         21   -1    0    0  501  502  0.00000000000E+00  0.00000000000E+00  0.35916290575E+03  0.35916290575E+03  0.00000000000E+00 0.  1.
         21   -1    0    0  502  503 -0.00000000000E+00 -0.00000000000E+00 -0.64856374292E+03  0.64856374292E+03  0.00000000000E+00 0. -1.
         -6    2    1    2    0  503 -0.31577597383E+03 -0.22042628875E+03 -0.38824881430E+03  0.57332352334E+03  0.17222225809E+03 0.  0.
        -24    2    3    3    0    0 -0.14001685895E+03 -0.13397333076E+03 -0.27954138929E+03  0.34925930339E+03  0.79278613319E+02 0.  0.
          6    2    1    2  501    0  0.31577597383E+03  0.22042628875E+03  0.98847977137E+02  0.43440312533E+03  0.17502267936E+03 0.  0.
         24    2    5    5    0    0  0.67586826791E+02  0.85481944953E+02  0.39784197528E+01  0.13635925012E+03  0.81871088923E+02 0.  0.
          5    1    5    5  501    0  0.24818914703E+03  0.13494434380E+03  0.94869557384E+02  0.29804387521E+03  0.47000000000E+01 0. -1.
        -11    1    6    6    0    0  0.80991432388E+02  0.90824336072E+02  0.13892720327E+01  0.12169881766E+03  0.00000000000E+00 0.  1.
         12    1    6    6    0    0 -0.13404605596E+02 -0.53423911188E+01  0.25891477201E+01  0.14660432462E+02  0.00000000000E+00 0. -1.
         -5    1    3    3    0  503 -0.17575911488E+03 -0.86452957990E+02 -0.10870742501E+03  0.22406421995E+03  0.47000000000E+01 0.  1.
         11    1    4    4    0    0 -0.29786859152E+02 -0.27151815055E+02 -0.12542974341E+03  0.13174634178E+03  0.00000000000E+00 0. -1.
        -12    1    4    4    0    0 -0.11022999979E+03 -0.10682151571E+03 -0.15411164588E+03  0.21751296161E+03  0.00000000000E+00 0.  1.
</event>
<event>
12    1  0.8691829E-002  0.1985976E+03  0.7818608E-02  0.1151293E+00
         21   -1    0    0  503  502  0.00000000000E+00  0.00000000000E+00  0.75405459868E+03  0.75405459868E+03  0.00000000000E+00 0.  1.
         21   -1    0    0  501  503 -0.00000000000E+00 -0.00000000000E+00 -0.62638427437E+02  0.62638427437E+02  0.00000000000E+00 0.  1.
          6    2    1    2  501    0  0.10956843794E+02  0.95425245158E+02  0.17752545432E+03  0.26637622940E+03  0.17382456333E+03 0.  0.
         24    2    3    3    0    0 -0.22272870902E+02  0.10770401853E+03  0.70080758363E+02  0.15314445425E+03  0.80284959912E+02 0.  0.
         -6    2    1    2    0  502 -0.10956843794E+02 -0.95425245158E+02  0.51389071692E+03  0.55031679671E+03  0.17186878126E+03 0.  0.
        -24    2    5    5    0    0  0.14511457462E+02 -0.12097610955E+03  0.30189028271E+03  0.33521738912E+03  0.79919670277E+02 0.  0.
          5    1    3    3  501    0  0.33229714696E+02 -0.12278773374E+02  0.10744469596E+03  0.11323177515E+03  0.47000000000E+01 0. -1.
        -13    1    4    4    0    0 -0.40245082771E+02  0.46790527695E+02  0.64687583268E+02  0.89406395735E+02  0.00000000000E+00 0.  1.
         14    1    4    4    0    0  0.17972211870E+02  0.60913490837E+02  0.53931750948E+01  0.63738058513E+02  0.00000000000E+00 0. -1.
         -5    1    5    5    0  502 -0.25468301256E+02  0.25550864396E+02  0.21200043421E+03  0.21509940759E+03  0.47000000000E+01 0.  1.
         11    1    6    6    0    0 -0.24539488036E+02 -0.95584495023E+02  0.21705677737E+03  0.23843704990E+03  0.00000000000E+00 0. -1.
        -12    1    6    6    0    0  0.39050945498E+02 -0.25391614530E+02  0.84833505338E+02  0.96780339226E+02  0.00000000000E+00 0.  1.
</event>
<event>
12    1  0.8691829E-002  0.2006287E+03  0.7818608E-02  0.1149464E+00
         21   -1    0    0  501  502  0.00000000000E+00  0.00000000000E+00  0.44512497963E+04  0.44512497963E+04  0.00000000000E+00 0.  1.
         21   -1    0    0  502  503 -0.00000000000E+00 -0.00000000000E+00 -0.75858814823E+02  0.75858814823E+02  0.00000000000E+00 0. -1.
         -6    2    1    2    0  503  0.79543947062E+02 -0.61745063764E+02  0.63255474923E+02  0.21036427062E+03  0.17352861099E+03 0.  0.
        -24    2    3    3    0    0  0.27377602643E+02 -0.10217126843E+03  0.53744888848E+02  0.14352007296E+03  0.80752690634E+02 0.  0.
          6    2    1    2  501    0 -0.79543947062E+02  0.61745063764E+02  0.43121355066E+04  0.43167443406E+04  0.17213187372E+03 0.  0.
         24    2    5    5    0    0 -0.40773197629E+02  0.54115701849E+02  0.40758304288E+04  0.40771122100E+04  0.76546235283E+02 0.  0.
          5    1    5    5  501    0 -0.38770749433E+02  0.76293619143E+01  0.23630507782E+03  0.23963213052E+03  0.47000000000E+01 0. -1.
        -11    1    6    6    0    0 -0.35522878565E+02  0.59119225318E+02  0.18724116246E+04  0.18736814697E+04  0.00000000000E+00 0.  1.
         12    1    6    6    0    0 -0.52503190639E+01 -0.50035234684E+01  0.22034188041E+04  0.22034307404E+04  0.00000000000E+00 0. -1.
         -5    1    3    3    0  503  0.52166344419E+02  0.40426204669E+02  0.95105860743E+01  0.66844197665E+02  0.47000000000E+01 0.  1.
         13    1    4    4    0    0  0.31549022883E+02 -0.10020725096E+03  0.70252042910E+02  0.12638110430E+03  0.00000000000E+00 0. -1.
        -14    1    4    4    0    0 -0.41714202399E+01 -0.19640174676E+01 -0.16507154062E+02  0.17138968658E+02  0.00000000000E+00 0.  1.
</event>
<event>
12    1  0.8691829E-002  0.1909131E+03  0.7818608E-02  0.1157788E+00
         21   -1    0    0  501  502  0.00000000000E+00  0.00000000000E+00  0.54524664993E+03  0.54524664993E+03  0.00000000000E+00 0. -1.
         21   -1    0    0  502  503 -0.00000000000E+00 -0.00000000000E+00 -0.18058792501E+03  0.18058792501E+03  0.00000000000E+00 0. -1.
         -6    2    1    2    0  503 -0.81356599670E+02  0.33865619481E+00 -0.10586617230E+03  0.21830128460E+03  0.17271014279E+03 0.  0.
        -24    2    3    3    0    0 -0.11142086214E+03 -0.21478332537E+02 -0.42689823942E+02  0.14486299849E+03  0.79290226217E+02 0.  0.
          6    2    1    2  501    0  0.81356599670E+02 -0.33865619481E+00  0.47052489722E+03  0.50753329033E+03  0.17198067013E+03 0.  0.
         24    2    5    5    0    0  0.20091187488E+01 -0.52843820164E+02  0.24631911963E+03  0.26392882470E+03  0.78668989615E+02 0.  0.
          5    1    5    5  501    0  0.79347480921E+02  0.52505163969E+02  0.22420577759E+03  0.24360446563E+03  0.47000000000E+01 0. -1.
        -11    1    6    6    0    0  0.20538890163E+02 -0.11905195461E+02  0.14550699508E+02  0.27844255139E+02  0.00000000000E+00 0.  1.
         12    1    6    6    0    0 -0.18529771414E+02 -0.40938624703E+02  0.23176842012E+03  0.23608456956E+03  0.00000000000E+00 0. -1.
         -5    1    3    3    0  503  0.30064262473E+02  0.21816988732E+02 -0.63176348357E+02  0.73438286112E+02  0.47000000000E+01 0.  1.
         13    1    4    4    0    0 -0.53426224640E+02 -0.43532258079E+02 -0.45786336979E+02  0.82739395856E+02  0.00000000000E+00 0. -1.
        -14    1    4    4    0    0 -0.57994637503E+02  0.22053925542E+02  0.30965130370E+01  0.62123602631E+02  0.00000000000E+00 0.  1.
</event>
<event>
12    1  0.8691829E-002  0.1949843E+03  0.7818608E-02  0.1154067E+00
         21   -1    0    0  501  502  0.00000000000E+00  0.00000000000E+00  0.37049157452E+03  0.37049157452E+03  0.00000000000E+00 0. -1.
         21   -1    0    0  502  503 -0.00000000000E+00 -0.00000000000E+00 -0.44003632179E+03  0.44003632179E+03  0.00000000000E+00 0. -1.
         -6    2    1    2    0  503 -0.89970698228E+02 -0.19794077819E+02 -0.38968574373E+03  0.43574515393E+03  0.17184972576E+03 0.  0.
        -24    2    3    3    0    0 -0.72924299369E+01 -0.62596441478E+02 -0.22707051500E+03  0.24830572105E+03  0.78250995532E+02 0.  0.
          6    2    1    2  501    0  0.89970698228E+02  0.19794077819E+02  0.32014099647E+03  0.37478274239E+03  0.17171288338E+03 0.  0.
         24    2    5    5    0    0 -0.17093014400E+02 -0.38141241915E+01  0.17499557456E+03  0.19282321594E+03  0.79060880379E+02 0.  0.
          5    1    5    5  501    0  0.10706371263E+03  0.23608202011E+02  0.14514542191E+03  0.18195952645E+03  0.47000000000E+01 0. -1.
        -13    1    6    6    0    0 -0.21568457998E+02 -0.38908832686E+02  0.11302214239E+03  0.12146234112E+03  0.00000000000E+00 0.  1.
         14    1    6    6    0    0  0.44754435974E+01  0.35094708494E+02  0.61973432169E+02  0.71360874816E+02  0.00000000000E+00 0. -1.
         -5    1    3    3    0  503 -0.82678268291E+02  0.42802363659E+02 -0.16261522873E+03  0.18743943288E+03  0.47000000000E+01 0.  1.
         13    1    4    4    0    0 -0.38154960451E+02 -0.25515112428E+02 -0.15440541019E+03  0.16108337178E+03  0.00000000000E+00 0. -1.
        -14    1    4    4    0    0  0.30862530514E+02 -0.37081329050E+02 -0.72665104812E+02  0.87222349264E+02  0.00000000000E+00 0.  1.
</event>
<event>
12    1  0.8691829E-002  0.1805445E+03  0.7818608E-02  0.1169335E+00
         21   -1    0    0  503  502  0.00000000000E+00  0.00000000000E+00  0.18875591806E+03  0.18875591806E+03  0.00000000000E+00 0. -1.
         21   -1    0    0  501  503 -0.00000000000E+00 -0.00000000000E+00 -0.19854159834E+03  0.19854159834E+03  0.00000000000E+00 0. -1.
          6    2    1    2  501    0 -0.14229899782E+02  0.20146740724E+01 -0.84780569372E+02  0.19945946229E+03  0.17997161775E+03 0.  0.
         24    2    3    3    0    0 -0.43363000011E+01  0.70088823822E+02 -0.26055377615E+02  0.10889064134E+03  0.79038233450E+02 0.  0.
         -6    2    1    2    0  502  0.14229899782E+02 -0.20146740724E+01  0.74994889090E+02  0.18783805411E+03  0.17161687627E+03 0.  0.
        -24    2    5    5    0    0  0.12443118453E+02  0.77417887768E+01  0.11824921507E+03  0.14321286088E+03  0.79449859455E+02 0.  0.
          5    1    3    3  501    0 -0.98935997811E+01 -0.68074149750E+02 -0.58725191757E+02  0.90568820946E+02  0.47000000000E+01 0. -1.
        -11    1    4    4    0    0 -0.77920564855E+01  0.44648272249E+02  0.24987276678E+02  0.51754694037E+02  0.00000000000E+00 0.  1.
         12    1    4    4    0    0  0.34557564843E+01  0.25440551573E+02 -0.51042654293E+02  0.57135947305E+02  0.00000000000E+00 0. -1.
         -5    1    5    5    0  502  0.17867813290E+01 -0.97564628492E+01 -0.43254325977E+02  0.44625193227E+02  0.47000000000E+01 0.  1.
         13    1    6    6    0    0 -0.27661750576E+02 -0.62212229809E+01  0.84002363240E+02  0.88658181181E+02  0.00000000000E+00 0. -1.
        -14    1    6    6    0    0  0.40104869029E+02  0.13963011758E+02  0.34246851827E+02  0.54554679701E+02  0.00000000000E+00 0.  1.
</event>
<event>
12    1  0.8691829E-002  0.1736448E+03  0.7818608E-02  0.1174265E+00
         21   -1    0    0  501  502  0.00000000000E+00  0.00000000000E+00  0.25381585437E+03  0.25381585437E+03  0.00000000000E+00 0. -1.
         21   -1    0    0  502  503 -0.00000000000E+00 -0.00000000000E+00 -0.18366208313E+03  0.18366208313E+03  0.00000000000E+00 0. -1.
         -6    2    1    2    0  503 -0.27807004568E+02 -0.62819545979E+00 -0.95320032102E+02  0.19808690924E+03  0.17140271573E+03 0.  0.
        -24    2    3    3    0    0 -0.50418367519E+02 -0.32324053654E+02 -0.49330691152E+01  0.99558769911E+02  0.79377309525E+02 0.  0.
          6    2    1    2  501    0  0.27807004568E+02  0.62819545979E+00  0.16547380335E+03  0.23939102826E+03  0.17074208820E+03 0.  0.
         24    2    5    5    0    0  0.57564856755E+02  0.13286484457E+02  0.37046173239E+02  0.10687118740E+03  0.80986346636E+02 0.  0.
          5    1    5    5  501    0 -0.29757852186E+02 -0.12658288997E+02  0.12842763011E+03  0.13251984086E+03  0.47000000000E+01 0. -1.
        -11    1    6    6    0    0 -0.95443473784E+00 -0.22946551185E+01 -0.22089554663E+02  0.22228918395E+02  0.00000000000E+00 0.  1.
         12    1    6    6    0    0  0.58519291493E+02  0.15581139575E+02  0.59135727902E+02  0.84642269002E+02  0.00000000000E+00 0. -1.
         -5    1    3    3    0  503  0.22611362950E+02  0.31695858195E+02 -0.90386962987E+02  0.98528139326E+02  0.47000000000E+01 0.  1.
         13    1    4    4    0    0  0.23438324325E+00 -0.39148442399E+02 -0.22932816583E+02  0.45371461892E+02  0.00000000000E+00 0. -1.
        -14    1    4    4    0    0 -0.50652750762E+02  0.68243887446E+01  0.17999747468E+02  0.54187308019E+02  0.00000000000E+00 0.  1.
</event>
<event>
12    1  0.8691829E-002  0.1969044E+03  0.7818608E-02  0.1152992E+00
         21   -1    0    0  501  502  0.00000000000E+00  0.00000000000E+00  0.69908740780E+02  0.69908740780E+02  0.00000000000E+00 0. -1.
         21   -1    0    0  502  503 -0.00000000000E+00 -0.00000000000E+00 -0.56866503039E+03  0.56866503039E+03  0.00000000000E+00 0. -1.
         -6    2    1    2    0  503 -0.10061888706E+02  0.88866790781E+02 -0.18829485321E+03  0.27244505262E+03  0.17542179695E+03 0.  0.
        -24    2    3    3    0    0 -0.75021878943E+02  0.61977596215E+02 -0.13066769150E+03  0.18141863402E+03  0.79807082497E+02 0.  0.
          6    2    1    2  501    0  0.10061888706E+02 -0.88866790781E+02 -0.31046143640E+03  0.36612871854E+03  0.17223642746E+03 0.  0.
         24    2    5    5    0    0 -0.29922494161E+01  0.29419444933E+01 -0.23170277759E+03  0.24437375670E+03  0.77554801468E+02 0.  0.
          5    1    5    5  501    0  0.13054138122E+02 -0.91808735274E+02 -0.78758658810E+02  0.12175496184E+03  0.47000000000E+01 0. -1.
        -11    1    6    6    0    0 -0.19078183024E+02 -0.19333949546E+02 -0.28683071524E+02  0.39503129808E+02  0.00000000000E+00 0.  1.
         12    1    6    6    0    0  0.16085933608E+02  0.22275894040E+02 -0.20301970606E+03  0.20487062690E+03  0.00000000000E+00 0. -1.
         -5    1    3    3    0  503  0.64959990237E+02  0.26889194566E+02 -0.57627161713E+02  0.91026418600E+02  0.47000000000E+01 0.  1.
         13    1    4    4    0    0 -0.62456563021E+02  0.11013893782E+02 -0.35357535843E+02  0.72610491401E+02  0.00000000000E+00 0. -1.
        -14    1    4    4    0    0 -0.12565315922E+02  0.50963702433E+02 -0.95310155653E+02  0.10880814262E+03  0.00000000000E+00 0.  1.
</event>
<event>
12    1  0.8691829E-002  0.1764416E+03  0.7818608E-02  0.1171463E+00
         21   -1    0    0  503  502  0.00000000000E+00  0.00000000000E+00  0.15746455590E+03  0.15746455590E+03  0.00000000000E+00 0.  1.
         21   -1    0    0  501  503 -0.00000000000E+00 -0.00000000000E+00 -0.20865477912E+03  0.20865477912E+03  0.00000000000E+00 0.  1.
          6    2    1    2  501    0  0.16898470880E+02 -0.38513591730E+02 -0.68929770893E+02  0.18878825162E+03  0.17064828030E+03 0.  0.
         24    2    3    3    0    0  0.65849538097E+01  0.19019272895E+02 -0.93027163075E+02  0.12539130015E+03  0.81632289721E+02 0.  0.
         -6    2    1    2    0  502 -0.16898470880E+02  0.38513591730E+02  0.17739547677E+02  0.17733108340E+03  0.17135567257E+03 0.  0.
        -24    2    5    5    0    0  0.48590459521E+02  0.24312171257E+02 -0.17266836728E+02  0.10158138176E+03  0.84074485085E+02 0.  0.
          5    1    3    3  501    0  0.10313517071E+02 -0.57532864625E+02  0.24097392182E+02  0.63396951475E+02  0.47000000000E+01 0. -1.
        -13    1    4    4    0    0 -0.32344517138E+02 -0.11675697375E+02 -0.41340012242E+02  0.53772542344E+02  0.00000000000E+00 0.  1.
         14    1    4    4    0    0  0.38929470947E+02  0.30694970270E+02 -0.51687150834E+02  0.71618757804E+02  0.00000000000E+00 0. -1.
         -5    1    5    5    0  502 -0.65488930401E+02  0.14201420473E+02  0.35006384406E+02  0.75749701634E+02  0.47000000000E+01 0.  1.
         13    1    6    6    0    0 -0.14746350404E+01 -0.89123664742E+01 -0.37195134295E+02  0.38276400561E+02  0.00000000000E+00 0. -1.
        -14    1    6    6    0    0  0.50065094561E+02  0.33224537731E+02  0.19928297567E+02  0.63304981201E+02  0.00000000000E+00 0.  1.
</event>
<event>
12    1  0.8691829E-002  0.2513910E+03  0.7818608E-02  0.1112678E+00
         21   -1    0    0  501  502  0.00000000000E+00  0.00000000000E+00  0.15350257444E+03  0.15350257444E+03  0.00000000000E+00 0. -1.
         21   -1    0    0  502  503 -0.00000000000E+00 -0.00000000000E+00 -0.47422947109E+03  0.47422947109E+03  0.00000000000E+00 0.  1.
         -6    2    1    2    0  503  0.11755330872E+03  0.13889832753E+03 -0.27710453892E+03  0.37414486980E+03  0.17345296864E+03 0.  0.
        -24    2    3    3    0    0  0.14616763714E+03  0.11645764987E+03 -0.26988578916E+03  0.33677423758E+03  0.75174367600E+02 0.  0.
          6    2    1    2  501    0 -0.11755330872E+03 -0.13889832753E+03 -0.43622357734E+02  0.25358717572E+03  0.17114911572E+03 0.  0.
         24    2    5    5    0    0  0.38570325007E+01 -0.37000846977E+02 -0.36531442960E+02  0.94854889870E+02  0.79239916903E+02 0.  0.
          5    1    5    5  501    0 -0.12141034122E+03 -0.10189748056E+03 -0.70909147743E+01  0.15873228585E+03  0.47000000000E+01 0. -1.
        -11    1    6    6    0    0 -0.20321723595E+02 -0.43573964946E+02  0.28655242488E+01  0.48165071371E+02  0.00000000000E+00 0.  1.
         12    1    6    6    0    0  0.24178756096E+02  0.65731179686E+01 -0.39396967209E+02  0.46689818499E+02  0.00000000000E+00 0. -1.
         -5    1    3    3    0  503 -0.28614328419E+02  0.22440677663E+02 -0.72187497542E+01  0.37370632225E+02  0.47000000000E+01 0.  1.
         13    1    4    4    0    0  0.10438059606E+03  0.35404137375E+02 -0.14486501453E+03  0.18202921252E+03  0.00000000000E+00 0. -1.
        -14    1    4    4    0    0  0.41787041086E+02  0.81053512495E+02 -0.12502077463E+03  0.15474502506E+03  0.00000000000E+00 0.  1.
</event>
<event>
12    1  0.8691829E-002  0.1802735E+03  0.7818608E-02  0.1167798E+00
         21   -1    0    0  501  502  0.00000000000E+00  0.00000000000E+00  0.51000051186E+03  0.51000051186E+03  0.00000000000E+00 0. -1.
         21   -1    0    0  502  503 -0.00000000000E+00 -0.00000000000E+00 -0.10440638600E+03  0.10440638600E+03  0.00000000000E+00 0. -1.
         -6    2    1    2    0  503 -0.30430950091E+02 -0.42569895718E+02  0.10508478235E+02  0.18057955222E+03  0.17251176139E+03 0.  0.
        -24    2    3    3    0    0 -0.36782200615E+01  0.38210101799E+02 -0.19212340218E+02  0.90321402377E+02  0.79468865151E+02 0.  0.
          6    2    1    2  501    0  0.30430950091E+02  0.42569895718E+02  0.39508564763E+03  0.43382734564E+03  0.17139211801E+03 0.  0.
         24    2    5    5    0    0  0.12231676721E+02  0.41380755885E+02  0.85631914359E+02  0.12380100702E+03  0.78306345265E+02 0.  0.
          5    1    5    5  501    0  0.18199273370E+02  0.11891398329E+01  0.30945373327E+03  0.31002633862E+03  0.47000000000E+01 0. -1.
        -13    1    6    6    0    0 -0.31263252347E+02  0.35419997429E+01  0.25515618212E+02  0.40509054324E+02  0.00000000000E+00 0.  1.
         14    1    6    6    0    0  0.43494929069E+02  0.37838756142E+02  0.60116296147E+02  0.83291952694E+02  0.00000000000E+00 0. -1.
         -5    1    3    3    0  503 -0.26752730030E+02 -0.80779997517E+02  0.29720818453E+02  0.90258149839E+02  0.47000000000E+01 0.  1.
         11    1    4    4    0    0  0.13064177998E+02  0.22856830325E+02 -0.47338871486E+02  0.54167113573E+02  0.00000000000E+00 0. -1.
        -12    1    4    4    0    0 -0.16742398060E+02  0.15353271473E+02  0.28126531268E+02  0.36154288804E+02  0.00000000000E+00 0.  1.
</event>
<event>
12    1  0.8691829E-002  0.2989270E+03  0.7818608E-02  0.1085808E+00
         21   -1    0    0  501  502  0.00000000000E+00  0.00000000000E+00  0.35941491829E+03  0.35941491829E+03  0.00000000000E+00 0. -1.
         21   -1    0    0  502  503 -0.00000000000E+00 -0.00000000000E+00 -0.26629747031E+03  0.26629747031E+03  0.00000000000E+00 0.  1.
         -6    2    1    2    0  503  0.18912560903E+03 -0.15526325221E+03  0.12762832027E+03  0.32503281943E+03  0.17170373348E+03 0.  0.
        -24    2    3    3    0    0  0.86337244174E+02 -0.13382596693E+03  0.12915932983E+03  0.21991650699E+03  0.79483510281E+02 0.  0.
          6    2    1    2  501    0 -0.18912560903E+03  0.15526325221E+03 -0.34510872284E+02  0.30067956917E+03  0.17129515327E+03 0.  0.
         24    2    5    5    0    0 -0.48351177506E+02  0.77723897755E+02  0.33665268246E+02  0.12603745455E+03  0.79832631274E+02 0.  0.
          5    1    5    5  501    0 -0.14077443153E+03  0.77539354454E+02 -0.68176140530E+02  0.17464211462E+03  0.47000000000E+01 0. -1.
        -11    1    6    6    0    0 -0.51244646711E+02  0.82558955474E+01  0.13138104050E+02  0.53542351516E+02  0.00000000000E+00 0.  1.
         12    1    6    6    0    0  0.28934692043E+01  0.69468002207E+02  0.20527164196E+02  0.72495103039E+02  0.00000000000E+00 0. -1.
         -5    1    3    3    0  503  0.10278836486E+03 -0.21437285280E+02 -0.15310095607E+01  0.10511631244E+03  0.47000000000E+01 0.  1.
         13    1    4    4    0    0  0.35369900817E+02 -0.92461798475E+02  0.34724428077E+02  0.10490948463E+03  0.00000000000E+00 0. -1.
        -14    1    4    4    0    0  0.50967343358E+02 -0.41364168453E+02  0.94434901754E+02  0.11500702235E+03  0.00000000000E+00 0.  1.
</event>
<event>
12    1  0.8691829E-002  0.1937130E+03  0.7818608E-02  0.1155192E+00
         21   -1    0    0  501  502  0.00000000000E+00  0.00000000000E+00  0.51343671517E+03  0.51343671517E+03  0.00000000000E+00 0.  1.
         21   -1    0    0  502  503 -0.00000000000E+00 -0.00000000000E+00 -0.90273417109E+02  0.90273417109E+02  0.00000000000E+00 0.  1.
         -6    2    1    2    0  503  0.86358026956E+02  0.21638064954E+02  0.79696365710E+02  0.20946652069E+03  0.17204301180E+03 0.  0.
        -24    2    3    3    0    0  0.54900961343E+02  0.91949661702E+00  0.11910129656E+03  0.15475231206E+03  0.82147417589E+02 0.  0.
          6    2    1    2  501    0 -0.86358026956E+02 -0.21638064954E+02  0.34346693235E+03  0.39424361158E+03  0.17185044947E+03 0.  0.
         24    2    5    5    0    0 -0.25849758478E+02  0.10656067014E+02  0.27320103246E+03  0.29594026372E+03  0.11027272454E+03 0.  0.
          5    1    5    5  501    0 -0.60508268478E+02 -0.32294131967E+02  0.70265899885E+02  0.98303347859E+02  0.47000000000E+01 0. -1.
        -13    1    6    6    0    0 -0.57552066928E+01  0.26057021869E+02  0.57549767748E+01  0.27298544841E+02  0.00000000000E+00 0.  1.
         14    1    6    6    0    0 -0.20094551786E+02 -0.15400954856E+02  0.26744605569E+03  0.26864171888E+03  0.00000000000E+00 0. -1.
         -5    1    3    3    0  503  0.31457065613E+02  0.20718568337E+02 -0.39404930847E+02  0.54714208630E+02  0.47000000000E+01 0.  1.
         13    1    4    4    0    0  0.35271349021E+02  0.39408062119E+02  0.47294436295E+02  0.70949468822E+02  0.00000000000E+00 0. -1.
        -14    1    4    4    0    0  0.19629612323E+02 -0.38488565502E+02  0.71806860262E+02  0.83802843240E+02  0.00000000000E+00 0.  1.
</event>
<event>
12    1  0.8691829E-002  0.1984894E+03  0.7818608E-02  0.1155212E+00
         21   -1    0    0  503  502  0.00000000000E+00  0.00000000000E+00  0.86433910931E+03  0.86433910931E+03  0.00000000000E+00 0.  1.
         21   -1    0    0  501  503 -0.00000000000E+00 -0.00000000000E+00 -0.45117756834E+02  0.45117756834E+02  0.00000000000E+00 0.  1.
          6    2    1    2  501    0  0.40853345301E+02  0.30531957195E+02  0.26059281937E+03  0.31661296562E+03  0.17243536834E+03 0.  0.
         24    2    3    3    0    0  0.12549605150E+02 -0.48743401329E+02  0.15277451761E+03  0.17974602157E+03  0.80219494380E+02 0.  0.
         -6    2    1    2    0  502 -0.40853345301E+02 -0.30531957195E+02  0.55862853310E+03  0.59284390053E+03  0.19182506657E+03 0.  0.
        -24    2    5    5    0    0 -0.51729323210E+02  0.47264157568E+02  0.42685841983E+03  0.43936434124E+03  0.76961615777E+02 0.  0.
          5    1    3    3  501    0  0.28303740151E+02  0.79275358524E+02  0.10781830177E+03  0.13686694404E+03  0.47000000000E+01 0. -1.
        -11    1    4    4    0    0  0.13776102250E+02 -0.63766556497E+02  0.70304035959E+02  0.95909395749E+02  0.00000000000E+00 0.  1.
         12    1    4    4    0    0 -0.12264970998E+01  0.15023155168E+02  0.82470481646E+02  0.83836625823E+02  0.00000000000E+00 0. -1.
         -5    1    5    5    0  502  0.10875977909E+02 -0.77796114763E+02  0.13177011327E+03  0.15347955929E+03  0.47000000000E+01 0.  1.
         11    1    6    6    0    0 -0.32100512619E+02  0.37274691693E+02  0.96896628798E+02  0.10866831288E+03  0.00000000000E+00 0. -1.
        -12    1    6    6    0    0 -0.19628810592E+02  0.99894658746E+01  0.32996179103E+03  0.33069602836E+03  0.00000000000E+00 0.  1.
</event>
<event>
12    1  0.8691829E-002  0.1910424E+03  0.7818608E-02  0.1157539E+00
         21   -1    0    0  501  502  0.00000000000E+00  0.00000000000E+00  0.78034680040E+02  0.78034680040E+02  0.00000000000E+00 0. -1.
         21   -1    0    0  502  503 -0.00000000000E+00 -0.00000000000E+00 -0.48574802535E+03  0.48574802535E+03  0.00000000000E+00 0. -1.
         -6    2    1    2    0  503  0.14864576518E+02 -0.81216316018E+02 -0.25839207211E+03  0.32130788437E+03  0.17220699175E+03 0.  0.
        -24    2    3    3    0    0  0.26973905000E+02 -0.51363327758E+02 -0.26807580158E+03  0.28734170471E+03  0.85643662246E+02 0.  0.
          6    2    1    2  501    0 -0.14864576518E+02  0.81216316018E+02 -0.14932127320E+03  0.24247482102E+03  0.17227928075E+03 0.  0.
         24    2    5    5    0    0 -0.57004297405E+02  0.98088954050E+02 -0.13959896703E+03  0.19581589660E+03  0.77363175577E+02 0.  0.
          5    1    5    5  501    0  0.42139720887E+02 -0.16872638032E+02 -0.97223061663E+01  0.46658924417E+02  0.47000000000E+01 0. -1.
        -13    1    6    6    0    0  0.13029898674E+02  0.65550732980E+01  0.25900940127E+00  0.14588157227E+02  0.00000000000E+00 0.  1.
         14    1    6    6    0    0 -0.70034196080E+02  0.91533880752E+02 -0.13985797644E+03  0.18122773937E+03  0.00000000000E+00 0. -1.
         -5    1    3    3    0  503 -0.12109328482E+02 -0.29852988260E+02  0.96837294720E+01  0.33966179662E+02  0.47000000000E+01 0.  1.
         11    1    4    4    0    0  0.56975002430E+02 -0.31867316332E+02 -0.14199819160E+03  0.15628551811E+03  0.00000000000E+00 0. -1.
        -12    1    4    4    0    0 -0.30001097430E+02 -0.19496011426E+02 -0.12607760998E+03  0.13105618660E+03  0.00000000000E+00 0.  1.
</event>
<event>
12    1  0.8691829E-002  0.1763931E+03  0.7818608E-02  0.1171372E+00
         21   -1    0    0  503  502  0.00000000000E+00  0.00000000000E+00  0.18683363456E+03  0.18683363456E+03  0.00000000000E+00 0.  1.
         21   -1    0    0  501  503 -0.00000000000E+00 -0.00000000000E+00 -0.25022549405E+03  0.25022549405E+03  0.00000000000E+00 0.  1.
          6    2    1    2  501    0 -0.23620272993E+02  0.32977325547E+02 -0.15815897958E+03  0.23682090415E+03  0.17153558384E+03 0.  0.
         24    2    3    3    0    0  0.12468179495E+02  0.78535968034E+02 -0.13028939266E+03  0.17219296759E+03  0.79697794660E+02 0.  0.
         -6    2    1    2    0  502  0.23620272993E+02 -0.32977325547E+02  0.94767120087E+02  0.20023822447E+03  0.17166571641E+03 0.  0.
        -24    2    5    5    0    0  0.42051682185E+02  0.42908102598E+02  0.49758285794E+02  0.10998192156E+03  0.77528619378E+02 0.  0.
          5    1    3    3  501    0 -0.36088452488E+02 -0.45558642488E+02 -0.27869586919E+02  0.64627936554E+02  0.47000000000E+01 0. -1.
        -11    1    4    4    0    0 -0.26264730296E+02  0.60356249925E+02 -0.10019498201E+03  0.11988222296E+03  0.00000000000E+00 0.  1.
         12    1    4    4    0    0  0.38732909790E+02  0.18179718110E+02 -0.30094410650E+02  0.52310744630E+02  0.00000000000E+00 0. -1.
         -5    1    5    5    0  502 -0.18431409193E+02 -0.75885428144E+02  0.45008834293E+02  0.90256302904E+02  0.47000000000E+01 0.  1.
         11    1    6    6    0    0  0.33969990892E+02 -0.16175850797E+02  0.12413672262E+02  0.39619662911E+02  0.00000000000E+00 0. -1.
        -12    1    6    6    0    0  0.80816912937E+01  0.59083953394E+02  0.37344613532E+02  0.70362258653E+02  0.00000000000E+00 0.  1.
</event>
<event>
12    1  0.8691829E-002  0.1753761E+03  0.7818608E-02  0.1172431E+00
         21   -1    0    0  501  502  0.00000000000E+00  0.00000000000E+00  0.32002247499E+02  0.32002247499E+02  0.00000000000E+00 0. -1.
         21   -1    0    0  502  503 -0.00000000000E+00 -0.00000000000E+00 -0.10138754847E+04  0.10138754847E+04  0.00000000000E+00 0. -1.
         -6    2    1    2    0  503 -0.90520516457E+01  0.29382514971E+02 -0.61174430851E+03  0.63630208241E+03  0.17234839500E+03 0.  0.
        -24    2    3    3    0    0  0.70359525380E+01 -0.38667402938E+02 -0.21238434270E+03  0.23083927585E+03  0.81455445339E+02 0.  0.
          6    2    1    2  501    0  0.90520516457E+01 -0.29382514971E+02 -0.37012892872E+03  0.40957564982E+03  0.17266012054E+03 0.  0.
         24    2    5    5    0    0  0.46796165219E+02 -0.72593224888E+02 -0.22270053479E+03  0.25130687558E+03  0.78102241592E+02 0.  0.
          5    1    5    5  501    0 -0.37744113573E+02  0.43210709917E+02 -0.14742839393E+03  0.15826877424E+03  0.47000000000E+01 0. -1.
        -11    1    6    6    0    0 -0.14987712717E+02 -0.18682799202E+02 -0.15650842206E+02  0.28611665108E+02  0.00000000000E+00 0.  1.
         12    1    6    6    0    0  0.61783877935E+02 -0.53910425686E+02 -0.20704969258E+03  0.22269521047E+03  0.00000000000E+00 0. -1.
         -5    1    3    3    0  503 -0.16088004184E+02  0.68049917909E+02 -0.39935996581E+03  0.40546280655E+03  0.47000000000E+01 0.  1.
         13    1    4    4    0    0  0.21972779991E+02  0.16468099696E+02 -0.35011090630E+02  0.44494694462E+02  0.00000000000E+00 0. -1.
        -14    1    4    4    0    0 -0.14936827453E+02 -0.55135502634E+02 -0.17737325207E+03  0.18634458139E+03  0.00000000000E+00 0.  1.
</event>
<event>
12    1  0.8691829E-002  0.1821585E+03  0.7818608E-02  0.1166054E+00
         21   -1    0    0  501  502  0.00000000000E+00  0.00000000000E+00  0.86269177922E+03  0.86269177922E+03  0.00000000000E+00 0. -1.
         21   -1    0    0  502  503 -0.00000000000E+00 -0.00000000000E+00 -0.42168572286E+02  0.42168572286E+02  0.00000000000E+00 0. -1.
         -6    2    1    2    0  503  0.54892137512E+02 -0.63839204064E+01  0.26969809478E+03  0.32469655536E+03  0.17215367999E+03 0.  0.
        -24    2    3    3    0    0 -0.27157252879E+02  0.60511802168E+01  0.92758808799E+02  0.12920656811E+03  0.85533662775E+02 0.  0.
          6    2    1    2  501    0 -0.54892137512E+02  0.63839204064E+01  0.55082511215E+03  0.58016379614E+03  0.17357368746E+03 0.  0.
         24    2    5    5    0    0 -0.60231128941E+02 -0.35729987010E+02  0.18799072598E+03  0.21482427212E+03  0.76840965444E+02 0.  0.
          5    1    5    5  501    0  0.53389914286E+01  0.42113907417E+02  0.36283438617E+03  0.36533952402E+03  0.47000000000E+01 0. -1.
        -13    1    6    6    0    0  0.10513190592E+02 -0.22119691358E+02  0.89547984405E+02  0.92836681507E+02  0.00000000000E+00 0.  1.
         14    1    6    6    0    0 -0.70744319532E+02 -0.13610295652E+02  0.98442741578E+02  0.12198759061E+03  0.00000000000E+00 0. -1.
         -5    1    3    3    0  503  0.82049390391E+02 -0.12435100623E+02  0.17693928598E+03  0.19548998725E+03  0.47000000000E+01 0.  1.
         11    1    4    4    0    0 -0.10761766498E+02 -0.39560045937E+02  0.49182971999E+02  0.64029505600E+02  0.00000000000E+00 0. -1.
        -12    1    4    4    0    0 -0.16395486382E+02  0.45611226154E+02  0.43575836801E+02  0.65177062513E+02  0.00000000000E+00 0.  1.
</event>
<event>
12    1  0.8691829E-002  0.2095325E+03  0.7818608E-02  0.1142444E+00
         21   -1    0    0  501  502  0.00000000000E+00  0.00000000000E+00  0.19297359186E+03  0.19297359186E+03  0.00000000000E+00 0.  1.
         21   -1    0    0  502  503 -0.00000000000E+00 -0.00000000000E+00 -0.31460312820E+03  0.31460312820E+03  0.00000000000E+00 0.  1.
         -6    2    1    2    0  503 -0.15776756773E+00  0.11381351379E+03 -0.19669874262E+03  0.28739220981E+03  0.17592710451E+03 0.  0.
        -24    2    3    3    0    0 -0.46553674998E+02  0.77251010788E+02 -0.19411353145E+03  0.22807804482E+03  0.78769080945E+02 0.  0.
          6    2    1    2  501    0  0.15776756773E+00 -0.11381351379E+03  0.75069206280E+02  0.22018451025E+03  0.17289387499E+03 0.  0.
         24    2    5    5    0    0 -0.49853287330E+02 -0.13914508773E+02  0.48099447543E+02  0.10516114435E+03  0.77886748648E+02 0.  0.
          5    1    5    5  501    0  0.50011054898E+02 -0.99899005019E+02  0.26969758737E+02  0.11502336590E+03  0.47000000000E+01 0. -1.
        -13    1    6    6    0    0 -0.63299508780E+02 -0.15394639402E+02  0.58920891010E+02  0.87837885514E+02  0.00000000000E+00 0.  1.
         14    1    6    6    0    0  0.13446221450E+02  0.14801306293E+01 -0.10821443467E+02  0.17323258835E+02  0.00000000000E+00 0. -1.
         -5    1    3    3    0  503  0.46395907431E+02  0.36562503004E+02 -0.25852111735E+01  0.59314164995E+02  0.47000000000E+01 0.  1.
         13    1    4    4    0    0 -0.20468505318E+02 -0.13832078988E+02 -0.33896550339E+02  0.41943560221E+02  0.00000000000E+00 0. -1.
        -14    1    4    4    0    0 -0.26085169681E+02  0.91083089776E+02 -0.16021698111E+03  0.18613448460E+03  0.00000000000E+00 0.  1.
</event>
<event>
12    1  0.8691829E-002  0.1939420E+03  0.7818608E-02  0.1155211E+00
         21   -1    0    0  501  502  0.00000000000E+00  0.00000000000E+00  0.27331800271E+03  0.27331800271E+03  0.00000000000E+00 0. -1.
         21   -1    0    0  502  503 -0.00000000000E+00 -0.00000000000E+00 -0.15074569989E+03  0.15074569989E+03  0.00000000000E+00 0. -1.
         -6    2    1    2    0  503 -0.14299924651E+02  0.86723214018E+02 -0.30596070401E+01  0.19396612194E+03  0.17288172712E+03 0.  0.
        -24    2    3    3    0    0  0.21790298597E+02 -0.12362189730E+02  0.21739582145E+02  0.85534063795E+02  0.78840508558E+02 0.  0.
          6    2    1    2  501    0  0.14299924651E+02 -0.86723214018E+02  0.12563190986E+03  0.23009758066E+03  0.17156956652E+03 0.  0.
         24    2    5    5    0    0 -0.57897285781E+02 -0.39587783207E+02  0.57139461579E+02  0.11988192160E+03  0.78660465138E+02 0.  0.
          5    1    5    5  501    0  0.72197210433E+02 -0.47135430811E+02  0.68492448278E+02  0.11021565906E+03  0.47000000000E+01 0. -1.
        -13    1    6    6    0    0  0.11471572199E+02  0.10403374974E+02  0.23185466057E+02  0.27881768521E+02  0.00000000000E+00 0.  1.
         14    1    6    6    0    0 -0.69368857980E+02 -0.49991158181E+02  0.33953995522E+02  0.92000153074E+02  0.00000000000E+00 0. -1.
         -5    1    3    3    0  503 -0.36090223248E+02  0.99085403748E+02 -0.24799189185E+02  0.10843205815E+03  0.47000000000E+01 0.  1.
         11    1    4    4    0    0  0.36874727652E+02  0.13672639748E+02  0.35005415074E+02  0.52650410270E+02  0.00000000000E+00 0. -1.
        -12    1    4    4    0    0 -0.15084429054E+02 -0.26034829478E+02 -0.13265832930E+02  0.32883653525E+02  0.00000000000E+00 0.  1.
</event>
<event>
12    1  0.8691829E-002  0.1947010E+03  0.7818608E-02  0.1154399E+00
         21   -1    0    0  503  502  0.00000000000E+00  0.00000000000E+00  0.84099605013E+03  0.84099605013E+03  0.00000000000E+00 0. -1.
         21   -1    0    0  501  503 -0.00000000000E+00 -0.00000000000E+00 -0.44976460668E+02  0.44976460668E+02  0.00000000000E+00 0. -1.
          6    2    1    2  501    0  0.33973103159E+02  0.83984572548E+02  0.38876175552E+03  0.43456646127E+03  0.17176939931E+03 0.  0.
         24    2    3    3    0    0 -0.99260225372E+01  0.77395092883E+02  0.12946820481E+03  0.17145851779E+03  0.80916505986E+02 0.  0.
         -6    2    1    2    0  502 -0.33973103159E+02 -0.83984572548E+02  0.40725783394E+03  0.45140604953E+03  0.17233948498E+03 0.  0.
        -24    2    5    5    0    0  0.84222590263E+01 -0.11390668310E+03  0.30191330896E+03  0.33388048474E+03  0.85316264946E+02 0.  0.
          5    1    3    3  501    0  0.43899125697E+02  0.65894796647E+01  0.25929355071E+03  0.26310794348E+03  0.47000000000E+01 0. -1.
        -11    1    4    4    0    0 -0.16500496118E+02  0.69696794867E+00  0.75897118515E+02  0.77673191870E+02  0.00000000000E+00 0.  1.
         12    1    4    4    0    0  0.65744735811E+01  0.76698124934E+02  0.53571086292E+02  0.93785325919E+02  0.00000000000E+00 0. -1.
         -5    1    5    5    0  502 -0.42395362186E+02  0.29922110551E+02  0.10534452499E+03  0.11752556479E+03  0.47000000000E+01 0.  1.
         11    1    6    6    0    0  0.45015877101E+02 -0.40550280159E+02  0.12859823565E+03  0.14215576184E+03  0.00000000000E+00 0. -1.
        -12    1    6    6    0    0 -0.36593618075E+02 -0.73356402940E+02  0.17331507331E+03  0.19172472290E+03  0.00000000000E+00 0.  1.
</event>
<event>
12    1  0.8691829E-002  0.2038818E+03  0.7818608E-02  0.1146591E+00
         21   -1    0    0  501  502  0.00000000000E+00  0.00000000000E+00  0.15689184014E+03  0.15689184014E+03  0.00000000000E+00 0. -1.
         21   -1    0    0  502  503 -0.00000000000E+00 -0.00000000000E+00 -0.46905128642E+03  0.46905128642E+03  0.00000000000E+00 0. -1.
         -6    2    1    2    0  503  0.10066721303E+03 -0.42767797521E+02 -0.36289745515E+03  0.41624796023E+03  0.17206053924E+03 0.  0.
        -24    2    3    3    0    0  0.64651934030E+02  0.12963974466E+02 -0.32218475375E+03  0.33825600690E+03  0.79159165273E+02 0.  0.
          6    2    1    2  501    0 -0.10066721303E+03  0.42767797521E+02  0.50738008873E+02  0.20969516632E+03  0.17156557042E+03 0.  0.
         24    2    5    5    0    0 -0.11628994632E+03  0.12125545933E+02  0.18438796290E+02  0.16227843392E+03  0.11101315430E+03 0.  0.
          5    1    5    5  501    0  0.15622733297E+02  0.30642251588E+02  0.32299212583E+02  0.47416732400E+02  0.47000000000E+01 0. -1.
        -11    1    6    6    0    0 -0.86628838667E+01  0.41267902448E+02 -0.16723983813E+02  0.45362726593E+02  0.00000000000E+00 0.  1.
         12    1    6    6    0    0 -0.10762706246E+03 -0.29142356515E+02  0.35162780103E+02  0.11691570733E+03  0.00000000000E+00 0. -1.
         -5    1    3    3    0  503  0.36015278997E+02 -0.55731771987E+02 -0.40712701403E+02  0.77991953338E+02  0.47000000000E+01 0.  1.
         11    1    4    4    0    0  0.31821375708E+02  0.46326457269E+02 -0.17866230592E+03  0.18729378034E+03  0.00000000000E+00 0. -1.
        -12    1    4    4    0    0  0.32830558322E+02 -0.33362482803E+02 -0.14352244782E+03  0.15096222656E+03  0.00000000000E+00 0.  1.
</event>
<event>
12    1  0.8691829E-002  0.1787680E+03  0.7818608E-02  0.1169035E+00
         21   -1    0    0  501  502  0.00000000000E+00  0.00000000000E+00  0.81277912041E+02  0.81277912041E+02  0.00000000000E+00 0.  1.
         21   -1    0    0  502  503 -0.00000000000E+00 -0.00000000000E+00 -0.73547361879E+03  0.73547361879E+03  0.00000000000E+00 0.  1.
         -6    2    1    2    0  503 -0.30844466834E+02 -0.36155307416E+02 -0.60588314550E+03  0.63170592291E+03  0.17233513757E+03 0.  0.
        -24    2    3    3    0    0 -0.61047748707E+02 -0.73900809130E+02 -0.51700030606E+03  0.53041816312E+03  0.69756391002E+02 0.  0.
          6    2    1    2  501    0  0.30844466834E+02  0.36155307416E+02 -0.48312561242E+02  0.18504560792E+03  0.17218939006E+03 0.  0.
         24    2    5    5    0    0 -0.43245839572E+02  0.33089092963E+02 -0.10230405885E+01  0.96970844578E+02  0.80232209073E+02 0.  0.
          5    1    5    5  501    0  0.74090306406E+02  0.30662144528E+01 -0.47289520653E+02  0.88074763343E+02  0.47000000000E+01 0. -1.
        -11    1    6    6    0    0 -0.50214459555E+01 -0.16089823594E+02  0.24433002166E+02  0.29682805420E+02  0.00000000000E+00 0.  1.
         12    1    6    6    0    0 -0.38224393617E+02  0.49178916557E+02 -0.25456042754E+02  0.67288039158E+02  0.00000000000E+00 0. -1.
         -5    1    3    3    0  503  0.30203281873E+02  0.37745501714E+02 -0.88882839442E+02  0.10128775979E+03  0.47000000000E+01 0.  1.
         13    1    4    4    0    0 -0.33029695689E+02 -0.79328816047E+02 -0.43969692434E+03  0.44801496306E+03  0.00000000000E+00 0. -1.
        -14    1    4    4    0    0 -0.28018053018E+02  0.54280069172E+01 -0.77303381719E+02  0.82403200054E+02  0.00000000000E+00 0.  1.
</event>
<event>
12    1  0.8691829E-002  0.3098207E+03  0.7818608E-02  0.1080490E+00
         21   -1    0    0  503  502  0.00000000000E+00  0.00000000000E+00  0.17447721826E+03  0.17447721826E+03  0.00000000000E+00 0.  1.
         21   -1    0    0  501  503 -0.00000000000E+00 -0.00000000000E+00 -0.68131330950E+03  0.68131330950E+03  0.00000000000E+00 0.  1.
          6    2    1    2  501    0  0.26159056242E+02  0.25648763406E+03 -0.44193726185E+03  0.53971972596E+03  0.17180988486E+03 0.  0.
         24    2    3    3    0    0 -0.22046452571E+02  0.23024730156E+03 -0.40616066924E+03  0.47403578037E+03  0.79016238141E+02 0.  0.
         -6    2    1    2    0  502 -0.26159056242E+02 -0.25648763406E+03 -0.64898829393E+02  0.31607080180E+03  0.17093475670E+03 0.  0.
        -24    2    5    5    0    0 -0.49754646419E+02 -0.20089315112E+03 -0.10011961405E+03  0.24599875259E+03  0.87509234660E+02 0.  0.
          5    1    3    3  501    0  0.48205508814E+02  0.26240332501E+02 -0.35776592612E+02  0.65683945593E+02  0.47000000000E+01 0. -1.
        -11    1    4    4    0    0  0.68644214353E-01  0.35412683680E+02 -0.19329445963E+02  0.40344644733E+02  0.00000000000E+00 0.  1.
         12    1    4    4    0    0 -0.22115096786E+02  0.19483461788E+03 -0.38683122327E+03  0.43369113563E+03  0.00000000000E+00 0. -1.
         -5    1    5    5    0  502  0.23595590176E+02 -0.55594482940E+02  0.35220784661E+02  0.70072049216E+02  0.47000000000E+01 0.  1.
         11    1    6    6    0    0 -0.81269403663E+00 -0.47838491467E+01  0.13348556157E+02  0.14203155837E+02  0.00000000000E+00 0. -1.
        -12    1    6    6    0    0 -0.48941952382E+02 -0.19610930197E+03 -0.11346817021E+03  0.23179559675E+03  0.00000000000E+00 0.  1.
</event>
<event>
12    1  0.8691829E-002  0.1766301E+03  0.7818608E-02  0.1171310E+00
         21   -1    0    0  501  502  0.00000000000E+00  0.00000000000E+00  0.40509323537E+03  0.40509323537E+03  0.00000000000E+00 0. -1.
         21   -1    0    0  502  503 -0.00000000000E+00 -0.00000000000E+00 -0.78502230398E+02  0.78502230398E+02  0.00000000000E+00 0. -1.
         -6    2    1    2    0  503 -0.23856489942E+02 -0.24987969510E+02  0.12583691323E+03  0.21619986203E+03  0.17237726322E+03 0.  0.
        -24    2    3    3    0    0 -0.33543138940E+02  0.23407117209E+02  0.13845364980E+03  0.16504140594E+03  0.79976354177E+02 0.  0.
          6    2    1    2  501    0  0.23856489942E+02  0.24987969510E+02  0.20075409174E+03  0.26739560374E+03  0.17321856949E+03 0.  0.
         24    2    5    5    0    0 -0.31507021315E+02 -0.80011074194E+01  0.17825065333E+03  0.19897124905E+03  0.82216497262E+02 0.  0.
          5    1    5    5  501    0  0.55363511257E+02  0.32989076930E+02  0.22503438410E+02  0.68424354696E+02  0.47000000000E+01 0. -1.
        -11    1    6    6    0    0 -0.16944222984E+02  0.34289825867E+02  0.48746847972E+02  0.61960907335E+02  0.00000000000E+00 0.  1.
         12    1    6    6    0    0 -0.14562798331E+02 -0.42290933287E+02  0.12950380536E+03  0.13701034171E+03  0.00000000000E+00 0. -1.
         -5    1    3    3    0  503  0.96866489988E+01 -0.48395086719E+02 -0.12616736564E+02  0.51158456084E+02  0.47000000000E+01 0.  1.
         13    1    4    4    0    0 -0.25240593182E+02  0.29165004016E+02  0.15332329456E+02  0.41506208331E+02  0.00000000000E+00 0. -1.
        -14    1    4    4    0    0 -0.83025457584E+01 -0.57578868076E+01  0.12312132034E+03  0.12353519761E+03  0.00000000000E+00 0.  1.
</event>
<event>
12    1  0.8691829E-002  0.1842499E+03  0.7818608E-02  0.1164057E+00
         21   -1    0    0  503  502  0.00000000000E+00  0.00000000000E+00  0.12636709213E+04  0.12636709213E+04  0.00000000000E+00 0. -1.
         21   -1    0    0  501  503 -0.00000000000E+00 -0.00000000000E+00 -0.16496479159E+03  0.16496479159E+03  0.00000000000E+00 0. -1.
          6    2    1    2  501    0  0.48880142477E+02 -0.36637094870E+02 -0.10434985916E+03  0.21174733298E+03  0.17382892414E+03 0.  0.
         24    2    3    3    0    0  0.35202303220E+02 -0.30569390382E+02  0.14598053557E+02  0.91769850660E+02  0.77684699537E+02 0.  0.
         -6    2    1    2    0  502 -0.48880142477E+02  0.36637094870E+02  0.12030559889E+04  0.12168883799E+04  0.17245889876E+03 0.  0.
        -24    2    5    5    0    0 -0.46721254853E+01  0.79187567221E+02  0.93563225793E+03  0.94247549149E+03  0.80992780034E+02 0.  0.
          5    1    3    3  501    0  0.13677839258E+02 -0.60677044878E+01 -0.11894791272E+03  0.11997748232E+03  0.47000000000E+01 0. -1.
        -11    1    4    4    0    0  0.57799832589E+02 -0.74852003739E+01  0.85874967662E+01  0.58911747323E+02  0.00000000000E+00 0.  1.
         12    1    4    4    0    0 -0.22597529370E+02 -0.23084190008E+02  0.60105567908E+01  0.32858103337E+02  0.00000000000E+00 0. -1.
         -5    1    5    5    0  502 -0.44208016992E+02 -0.42550472351E+02  0.26742373092E+03  0.27441288841E+03  0.47000000000E+01 0.  1.
         11    1    6    6    0    0  0.36167068514E+02  0.49985630559E+02  0.58974535124E+03  0.59296391072E+03  0.00000000000E+00 0. -1.
        -12    1    6    6    0    0 -0.40839194000E+02  0.29201936662E+02  0.34588690670E+03  0.34951158077E+03  0.00000000000E+00 0.  1.
</event>
<event>
12    1  0.8691829E-002  0.1896264E+03  0.7818608E-02  0.1159290E+00
         21   -1    0    0  503  502  0.00000000000E+00  0.00000000000E+00  0.13572846496E+04  0.13572846496E+04  0.00000000000E+00 0.  1.
         21   -1    0    0  501  503 -0.00000000000E+00 -0.00000000000E+00 -0.46220642270E+02  0.46220642270E+02  0.00000000000E+00 0.  1.
          6    2    1    2  501    0  0.61243604454E+01 -0.79328216504E+02  0.11153477099E+04  0.11309928412E+04  0.16974633734E+03 0.  0.
         24    2    3    3    0    0 -0.58252150152E+02 -0.26843628711E+02  0.60168809193E+03  0.61063982617E+03  0.82088634618E+02 0.  0.
         -6    2    1    2    0  502 -0.61243604454E+01  0.79328216504E+02  0.19571629738E+03  0.27251245067E+03  0.17212696762E+03 0.  0.
        -24    2    5    5    0    0  0.13904484506E+02  0.85567106634E+02  0.21397145080E+03  0.24430927697E+03  0.79926069776E+02 0.  0.
          5    1    3    3  501    0  0.64376510598E+02 -0.52484587793E+02  0.51365961799E+03  0.52035301501E+03  0.47000000000E+01 0. -1.
        -13    1    4    4    0    0 -0.87060185315E+01  0.23740640183E+02  0.28564380989E+03  0.28676087405E+03  0.00000000000E+00 0.  1.
         14    1    4    4    0    0 -0.49546131621E+02 -0.50584268894E+02  0.31604428204E+03  0.32387895212E+03  0.00000000000E+00 0. -1.
         -5    1    5    5    0  502 -0.20028844951E+02 -0.62388901300E+01 -0.18255153418E+02  0.28203173695E+02  0.47000000000E+01 0.  1.
         11    1    6    6    0    0 -0.71743078182E+01 -0.13482272941E+02  0.42580986686E+02  0.45236962801E+02  0.00000000000E+00 0. -1.
        -12    1    6    6    0    0  0.21078792324E+02  0.99049379575E+02  0.17139046411E+03  0.19907231417E+03  0.00000000000E+00 0.  1.
</event>
<event>
12    1  0.8691829E-002  0.1724496E+03  0.7818608E-02  0.1175561E+00
         21   -1    0    0  503  502  0.00000000000E+00  0.00000000000E+00  0.46563623810E+03  0.46563623810E+03  0.00000000000E+00 0. -1.
         21   -1    0    0  501  503 -0.00000000000E+00 -0.00000000000E+00 -0.71379959870E+02  0.71379959870E+02  0.00000000000E+00 0. -1.
          6    2    1    2  501    0 -0.86777147740E+01 -0.11025265237E+01  0.10752298189E+03  0.20241963038E+03  0.17127754327E+03 0.  0.
         24    2    3    3    0    0  0.10757813505E+02  0.61881298743E+02  0.43576491825E+02  0.11046341473E+03  0.79738508061E+02 0.  0.
         -6    2    1    2    0  502  0.86777147740E+01  0.11025265237E+01  0.28673329634E+03  0.33459656759E+03  0.17222764446E+03 0.  0.
        -24    2    5    5    0    0  0.12987229544E+02  0.32333303013E+02  0.64737248325E+02  0.11032381256E+03  0.82257654244E+02 0.  0.
          5    1    3    3  501    0 -0.19435528279E+02 -0.62983825267E+02  0.63946490067E+02  0.91956215650E+02  0.47000000000E+01 0. -1.
        -13    1    4    4    0    0 -0.29133169960E+01  0.47388980507E+02  0.65462474433E+02  0.80867412771E+02  0.00000000000E+00 0.  1.
         14    1    4    4    0    0  0.13671130501E+02  0.14492318237E+02 -0.21885982608E+02  0.29596001956E+02  0.00000000000E+00 0. -1.
         -5    1    5    5    0  502 -0.43095147696E+01 -0.31230776489E+02  0.22199604801E+03  0.22427275503E+03  0.47000000000E+01 0.  1.
         13    1    6    6    0    0  0.39470847233E+02 -0.25350270688E+01  0.50782979376E+02  0.64368355097E+02  0.00000000000E+00 0. -1.
        -14    1    6    6    0    0 -0.26483617690E+02  0.34868330081E+02  0.13954268949E+02  0.45955457461E+02  0.00000000000E+00 0.  1.
</event>
<event>
12    1  0.8691829E-002  0.1773127E+03  0.7818608E-02  0.1170447E+00
         21   -1    0    0  501  502  0.00000000000E+00  0.00000000000E+00  0.14327657897E+03  0.14327657897E+03  0.00000000000E+00 0.  1.
         21   -1    0    0  502  503 -0.00000000000E+00 -0.00000000000E+00 -0.23719121540E+03  0.23719121540E+03  0.00000000000E+00 0.  1.
         -6    2    1    2    0  503 -0.83976429121E+01 -0.41506466406E+02 -0.99127864768E+02  0.20307850999E+03  0.17210822318E+03 0.  0.
        -24    2    3    3    0    0 -0.40180677022E+02  0.39041373446E+01 -0.41972915389E+01  0.93050386658E+02  0.83731882259E+02 0.  0.
          6    2    1    2  501    0  0.83976429121E+01  0.41506466406E+02  0.52132283416E+01  0.17738928437E+03  0.17218151266E+03 0.  0.
         24    2    5    5    0    0  0.40785154342E+02 -0.11411220790E+02  0.43356782481E+02  0.10440810024E+03  0.85015269419E+02 0.  0.
          5    1    5    5  501    0 -0.32387511430E+02  0.52917687196E+02 -0.38143554140E+02  0.72981184132E+02  0.47000000000E+01 0. -1.
        -11    1    6    6    0    0  0.21243028556E+02  0.71513527703E+00  0.67676532770E+02  0.70935821475E+02  0.00000000000E+00 0.  1.
         12    1    6    6    0    0  0.19542125787E+02 -0.12126356067E+02 -0.24319750288E+02  0.33472278766E+02  0.00000000000E+00 0. -1.
         -5    1    3    3    0  503  0.31783034110E+02 -0.45410603751E+02 -0.94930573229E+02  0.11002812333E+03  0.47000000000E+01 0.  1.
         11    1    4    4    0    0 -0.20772985479E+01 -0.34256049531E+02  0.12614791823E+02  0.36563985990E+02  0.00000000000E+00 0. -1.
        -12    1    4    4    0    0 -0.38103378474E+02  0.38160186875E+02 -0.16812083362E+02  0.56486400669E+02  0.00000000000E+00 0.  1.
</event>
<event>
12    1  0.8691829E-002  0.2406817E+03  0.7818608E-02  0.1119348E+00
         21   -1    0    0  503  502  0.00000000000E+00  0.00000000000E+00  0.17393332926E+03  0.17393332926E+03  0.00000000000E+00 0.  1.
         21   -1    0    0  501  503 -0.00000000000E+00 -0.00000000000E+00 -0.59935557535E+03  0.59935557535E+03  0.00000000000E+00 0. -1.
          6    2    1    2  501    0  0.13084864992E+03  0.10562216892E+03 -0.47048634456E+03  0.52847431693E+03  0.17219259997E+03 0.  0.
         24    2    3    3    0    0  0.10515279681E+03  0.84461485015E+02 -0.46926701546E+03  0.49483463539E+03  0.80367477588E+02 0.  0.
         -6    2    1    2    0  502 -0.13084864992E+03 -0.10562216892E+03  0.45064098474E+02  0.24481458767E+03  0.17212204279E+03 0.  0.
        -24    2    5    5    0    0 -0.14695067748E+03 -0.78277355284E+02 -0.65901437356E+01  0.18400944922E+03  0.78065366501E+02 0.  0.
          5    1    3    3  501    0  0.25695853116E+02  0.21160683906E+02 -0.12193290988E+01  0.33639681541E+02  0.47000000000E+01 0. -1.
        -11    1    4    4    0    0 -0.39347341950E+01  0.33532271633E+02 -0.68385347799E+02  0.76265661786E+02  0.00000000000E+00 0.  1.
         12    1    4    4    0    0  0.10908753100E+03  0.50929213382E+02 -0.40088166767E+03  0.41856897361E+03  0.00000000000E+00 0. -1.
         -5    1    5    5    0  502  0.16102027554E+02 -0.27344813637E+02  0.51654242209E+02  0.60805138454E+02  0.47000000000E+01 0.  1.
         11    1    6    6    0    0 -0.11008095028E+03 -0.61918747092E+02 -0.39088405082E+02  0.13221062842E+03  0.00000000000E+00 0. -1.
        -12    1    6    6    0    0 -0.36869727196E+02 -0.16358608192E+02  0.32498261347E+02  0.51798820798E+02  0.00000000000E+00 0.  1.
</event>
<event>
12    1  0.8691829E-002  0.2174148E+03  0.7818608E-02  0.1136479E+00
         21   -1    0    0  503  502  0.00000000000E+00  0.00000000000E+00  0.19433443561E+03  0.19433443561E+03  0.00000000000E+00 0.  1.
         21   -1    0    0  501  503 -0.00000000000E+00 -0.00000000000E+00 -0.25813307525E+03  0.25813307525E+03  0.00000000000E+00 0.  1.
          6    2    1    2  501    0  0.11649030922E+03  0.55933215103E+02 -0.93045826469E+02  0.23648826784E+03  0.17484466909E+03 0.  0.
         24    2    3    3    0    0  0.99403683683E+02  0.10519664985E+03 -0.72054600707E+02  0.18008294598E+03  0.79313141900E+02 0.  0.
         -6    2    1    2    0  502 -0.11649030922E+03 -0.55933215103E+02  0.29247186830E+02  0.21597924303E+03  0.17056705071E+03 0.  0.
        -24    2    5    5    0    0 -0.12339116156E+03 -0.17696554455E+02 -0.22683341375E+02  0.15095206609E+03  0.82057574248E+02 0.  0.
          5    1    3    3  501    0  0.17086625536E+02 -0.49263434750E+02 -0.20991225762E+02  0.56405321864E+02  0.47000000000E+01 0. -1.
        -11    1    4    4    0    0  0.74947540030E+02  0.25877754252E+02 -0.51584323518E+02  0.94592464575E+02  0.00000000000E+00 0.  1.
         12    1    4    4    0    0  0.24456143654E+02  0.79318895601E+02 -0.20470277189E+02  0.85490481400E+02  0.00000000000E+00 0. -1.
         -5    1    5    5    0  502  0.69008523362E+01 -0.38236660649E+02  0.51930528205E+02  0.65027176935E+02  0.47000000000E+01 0.  1.
         11    1    6    6    0    0 -0.78388219926E+02 -0.50233352148E+02 -0.20742081893E+02  0.95385201433E+02  0.00000000000E+00 0. -1.
        -12    1    6    6    0    0 -0.45002941630E+02  0.32536797694E+02 -0.19412594812E+01  0.55566864658E+02  0.00000000000E+00 0.  1.
</event>
<event>
12    1  0.8691829E-002  0.1829608E+03  0.7818608E-02  0.1165331E+00
         21   -1    0    0  501  502  0.00000000000E+00  0.00000000000E+00  0.76537289273E+02  0.76537289273E+02  0.00000000000E+00 0.  1.
         21   -1    0    0  502  503 -0.00000000000E+00 -0.00000000000E+00 -0.47714347921E+03  0.47714347921E+03  0.00000000000E+00 0.  1.
         -6    2    1    2    0  503 -0.29062638684E+01 -0.58365453289E+02 -0.11602763076E+03  0.21536197925E+03  0.17176553351E+03 0.  0.
        -24    2    3    3    0    0  0.42760988274E+02  0.16212307763E+02 -0.50828605931E+02  0.10618165502E+03  0.81238264631E+02 0.  0.
          6    2    1    2  501    0  0.29062638684E+01  0.58365453289E+02 -0.28457855918E+03  0.33831878923E+03  0.17337726003E+03 0.  0.
         24    2    5    5    0    0 -0.39605727824E+02  0.92512870770E+02 -0.19046172921E+03  0.22944554531E+03  0.79008499762E+02 0.  0.
          5    1    5    5  501    0  0.42511991693E+02 -0.34147417481E+02 -0.94116829966E+02  0.10887324392E+03  0.47000000000E+01 0. -1.
        -11    1    6    6    0    0 -0.24092052188E+02 -0.46200579107E+01 -0.68504059810E+02  0.72763851769E+02  0.00000000000E+00 0.  1.
         12    1    6    6    0    0 -0.15513675637E+02  0.97132928681E+02 -0.12195766940E+03  0.15668169354E+03  0.00000000000E+00 0. -1.
         -5    1    3    3    0  503 -0.45667252142E+02 -0.74577761052E+02 -0.65199024830E+02  0.10918032424E+03  0.47000000000E+01 0.  1.
         13    1    4    4    0    0  0.30086613058E+02 -0.31028067828E+02 -0.15783938698E+02  0.46011715891E+02  0.00000000000E+00 0. -1.
        -14    1    4    4    0    0  0.12674375216E+02  0.47240375590E+02 -0.35044667232E+02  0.60169939126E+02  0.00000000000E+00 0.  1.
</event>
<event>
12    1  0.8691829E-002  0.2594573E+03  0.7818608E-02  0.1108318E+00
         21   -1    0    0  501  502  0.00000000000E+00  0.00000000000E+00  0.68304612256E+02  0.68304612256E+02  0.00000000000E+00 0. -1.
         21   -1    0    0  502  503 -0.00000000000E+00 -0.00000000000E+00 -0.10824076658E+04  0.10824076658E+04  0.00000000000E+00 0.  1.
         -6    2    1    2    0  503 -0.18363608097E+03 -0.32566792366E+02 -0.70182905295E+03  0.74825271093E+03  0.18037542422E+03 0.  0.
        -24    2    3    3    0    0 -0.29136793637E+02 -0.27715778715E+02 -0.13610435960E+03  0.16177161083E+03  0.77643674789E+02 0.  0.
          6    2    1    2  501    0  0.18363608097E+03  0.32566792366E+02 -0.31227400058E+03  0.40245956710E+03  0.17226678588E+03 0.  0.
         24    2    5    5    0    0  0.21118716168E+02  0.14194513809E+02 -0.61023907939E+02  0.10262939262E+03  0.78494525249E+02 0.  0.
          5    1    5    5  501    0  0.16251736480E+03  0.18372278557E+02 -0.25125009264E+03  0.29983017449E+03  0.47000000000E+01 0. -1.
        -11    1    6    6    0    0 -0.34094715800E+01  0.22215993843E+02  0.11787801581E+02  0.25379660065E+02  0.00000000000E+00 0.  1.
         12    1    6    6    0    0  0.24528187748E+02 -0.80214800348E+01 -0.72811709520E+02  0.77249732552E+02  0.00000000000E+00 0. -1.
         -5    1    3    3    0  503 -0.15449928733E+03 -0.48510136511E+01 -0.56572469335E+03  0.58648110010E+03  0.47000000000E+01 0.  1.
         11    1    4    4    0    0 -0.73758814819E+01  0.27260207166E+02 -0.47124025347E+02  0.54938113249E+02  0.00000000000E+00 0. -1.
        -12    1    4    4    0    0 -0.21760912155E+02 -0.54975985881E+02 -0.88980334253E+02  0.10683349758E+03  0.00000000000E+00 0.  1.
</event>
<event>
12    1  0.8691829E-002  0.1804243E+03  0.7818608E-02  0.1168223E+00
         21   -1    0    0  501  502  0.00000000000E+00  0.00000000000E+00  0.12266467958E+04  0.12266467958E+04  0.00000000000E+00 0.  1.
         21   -1    0    0  502  503 -0.00000000000E+00 -0.00000000000E+00 -0.27065186095E+02  0.27065186095E+02  0.00000000000E+00 0.  1.
         -6    2    1    2    0  503  0.44270199365E+02  0.17556425440E+02  0.47226812535E+03  0.50435370621E+03  0.17049164238E+03 0.  0.
        -24    2    3    3    0    0  0.52428832503E+02 -0.48856284090E+02  0.26475033527E+03  0.28626442522E+03  0.81968665669E+02 0.  0.
          6    2    1    2  501    0 -0.44270199365E+02 -0.17556425440E+02  0.72731348439E+03  0.74935827572E+03  0.17402540672E+03 0.  0.
         24    2    5    5    0    0 -0.73613801191E+01 -0.69351522194E+02  0.32797586328E+03  0.34496042877E+03  0.81029050170E+02 0.  0.
          5    1    5    5  501    0 -0.36908819246E+02  0.51795096754E+02  0.39933762111E+03  0.40439784695E+03  0.47000000000E+01 0. -1.
        -13    1    6    6    0    0 -0.32155870582E+02 -0.35060835457E+02  0.77511796137E+02  0.90946911636E+02  0.00000000000E+00 0.  1.
         14    1    6    6    0    0  0.24794490463E+02 -0.34290686738E+02  0.25046406714E+03  0.25401351713E+03  0.00000000000E+00 0. -1.
         -5    1    3    3    0  503 -0.81586331373E+01  0.66412709530E+02  0.20751779008E+03  0.21808928099E+03  0.47000000000E+01 0.  1.
         11    1    4    4    0    0 -0.12907387691E+02  0.13058673334E+02  0.56032361280E+02  0.58964015440E+02  0.00000000000E+00 0. -1.
        -12    1    4    4    0    0  0.65336220194E+02 -0.61914957424E+02  0.20871797399E+03  0.22730040978E+03  0.00000000000E+00 0.  1.
</event>
<event>
12    1  0.8691829E-002  0.1754144E+03  0.7818608E-02  0.1172549E+00
         21   -1    0    0  503  502  0.00000000000E+00  0.00000000000E+00  0.39190133923E+03  0.39190133923E+03  0.00000000000E+00 0.  1.
         21   -1    0    0  501  503 -0.00000000000E+00 -0.00000000000E+00 -0.96545030873E+02  0.96545030873E+02  0.00000000000E+00 0.  1.
          6    2    1    2  501    0 -0.25866860691E+02  0.17364336998E+02  0.41250204250E+02  0.18019935725E+03  0.17262564793E+03 0.  0.
         24    2    3    3    0    0 -0.82535947544E+02 -0.52709733994E+01  0.61894393471E+02  0.11560821831E+03  0.51907402164E+02 0.  0.
         -6    2    1    2    0  502  0.25866860691E+02 -0.17364336998E+02  0.25410610411E+03  0.30824701285E+03  0.17168486860E+03 0.  0.
        -24    2    5    5    0    0  0.20376268774E+02 -0.14475206024E+02  0.27246403264E+03  0.28830717289E+03  0.90882632769E+02 0.  0.
          5    1    3    3  501    0  0.56669086853E+02  0.22635310398E+02 -0.20644189222E+02  0.64591138945E+02  0.47000000000E+01 0. -1.
        -13    1    4    4    0    0 -0.58828029131E+02 -0.27021479638E+02  0.47855449710E+02  0.80504915627E+02  0.00000000000E+00 0.  1.
         14    1    4    4    0    0 -0.23707918413E+02  0.21750506238E+02  0.14038943762E+02  0.35103302680E+02  0.00000000000E+00 0. -1.
         -5    1    5    5    0  502  0.54905919169E+01 -0.28891309746E+01 -0.18357928536E+02  0.19939839958E+02  0.47000000000E+01 0.  1.
         13    1    6    6    0    0 -0.24006541827E+02  0.22252722190E+02  0.14142636870E+03  0.14516513169E+03  0.00000000000E+00 0. -1.
        -14    1    6    6    0    0  0.44382810601E+02 -0.36727928214E+02  0.13103766394E+03  0.14314204120E+03  0.00000000000E+00 0.  1.
</event>
<event>
12    1  0.8691829E-002  0.1787259E+03  0.7818608E-02  0.1171447E+00
         21   -1    0    0  501  502  0.00000000000E+00  0.00000000000E+00  0.89728651407E+03  0.89728651407E+03  0.00000000000E+00 0.  1.
         21   -1    0    0  502  503 -0.00000000000E+00 -0.00000000000E+00 -0.69226191232E+02  0.69226191232E+02  0.00000000000E+00 0.  1.
         -6    2    1    2    0  503 -0.20094082176E+02 -0.45759972225E+01  0.62457770510E+02  0.18032556432E+03  0.16790361569E+03 0.  0.
        -24    2    3    3    0    0 -0.72523267977E+02 -0.62754910576E+01  0.15280590814E+02  0.10961853435E+03  0.80521552587E+02 0.  0.
          6    2    1    2  501    0  0.20094082176E+02  0.45759972225E+01  0.76560255232E+03  0.78618714098E+03  0.17753377320E+03 0.  0.
         24    2    5    5    0    0  0.36396138235E+01  0.16548148860E+02  0.76030944022E+03  0.76464209562E+03  0.79498437078E+02 0.  0.
          5    1    5    5  501    0  0.16454468352E+02 -0.11972151638E+02  0.52931121066E+01  0.21545045355E+02  0.47000000000E+01 0. -1.
        -11    1    6    6    0    0  0.72503965881E+01  0.44865218317E+02  0.60690325007E+03  0.60860250658E+03  0.00000000000E+00 0.  1.
         12    1    6    6    0    0 -0.36107827646E+01 -0.28317069457E+02  0.15340619014E+03  0.15603958904E+03  0.00000000000E+00 0. -1.
         -5    1    3    3    0  503  0.52429185801E+02  0.16994938351E+01  0.47177179696E+02  0.70707029970E+02  0.47000000000E+01 0.  1.
         13    1    4    4    0    0 -0.44374695791E+02  0.27388741533E+02  0.33634736324E+02  0.62052818445E+02  0.00000000000E+00 0. -1.
        -14    1    4    4    0    0 -0.28148572186E+02 -0.33664232591E+02 -0.18354145511E+02  0.47565715904E+02  0.00000000000E+00 0.  1.
</event>
<event>
12    1  0.8691829E-002  0.1983977E+03  0.7818608E-02  0.1151159E+00
         21   -1    0    0  503  502  0.00000000000E+00  0.00000000000E+00  0.14161588523E+04  0.14161588523E+04  0.00000000000E+00 0.  1.
         21   -1    0    0  501  503 -0.00000000000E+00 -0.00000000000E+00 -0.16237067009E+03  0.16237067009E+03  0.00000000000E+00 0.  1.
          6    2    1    2  501    0 -0.92901759620E+02  0.36098198883E+02 -0.91678538517E+02  0.21855567402E+03  0.17154536227E+03 0.  0.
         24    2    3    3    0    0 -0.10867468738E+03  0.72533455058E+02 -0.93247344648E+02  0.17854487178E+03  0.78178732256E+02 0.  0.
         -6    2    1    2    0  502  0.92901759620E+02 -0.36098198883E+02  0.13454667208E+04  0.13599738484E+04  0.17121435334E+03 0.  0.
        -24    2    5    5    0    0  0.99205395336E+02 -0.65257868078E+02  0.73397989605E+03  0.74774166294E+03  0.79314607010E+02 0.  0.
          5    1    3    3  501    0  0.15772927757E+02 -0.36435256175E+02  0.15688061318E+01  0.40010802232E+02  0.47000000000E+01 0. -1.
        -13    1    4    4    0    0 -0.12174952973E+02  0.37204377644E+02 -0.57861607137E+02  0.69859578987E+02  0.00000000000E+00 0.  1.
         14    1    4    4    0    0 -0.96499734405E+02  0.35329077414E+02 -0.35385737511E+02  0.10868529280E+03  0.00000000000E+00 0. -1.
         -5    1    5    5    0  502 -0.63036357157E+01  0.29159669195E+02  0.61148682471E+03  0.61223218547E+03  0.47000000000E+01 0.  1.
         11    1    6    6    0    0  0.18923387484E+02 -0.11942481772E+02  0.31256599741E+02  0.38440766019E+02  0.00000000000E+00 0. -1.
        -12    1    6    6    0    0  0.80282007852E+02 -0.53315386306E+02  0.70272329631E+03  0.70930089692E+03  0.00000000000E+00 0.  1.
</event>
<event>
12    1  0.8691829E-002  0.2154824E+03  0.7818608E-02  0.1137320E+00
         21   -1    0    0  503  502  0.00000000000E+00  0.00000000000E+00  0.73450495553E+03  0.73450495553E+03  0.00000000000E+00 0.  1.
         21   -1    0    0  501  503 -0.00000000000E+00 -0.00000000000E+00 -0.56390721094E+03  0.56390721094E+03  0.00000000000E+00 0.  1.
          6    2    1    2  501    0  0.43953041000E+02  0.12256470172E+03 -0.52645602535E+03  0.56884849781E+03  0.17169359604E+03 0.  0.
         24    2    3    3    0    0  0.92498579660E+01  0.54980867820E+02 -0.45312659322E+03  0.46315468942E+03  0.77975003367E+02 0.  0.
         -6    2    1    2    0  502 -0.43953041000E+02 -0.12256470172E+03  0.69705376994E+03  0.72956366866E+03  0.17153778746E+03 0.  0.
        -24    2    5    5    0    0 -0.68704495888E+02 -0.71235626517E+02  0.26489027810E+03  0.29363399296E+03  0.79115359757E+02 0.  0.
          5    1    3    3  501    0  0.34703183034E+02  0.67583833897E+02 -0.73329432129E+02  0.10569380840E+03  0.47000000000E+01 0. -1.
        -13    1    4    4    0    0 -0.83860868547E+01  0.70348861003E+02 -0.30002293581E+03  0.30827431082E+03  0.00000000000E+00 0.  1.
         14    1    4    4    0    0  0.17635944821E+02 -0.15367993183E+02 -0.15310365740E+03  0.15488037860E+03  0.00000000000E+00 0. -1.
         -5    1    5    5    0  502  0.24751454888E+02 -0.51329075200E+02  0.43216349184E+03  0.43592967571E+03  0.47000000000E+01 0.  1.
         13    1    6    6    0    0 -0.42016197104E+02  0.82788589357E+01  0.88105399053E+02  0.97961531566E+02  0.00000000000E+00 0. -1.
        -14    1    6    6    0    0 -0.26688298784E+02 -0.79514485452E+02  0.17678487904E+03  0.19567246139E+03  0.00000000000E+00 0.  1.
</event>
<event>
12    1  0.8691829E-002  0.2330499E+03  0.7818608E-02  0.1124648E+00
         21   -1    0    0  501  502  0.00000000000E+00  0.00000000000E+00  0.48460327856E+03  0.48460327856E+03  0.00000000000E+00 0. -1.
         21   -1    0    0  502  503 -0.00000000000E+00 -0.00000000000E+00 -0.11425261742E+03  0.11425261742E+03  0.00000000000E+00 0. -1.
         -6    2    1    2    0  503  0.11415150695E+03 -0.10789791009E+03  0.23025539559E+03  0.32761224721E+03  0.17216187668E+03 0.  0.
        -24    2    3    3    0    0  0.93129935740E+02 -0.90470404539E+02  0.75129600803E+02  0.17003138983E+03  0.80050843722E+02 0.  0.
          6    2    1    2  501    0 -0.11415150695E+03  0.10789791009E+03  0.14009526555E+03  0.27124364877E+03  0.17109619525E+03 0.  0.
         24    2    5    5    0    0 -0.52795648950E+02  0.12241092756E+03  0.13851906034E+03  0.20800012412E+03  0.79402177693E+02 0.  0.
          5    1    5    5  501    0 -0.61355857999E+02 -0.14513017469E+02  0.15762052010E+01  0.63243524646E+02  0.47000000000E+01 0. -1.
        -11    1    6    6    0    0 -0.17407769648E+02 -0.58773568800E+01  0.40543843392E+01  0.18815201312E+02  0.00000000000E+00 0.  1.
         12    1    6    6    0    0 -0.35387879302E+02  0.12828828444E+03  0.13446467601E+03  0.18918492281E+03  0.00000000000E+00 0. -1.
         -5    1    3    3    0  503  0.21021571209E+02 -0.17427505552E+02  0.15512579479E+03  0.15758085739E+03  0.47000000000E+01 0.  1.
         11    1    4    4    0    0 -0.90054499995E+01  0.84210109768E+00 -0.59581059491E+01  0.10830802854E+02  0.00000000000E+00 0. -1.
        -12    1    4    4    0    0  0.10213538574E+03 -0.91312505637E+02  0.81087706752E+02  0.15920058697E+03  0.00000000000E+00 0.  1.
</event>
<event>
12    1  0.8691829E-002  0.2149316E+03  0.7818608E-02  0.1138576E+00
         21   -1    0    0  503  502  0.00000000000E+00  0.00000000000E+00  0.12941694861E+04  0.12941694861E+04  0.00000000000E+00 0.  1.
         21   -1    0    0  501  503 -0.00000000000E+00 -0.00000000000E+00 -0.35888172298E+02  0.35888172298E+02  0.00000000000E+00 0.  1.
          6    2    1    2  501    0 -0.89826991919E+02 -0.82183309587E+02  0.51620179659E+03  0.55747912796E+03  0.17174311764E+03 0.  0.
         24    2    3    3    0    0 -0.55360614686E+02 -0.34728602154E+02  0.12276535347E+03  0.15966735690E+03  0.78431239831E+02 0.  0.
         -6    2    1    2    0  502  0.89826991919E+02  0.82183309587E+02  0.74207951719E+03  0.77257853042E+03  0.17712309555E+03 0.  0.
        -24    2    5    5    0    0  0.37093955978E+02 -0.11557479282E+02  0.49462622897E+03  0.50272055216E+03  0.81014259750E+02 0.  0.
          5    1    3    3  501    0 -0.34466377233E+02 -0.47454707433E+02  0.39343644312E+03  0.39781177105E+03  0.47000000000E+01 0. -1.
        -11    1    4    4    0    0  0.71903419762E+01 -0.35744421105E+02  0.27376837642E+02  0.45594472221E+02  0.00000000000E+00 0.  1.
         12    1    4    4    0    0 -0.62550956662E+02  0.10158189506E+01  0.95388515830E+02  0.11407288468E+03  0.00000000000E+00 0. -1.
         -5    1    5    5    0  502  0.52733035941E+02  0.93740788869E+02  0.24745328822E+03  0.26985797825E+03  0.47000000000E+01 0.  1.
         11    1    6    6    0    0 -0.62146926016E+00 -0.35354850071E+02  0.11063553066E+03  0.11614892290E+03  0.00000000000E+00 0. -1.
        -12    1    6    6    0    0  0.37715425239E+02  0.23797370788E+02  0.38399069831E+03  0.38657162926E+03  0.00000000000E+00 0.  1.
</event>
<event>
12    1  0.8691829E-002  0.1770508E+03  0.7818608E-02  0.1170766E+00
         21   -1    0    0  503  502  0.00000000000E+00  0.00000000000E+00  0.10366631448E+04  0.10366631448E+04  0.00000000000E+00 0. -1.
         21   -1    0    0  501  503 -0.00000000000E+00 -0.00000000000E+00 -0.35373796999E+02  0.35373796999E+02  0.00000000000E+00 0. -1.
          6    2    1    2  501    0  0.42236262570E+02 -0.11597632146E+02  0.29572356445E+03  0.34467290712E+03  0.17154760093E+03 0.  0.
         24    2    3    3    0    0  0.22599339952E+02 -0.59093589151E+02  0.26828391024E+03  0.28622207920E+03  0.77097598417E+02 0.  0.
         -6    2    1    2    0  502 -0.42236262570E+02  0.11597632146E+02  0.70556578340E+03  0.72736403472E+03  0.17122195350E+03 0.  0.
        -24    2    5    5    0    0  0.24941094266E+01 -0.20413648836E+02  0.62077700808E+03  0.62618718604E+03  0.79519560884E+02 0.  0.
          5    1    3    3  501    0  0.19636922619E+02  0.47495957004E+02  0.27439654206E+02  0.58450827921E+02  0.47000000000E+01 0. -1.
        -13    1    4    4    0    0  0.41713191285E+02 -0.13762539607E+02  0.76350290495E+02  0.88083850292E+02  0.00000000000E+00 0.  1.
         14    1    4    4    0    0 -0.19113851333E+02 -0.45331049544E+02  0.19193361974E+03  0.19813822890E+03  0.00000000000E+00 0. -1.
         -5    1    5    5    0  502 -0.44730371997E+02  0.32011280982E+02  0.84788775323E+02  0.10117684869E+03  0.47000000000E+01 0.  1.
         11    1    6    6    0    0  0.10249349045E+02 -0.43224741428E+02  0.20718290519E+03  0.21189191497E+03  0.00000000000E+00 0. -1.
        -12    1    6    6    0    0 -0.77552396179E+01  0.22811092593E+02  0.41359410289E+03  0.41429527107E+03  0.00000000000E+00 0.  1.
</event>
<event>
12    1  0.8691829E-002  0.2700484E+03  0.7818608E-02  0.1101330E+00
         21   -1    0    0  503  502  0.00000000000E+00  0.00000000000E+00  0.80547234127E+02  0.80547234127E+02  0.00000000000E+00 0.  1.
         21   -1    0    0  501  503 -0.00000000000E+00 -0.00000000000E+00 -0.12403240474E+04  0.12403240474E+04  0.00000000000E+00 0. -1.
          6    2    1    2  501    0  0.17608834806E+03  0.10867089138E+03 -0.92444876673E+03  0.96308443771E+03  0.17352130384E+03 0.  0.
         24    2    3    3    0    0  0.70023762262E+02  0.35673023969E+02 -0.21858949608E+03  0.24556246245E+03  0.79647117019E+02 0.  0.
         -6    2    1    2    0  502 -0.17608834806E+03 -0.10867089138E+03 -0.23532804657E+03  0.35778684385E+03  0.17267213779E+03 0.  0.
        -24    2    5    5    0    0 -0.28740755409E+02 -0.43957833803E+02 -0.40868855975E+02  0.10532781808E+03  0.81641678692E+02 0.  0.
          5    1    3    3  501    0  0.10606458580E+03  0.72997867412E+02 -0.70585927065E+03  0.71752197526E+03  0.47000000000E+01 0. -1.
        -11    1    4    4    0    0  0.79635033592E+02  0.38161772231E+02 -0.13456080987E+03  0.16094928079E+03  0.00000000000E+00 0.  1.
         12    1    4    4    0    0 -0.96112713295E+01 -0.24887482617E+01 -0.84028686214E+02  0.84613181664E+02  0.00000000000E+00 0. -1.
         -5    1    5    5    0  502 -0.14734759266E+03 -0.64713057579E+02 -0.19445919059E+03  0.25245902576E+03  0.47000000000E+01 0.  1.
         13    1    6    6    0    0 -0.22761040330E+02  0.17945738735E+02 -0.30857330159E+02  0.42335438112E+02  0.00000000000E+00 0. -1.
        -14    1    6    6    0    0 -0.59797150789E+01 -0.61903572538E+02 -0.10011525817E+02  0.62992379972E+02  0.00000000000E+00 0.  1.
</event>
<event>
12    1  0.8691829E-002  0.2237221E+03  0.7818608E-02  0.1132399E+00
         21   -1    0    0  501  502  0.00000000000E+00  0.00000000000E+00  0.15332672903E+03  0.15332672903E+03  0.00000000000E+00 0. -1.
         21   -1    0    0  502  503 -0.00000000000E+00 -0.00000000000E+00 -0.32858677135E+03  0.32858677135E+03  0.00000000000E+00 0.  1.
         -6    2    1    2    0  503  0.45745381731E+02 -0.13534762115E+03 -0.13496068888E+03  0.26127753559E+03  0.17216255273E+03 0.  0.
        -24    2    3    3    0    0 -0.65686690266E+01 -0.14070535687E+03 -0.13117701216E+03  0.20834482880E+03  0.79743427969E+02 0.  0.
          6    2    1    2  501    0 -0.45745381731E+02  0.13534762115E+03 -0.40299353434E+02  0.22063596479E+03  0.16323165309E+03 0.  0.
         24    2    5    5    0    0 -0.57617168098E+02  0.15695726689E+03 -0.52104201394E+02  0.19289861567E+03  0.80868451414E+02 0.  0.
          5    1    5    5  501    0  0.11871786367E+02 -0.21609645746E+02  0.11804847960E+02  0.27737349119E+02  0.47000000000E+01 0. -1.
        -13    1    6    6    0    0 -0.62418294490E+02  0.95690392744E+02 -0.63027770333E+02  0.13048062915E+03  0.00000000000E+00 0.  1.
         14    1    6    6    0    0  0.48011263921E+01  0.61266874150E+02  0.10923568939E+02  0.62417986519E+02  0.00000000000E+00 0. -1.
         -5    1    3    3    0  503  0.52314050757E+02  0.53577357242E+01 -0.37836767242E+01  0.52932706792E+02  0.47000000000E+01 0.  1.
         13    1    4    4    0    0  0.23784262197E+02 -0.12103164752E+03 -0.85507418974E+02  0.15008620699E+03  0.00000000000E+00 0. -1.
        -14    1    4    4    0    0 -0.30352931223E+02 -0.19673709351E+02 -0.45669593183E+02  0.58258621808E+02  0.00000000000E+00 0.  1.
</event>
<event>
12    1  0.8691829E-002  0.1830107E+03  0.7818608E-02  0.1166424E+00
         21   -1    0    0  503  502  0.00000000000E+00  0.00000000000E+00  0.13387454399E+03  0.13387454399E+03  0.00000000000E+00 0.  1.
         21   -1    0    0  501  503 -0.00000000000E+00 -0.00000000000E+00 -0.10566950776E+04  0.10566950776E+04  0.00000000000E+00 0.  1.
          6    2    1    2  501    0 -0.30729736568E+02  0.36193698561E+02 -0.98600101471E+03  0.10028414239E+04  0.17674450464E+03 0.  0.
         24    2    3    3    0    0 -0.72088731273E+02  0.39302768945E+02 -0.89931286200E+03  0.90662729508E+03  0.80423476639E+02 0.  0.
         -6    2    1    2    0  502  0.30729736568E+02 -0.36193698561E+02  0.63180481075E+02  0.18772819774E+03  0.17028153897E+03 0.  0.
        -24    2    5    5    0    0  0.29284158901E+01 -0.86722160714E+02  0.26689487885E+02  0.11931970775E+03  0.77430970004E+02 0.  0.
          5    1    3    3  501    0  0.41358994706E+02 -0.31090703838E+01 -0.86688152711E+02  0.96214128807E+02  0.47000000000E+01 0. -1.
        -11    1    4    4    0    0  0.51592513371E+01  0.20254679000E+02 -0.43839782727E+03  0.43889580182E+03  0.00000000000E+00 0.  1.
         12    1    4    4    0    0 -0.77247982610E+02  0.19048089945E+02 -0.46091503473E+03  0.46773149326E+03  0.00000000000E+00 0. -1.
         -5    1    5    5    0  502  0.27801320678E+02  0.50528462152E+02  0.36490993190E+02  0.68408489991E+02  0.47000000000E+01 0.  1.
         13    1    6    6    0    0  0.11531158287E+02 -0.99897699015E+02  0.23119357613E+02  0.10318441053E+03  0.00000000000E+00 0. -1.
        -14    1    6    6    0    0 -0.86027423971E+01  0.13175538301E+02  0.35701302724E+01  0.16135297222E+02  0.00000000000E+00 0.  1.
</event>
<event>
12    1  0.8691829E-002  0.1903778E+03  0.7818608E-02  0.1158535E+00
         21   -1    0    0  501  502  0.00000000000E+00  0.00000000000E+00  0.23971508276E+03  0.23971508276E+03  0.00000000000E+00 0.  1.
         21   -1    0    0  502  503 -0.00000000000E+00 -0.00000000000E+00 -0.16046613966E+03  0.16046613966E+03  0.00000000000E+00 0.  1.
         -6    2    1    2    0  503  0.22905240082E+02 -0.75369369379E+02 -0.12279518712E+02  0.18894401970E+03  0.17130050828E+03 0.  0.
        -24    2    3    3    0    0  0.48228625580E+02 -0.11517900491E+02 -0.53183471079E+02  0.10885964388E+03  0.81014061200E+02 0.  0.
          6    2    1    2  501    0 -0.22905240082E+02  0.75369369379E+02  0.91528461815E+02  0.21123720271E+03  0.17331619839E+03 0.  0.
         24    2    5    5    0    0 -0.21235146440E+02  0.26471722315E+02 -0.20292801922E+02  0.89090347961E+02  0.79834884376E+02 0.  0.
          5    1    5    5  501    0 -0.16700936421E+01  0.48897647064E+02  0.11182126374E+03  0.12214685475E+03  0.47000000000E+01 0. -1.
        -11    1    6    6    0    0  0.22542745757E+02 -0.13025711001E+02  0.18648602466E+01  0.26102150047E+02  0.00000000000E+00 0.  1.
         12    1    6    6    0    0 -0.43777892196E+02  0.39497433316E+02 -0.22157662169E+02  0.62988197914E+02  0.00000000000E+00 0. -1.
         -5    1    3    3    0  503 -0.25323385498E+02 -0.63851468888E+02  0.40903952367E+02  0.80084375826E+02  0.47000000000E+01 0.  1.
         11    1    4    4    0    0  0.57015611141E+02 -0.27011924546E+02 -0.12319291941E+02  0.64282104316E+02  0.00000000000E+00 0. -1.
        -12    1    4    4    0    0 -0.87869855611E+01  0.15494024055E+02 -0.40864179139E+02  0.44577539561E+02  0.00000000000E+00 0.  1.
</event>
<event>
12    1  0.8691829E-002  0.2576471E+03  0.7818608E-02  0.1110085E+00
         21   -1    0    0  501  502  0.00000000000E+00  0.00000000000E+00  0.12014366603E+03  0.12014366603E+03  0.00000000000E+00 0. -1.
         21   -1    0    0  502  503 -0.00000000000E+00 -0.00000000000E+00 -0.60494997056E+03  0.60494997056E+03  0.00000000000E+00 0.  1.
         -6    2    1    2    0  503 -0.14595103144E+03  0.10164583066E+03 -0.36439414831E+03  0.44069756872E+03  0.17262002572E+03 0.  0.
        -24    2    3    3    0    0 -0.14750014073E+03  0.13423528071E+03 -0.32543871011E+03  0.38966730163E+03  0.78452850910E+02 0.  0.
          6    2    1    2  501    0  0.14595103144E+03 -0.10164583066E+03 -0.12041215622E+03  0.28439606787E+03  0.18640938171E+03 0.  0.
         24    2    5    5    0    0 -0.93414297759E+01 -0.27082630842E+02 -0.42920475952E+02  0.95445095958E+02  0.80292389944E+02 0.  0.
          5    1    5    5  501    0  0.15529246121E+03 -0.74563199820E+02 -0.77491680264E+02  0.18895097191E+03  0.47000000000E+01 0. -1.
        -13    1    6    6    0    0 -0.33936088266E+02 -0.30040623111E+02 -0.52075233039E+02  0.69035693809E+02  0.00000000000E+00 0.  1.
         14    1    6    6    0    0  0.24594658490E+02  0.29579922694E+01  0.91547570868E+01  0.26409402148E+02  0.00000000000E+00 0. -1.
         -5    1    3    3    0  503  0.15491092914E+01 -0.32589450045E+02 -0.38955438203E+02  0.51030267091E+02  0.47000000000E+01 0.  1.
         11    1    4    4    0    0 -0.81956145898E+02  0.27597544086E+02 -0.16383462226E+03  0.18525716651E+03  0.00000000000E+00 0. -1.
        -12    1    4    4    0    0 -0.65543994831E+02  0.10663773662E+03 -0.16160408785E+03  0.20441013512E+03  0.00000000000E+00 0.  1.
</event>
<event>
12    1  0.8691829E-002  0.1773003E+03  0.7818608E-02  0.1170483E+00
         21   -1    0    0  501  502  0.00000000000E+00  0.00000000000E+00  0.22273205238E+03  0.22273205238E+03  0.00000000000E+00 0. -1.
         21   -1    0    0  502  503 -0.00000000000E+00 -0.00000000000E+00 -0.19515291943E+03  0.19515291943E+03  0.00000000000E+00 0. -1.
         -6    2    1    2    0  503  0.42260872240E+02 -0.90392761708E+01 -0.96278721207E+02  0.20160701776E+03  0.17177924094E+03 0.  0.
        -24    2    3    3    0    0  0.41256223424E+02 -0.68349700362E+02 -0.50410252928E+02  0.12647551892E+03  0.84149306436E+02 0.  0.
          6    2    1    2  501    0 -0.42260872240E+02  0.90392761708E+01  0.12385785416E+03  0.21627795404E+03  0.17195259676E+03 0.  0.
         24    2    5    5    0    0  0.38171318582E+01 -0.34781914287E+02  0.12756435946E+02  0.88179966846E+02  0.79928892384E+02 0.  0.
          5    1    5    5  501    0 -0.46078004098E+02  0.43821190457E+02  0.11110141821E+03  0.12809798720E+03  0.47000000000E+01 0. -1.
        -11    1    6    6    0    0  0.17151598586E+02 -0.31349460640E+02  0.42426575200E+02  0.55470535419E+02  0.00000000000E+00 0.  1.
         12    1    6    6    0    0 -0.13334466727E+02 -0.34324536462E+01 -0.29670139253E+02  0.32709431427E+02  0.00000000000E+00 0. -1.
         -5    1    3    3    0  503  0.10046488156E+01  0.59310424192E+02 -0.45868468279E+02  0.75131498849E+02  0.47000000000E+01 0.  1.
         11    1    4    4    0    0  0.25204421663E+01 -0.64007762673E+02 -0.58404481783E+02  0.86685810855E+02  0.00000000000E+00 0. -1.
        -12    1    4    4    0    0  0.38735781258E+02 -0.43419376893E+01  0.79942288550E+01  0.39789708060E+02  0.00000000000E+00 0.  1.
</event>
<event>
12    1  0.8691829E-002  0.3558308E+03  0.7818608E-02  0.1060253E+00
         21   -1    0    0  501  502  0.00000000000E+00  0.00000000000E+00  0.10573843855E+04  0.10573843855E+04  0.00000000000E+00 0.  1.
         21   -1    0    0  502  503 -0.00000000000E+00 -0.00000000000E+00 -0.12910517075E+03  0.12910517075E+03  0.00000000000E+00 0. -1.
         -6    2    1    2    0  503 -0.24315334263E+03  0.19454750394E+03  0.30426978091E+03  0.46818339672E+03  0.17217233827E+03 0.  0.
        -24    2    3    3    0    0 -0.23029631753E+03  0.20855676024E+03  0.31209443288E+03  0.44709127651E+03  0.77170968525E+02 0.  0.
          6    2    1    2  501    0  0.24315334263E+03 -0.19454750394E+03  0.62400943383E+03  0.71830615953E+03  0.17205721720E+03 0.  0.
         24    2    5    5    0    0  0.96384669563E+02 -0.42299815655E+02  0.33749971814E+03  0.36217372747E+03  0.78641402539E+02 0.  0.
          5    1    5    5  501    0  0.14676867307E+03 -0.15224768828E+03  0.28650971569E+03  0.35613243206E+03  0.47000000000E+01 0. -1.
        -13    1    6    6    0    0  0.80197826547E+02 -0.13564805071E+02  0.13978159828E+03  0.16172380943E+03  0.00000000000E+00 0.  1.
         14    1    6    6    0    0  0.16186843016E+02 -0.28735010583E+02  0.19771811986E+03  0.20044991804E+03  0.00000000000E+00 0. -1.
         -5    1    3    3    0  503 -0.12857025107E+02 -0.14009256301E+02 -0.78246519693E+01  0.21092120215E+02  0.47000000000E+01 0.  1.
         13    1    4    4    0    0 -0.11154184155E+03  0.90801826986E+02  0.19765199878E+03  0.24444399526E+03  0.00000000000E+00 0. -1.
        -14    1    4    4    0    0 -0.11875447598E+03  0.11775493325E+03  0.11444243410E+03  0.20264728124E+03  0.00000000000E+00 0.  1.
</event>
<event>
12    1  0.8691829E-002  0.3424510E+03  0.7818608E-02  0.1065774E+00
         21   -1    0    0  501  502  0.00000000000E+00  0.00000000000E+00  0.13427187402E+04  0.13427187402E+04  0.00000000000E+00 0. -1.
         21   -1    0    0  502  503 -0.00000000000E+00 -0.00000000000E+00 -0.14128856045E+03  0.14128856045E+03  0.00000000000E+00 0. -1.
         -6    2    1    2    0  503  0.16200318611E+03 -0.24702813757E+03  0.14194023901E+03  0.37054801162E+03  0.17288974638E+03 0.  0.
        -24    2    3    3    0    0  0.87507024437E+02 -0.51592842800E+02  0.24202654082E+02  0.13048789113E+03  0.78243341646E+02 0.  0.
          6    2    1    2  501    0 -0.16200318611E+03  0.24702813757E+03  0.10594899407E+04  0.11134592890E+04  0.17321870778E+03 0.  0.
         24    2    5    5    0    0 -0.90220175377E+02  0.12688554952E+03  0.35725340832E+03  0.39739694568E+03  0.77812029645E+02 0.  0.
          5    1    5    5  501    0 -0.71783010733E+02  0.12014258805E+03  0.70223653237E+03  0.71606234330E+03  0.47000000000E+01 0. -1.
        -13    1    6    6    0    0 -0.49356722554E+02  0.42505267566E+02  0.71809315046E+02  0.96950304587E+02  0.00000000000E+00 0.  1.
         14    1    6    6    0    0 -0.40863452823E+02  0.84380281954E+02  0.28544409327E+03  0.30044664109E+03  0.00000000000E+00 0. -1.
         -5    1    3    3    0  503  0.74496161673E+02 -0.19543529477E+03  0.11773758493E+03  0.24006012049E+03  0.47000000000E+01 0.  1.
         13    1    4    4    0    0  0.53473249188E+02 -0.48146454155E+02  0.50018672613E+02  0.87631826618E+02  0.00000000000E+00 0. -1.
        -14    1    4    4    0    0  0.34033775249E+02 -0.34463886442E+01 -0.25816018530E+02  0.42856064508E+02  0.00000000000E+00 0.  1.
</event>
<event>
12    1  0.8691829E-002  0.1827564E+03  0.7818608E-02  0.1166615E+00
         21   -1    0    0  501  502  0.00000000000E+00  0.00000000000E+00  0.54428408847E+03  0.54428408847E+03  0.00000000000E+00 0. -1.
         21   -1    0    0  502  503 -0.00000000000E+00 -0.00000000000E+00 -0.73743790285E+02  0.73743790285E+02  0.00000000000E+00 0. -1.
         -6    2    1    2    0  503 -0.57936609638E+02  0.23867866624E+02  0.95647054131E+02  0.20096091722E+03  0.16525920698E+03 0.  0.
        -24    2    3    3    0    0 -0.12355093377E+02 -0.31661328807E+02  0.97445386706E+02  0.12894362645E+03  0.77303087496E+02 0.  0.
          6    2    1    2  501    0  0.57936609638E+02 -0.23867866624E+02  0.37489324405E+03  0.41706696154E+03  0.17167871206E+03 0.  0.
         24    2    5    5    0    0 -0.25965858732E+02 -0.37611217917E+02  0.16659453055E+03  0.19203596823E+03  0.83876373018E+02 0.  0.
          5    1    5    5  501    0  0.83902468371E+02  0.13743351294E+02  0.20829871350E+03  0.22503099331E+03  0.47000000000E+01 0. -1.
        -11    1    6    6    0    0 -0.34445143933E+02 -0.43125345059E+02  0.17195015760E+03  0.18059102975E+03  0.00000000000E+00 0.  1.
         12    1    6    6    0    0  0.84792852002E+01  0.55141271415E+01 -0.53556270511E+01  0.11444938477E+02  0.00000000000E+00 0. -1.
         -5    1    3    3    0  503 -0.45581516261E+02  0.55529195431E+02 -0.17983325752E+01  0.72017290770E+02  0.47000000000E+01 0.  1.
         13    1    4    4    0    0 -0.39988540675E+02 -0.22711919075E+02  0.86383075202E+02  0.97861894191E+02  0.00000000000E+00 0. -1.
        -14    1    4    4    0    0  0.27633447297E+02 -0.89494097318E+01  0.11062311504E+02  0.31081732254E+02  0.00000000000E+00 0.  1.
</event>
<event>
12    1  0.8691829E-002  0.2187967E+03  0.7818608E-02  0.1134961E+00
         21   -1    0    0  503  502  0.00000000000E+00  0.00000000000E+00  0.65368561218E+03  0.65368561218E+03  0.00000000000E+00 0. -1.
         21   -1    0    0  501  503 -0.00000000000E+00 -0.00000000000E+00 -0.82519748555E+02  0.82519748555E+02  0.00000000000E+00 0.  1.
          6    2    1    2  501    0 -0.12503142171E+03 -0.49936514405E+02  0.15947908859E+03  0.26998869926E+03  0.17127114801E+03 0.  0.
         24    2    3    3    0    0 -0.13809259873E+03 -0.28912709905E+02  0.17655160382E+03  0.23955589662E+03  0.79442105819E+02 0.  0.
         -6    2    1    2    0  502  0.12503142171E+03  0.49936514405E+02  0.41168677503E+03  0.46621666148E+03  0.17246872996E+03 0.  0.
        -24    2    5    5    0    0  0.80454605182E+02  0.52575547602E+02  0.40124165883E+03  0.42011625453E+03  0.79155965252E+02 0.  0.
          5    1    3    3  501    0  0.13061177011E+02 -0.21023804500E+02 -0.17072515223E+02  0.30432802641E+02  0.47000000000E+01 0. -1.
        -11    1    4    4    0    0 -0.48362135542E+02 -0.49036264222E+02  0.62082530051E+02  0.92723739682E+02  0.00000000000E+00 0.  1.
         12    1    4    4    0    0 -0.89730463183E+02  0.20123554317E+02  0.11446907376E+03  0.14683215693E+03  0.00000000000E+00 0. -1.
         -5    1    5    5    0  502  0.44576816532E+02 -0.26390331973E+01  0.10445116198E+02  0.46100406948E+02  0.47000000000E+01 0.  1.
         13    1    6    6    0    0  0.74092031049E+02  0.29663173422E+01  0.25469477202E+03  0.26526940080E+03  0.00000000000E+00 0. -1.
        -14    1    6    6    0    0  0.63625741331E+01  0.49609230260E+02  0.14654688681E+03  0.15484685373E+03  0.00000000000E+00 0.  1.
</event>
<event>
12    1  0.8691829E-002  0.1965357E+03  0.7818608E-02  0.1152991E+00
         21   -1    0    0  501  502  0.00000000000E+00  0.00000000000E+00  0.91487818641E+02  0.91487818641E+02  0.00000000000E+00 0.  1.
         21   -1    0    0  502  503 -0.00000000000E+00 -0.00000000000E+00 -0.59595165784E+03  0.59595165784E+03  0.00000000000E+00 0.  1.
         -6    2    1    2    0  503 -0.62050614600E+02 -0.69537190743E+02 -0.44000212575E+03  0.48190057970E+03  0.17303351808E+03 0.  0.
        -24    2    3    3    0    0  0.26636399144E+02 -0.60570427562E+01 -0.15611951819E+03  0.17775170090E+03  0.80474702167E+02 0.  0.
          6    2    1    2  501    0  0.62050614600E+02  0.69537190743E+02 -0.64461713453E+02  0.20553889679E+03  0.17147952042E+03 0.  0.
         24    2    5    5    0    0 -0.18829558431E+02  0.58707803120E+01 -0.54811088396E+02  0.10204861333E+03  0.83789293699E+02 0.  0.
          5    1    5    5  501    0  0.80880173031E+02  0.63666410431E+02 -0.96506250564E+01  0.10349028346E+03  0.47000000000E+01 0. -1.
        -13    1    6    6    0    0  0.26618248632E+02  0.72887010810E+01  0.38101729496E+01  0.27859894859E+02  0.00000000000E+00 0.  1.
         14    1    6    6    0    0 -0.45447807063E+02 -0.14179207690E+01 -0.58621261346E+02  0.74188718468E+02  0.00000000000E+00 0. -1.
         -5    1    3    3    0  503 -0.88687013744E+02 -0.63480147987E+02 -0.28388260756E+03  0.30414887880E+03  0.47000000000E+01 0.  1.
         13    1    4    4    0    0  0.33465679106E+01  0.33730225670E+02 -0.37821797448E+02  0.50787951354E+02  0.00000000000E+00 0. -1.
        -14    1    4    4    0    0  0.23289831233E+02 -0.39787268426E+02 -0.11829772074E+03  0.12696374955E+03  0.00000000000E+00 0.  1.
</event>
<event>
12    1  0.8691829E-002  0.3273291E+03  0.7818608E-02  0.1072418E+00
         21   -1    0    0  503  502  0.00000000000E+00  0.00000000000E+00  0.16177825569E+03  0.16177825569E+03  0.00000000000E+00 0.  1.
         21   -1    0    0  501  503 -0.00000000000E+00 -0.00000000000E+00 -0.70234476701E+03  0.70234476701E+03  0.00000000000E+00 0. -1.
          6    2    1    2  501    0 -0.21699800741E+03  0.17207404487E+03 -0.37528501984E+03  0.49743203311E+03  0.17292243728E+03 0.  0.
         24    2    3    3    0    0 -0.31005944536E+02  0.88347984224E+02 -0.14571375613E+03  0.19030314192E+03  0.78841944337E+02 0.  0.
         -6    2    1    2    0  502  0.21699800741E+03 -0.17207404487E+03 -0.16528149148E+03  0.36669098959E+03  0.17448982287E+03 0.  0.
        -24    2    5    5    0    0  0.11582506835E+03 -0.27806069339E+02 -0.10879637154E+03  0.18159136470E+03  0.83367555573E+02 0.  0.
          5    1    3    3  501    0 -0.18599206287E+03  0.83726060643E+02 -0.22957126371E+03  0.30712889119E+03  0.47000000000E+01 0. -1.
        -13    1    4    4    0    0 -0.10755183547E+02  0.15607388979E+02  0.67874562996E+01  0.20132911535E+02  0.00000000000E+00 0.  1.
         14    1    4    4    0    0 -0.20250760989E+02  0.72740595245E+02 -0.15250121243E+03  0.17017023039E+03  0.00000000000E+00 0. -1.
         -5    1    5    5    0  502  0.10117293906E+03 -0.14426797553E+03 -0.56485119935E+02  0.18509962489E+03  0.47000000000E+01 0.  1.
         13    1    6    6    0    0  0.10846506705E+03 -0.46833045763E+02 -0.10963062761E+03  0.16117344526E+03  0.00000000000E+00 0. -1.
        -14    1    6    6    0    0  0.73600012948E+01  0.19026976425E+02  0.83425607213E+00  0.20417919436E+02  0.00000000000E+00 0.  1.
</event>
<event>
12    1  0.8691829E-002  0.1816099E+03  0.7818608E-02  0.1166543E+00
         21   -1    0    0  503  502  0.00000000000E+00  0.00000000000E+00  0.65134865657E+03  0.65134865657E+03  0.00000000000E+00 0.  1.
         21   -1    0    0  501  503 -0.00000000000E+00 -0.00000000000E+00 -0.65731489933E+02  0.65731489933E+02  0.00000000000E+00 0.  1.
          6    2    1    2  501    0 -0.55215841722E+02 -0.17339767244E+02  0.11984032242E+03  0.21758641349E+03  0.17214147598E+03 0.  0.
         24    2    3    3    0    0 -0.13992553371E+02 -0.72260413823E+01 -0.95354610929E+01  0.81344605252E+02  0.79233910426E+02 0.  0.
         -6    2    1    2    0  502  0.55215841722E+02  0.17339767244E+02  0.46577684421E+03  0.49949373301E+03  0.17086972816E+03 0.  0.
        -24    2    5    5    0    0  0.96272163457E+01  0.59685637848E+02  0.38370888374E+03  0.39639797336E+03  0.79017638301E+02 0.  0.
          5    1    3    3  501    0 -0.41223288351E+02 -0.10113725862E+02  0.12937578351E+03  0.13624180824E+03  0.47000000000E+01 0. -1.
        -13    1    4    4    0    0 -0.38523588580E+02 -0.21231241972E+02 -0.23459744457E+02  0.49851701302E+02  0.00000000000E+00 0.  1.
         14    1    4    4    0    0  0.24531035209E+02  0.14005200590E+02  0.13924283364E+02  0.31492903950E+02  0.00000000000E+00 0. -1.
         -5    1    5    5    0  502  0.45588625377E+02 -0.42345870603E+02  0.82067960470E+02  0.10309575964E+03  0.47000000000E+01 0.  1.
         13    1    6    6    0    0  0.10415242677E+01 -0.10939898952E+02  0.69994934551E+01  0.13029162310E+02  0.00000000000E+00 0. -1.
        -14    1    6    6    0    0  0.85856920780E+01  0.70625536799E+02  0.37670939029E+03  0.38336881105E+03  0.00000000000E+00 0.  1.
</event>
<event>
12    1  0.8691829E-002  0.1926839E+03  0.7818608E-02  0.1156110E+00
         21   -1    0    0  501  502  0.00000000000E+00  0.00000000000E+00  0.54349130326E+03  0.54349130326E+03  0.00000000000E+00 0.  1.
         21   -1    0    0  502  503 -0.00000000000E+00 -0.00000000000E+00 -0.10747459659E+03  0.10747459659E+03  0.00000000000E+00 0.  1.
         -6    2    1    2    0  503  0.43486336140E+02 -0.74862099152E+02  0.21267956547E+02  0.19364366747E+03  0.17190156676E+03 0.  0.
        -24    2    3    3    0    0 -0.18348766610E+02 -0.81769077069E+02  0.43459219672E+02  0.12741808000E+03  0.85579227245E+02 0.  0.
          6    2    1    2  501    0 -0.43486336140E+02  0.74862099152E+02  0.41474875013E+03  0.45732223239E+03  0.17213861620E+03 0.  0.
         24    2    5    5    0    0 -0.39026324745E+01 -0.14482734303E+02  0.27615603285E+03  0.28767730867E+03  0.79190272847E+02 0.  0.
          5    1    5    5  501    0 -0.39583703666E+02  0.89344833455E+02  0.13859271728E+03  0.16964492372E+03  0.47000000000E+01 0. -1.
        -11    1    6    6    0    0 -0.37672322823E+02 -0.50727053673E+01  0.20333387202E+03  0.20685647140E+03  0.00000000000E+00 0.  1.
         12    1    6    6    0    0  0.33769690349E+02 -0.94100289361E+01  0.72822160824E+02  0.80820837275E+02  0.00000000000E+00 0. -1.
         -5    1    3    3    0  503  0.61835102750E+02  0.69069779172E+01 -0.22191263124E+02  0.66225587465E+02  0.47000000000E+01 0.  1.
         11    1    4    4    0    0  0.31665713691E+02 -0.12695680382E+02  0.17075313422E+02  0.38150544588E+02  0.00000000000E+00 0. -1.
        -12    1    4    4    0    0 -0.50014480301E+02 -0.69073396687E+02  0.26383906250E+02  0.89267535413E+02  0.00000000000E+00 0.  1.
</event>
<event>
12    1  0.8691829E-002  0.1725342E+03  0.7818608E-02  0.1175343E+00
         21   -1    0    0  503  502  0.00000000000E+00  0.00000000000E+00  0.68056475659E+02  0.68056475659E+02  0.00000000000E+00 0. -1.
         21   -1    0    0  501  503 -0.00000000000E+00 -0.00000000000E+00 -0.54834331363E+03  0.54834331363E+03  0.00000000000E+00 0. -1.
          6    2    1    2  501    0 -0.15055836102E+02 -0.11827510697E+01 -0.37970879693E+03  0.41706932808E+03  0.17187197810E+03 0.  0.
         24    2    3    3    0    0  0.36103852689E+02  0.49614188840E+02 -0.20954702626E+03  0.23220515886E+03  0.79020400369E+02 0.  0.
         -6    2    1    2    0  502  0.15055836102E+02  0.11827510697E+01 -0.10057804104E+03  0.19933046121E+03  0.17143107457E+03 0.  0.
        -24    2    5    5    0    0 -0.57098730170E+02 -0.57974328147E+01 -0.68614964602E+02  0.11996590580E+03  0.79937037548E+02 0.  0.
          5    1    3    3  501    0 -0.51159688792E+02 -0.50796939910E+02 -0.17016177067E+03  0.18486416921E+03  0.47000000000E+01 0. -1.
        -13    1    4    4    0    0  0.33090618697E+02 -0.49239411691E+01 -0.31436354744E+02  0.45907283104E+02  0.00000000000E+00 0.  1.
         14    1    4    4    0    0  0.30132339918E+01  0.54538130009E+02 -0.17811067152E+03  0.18629787576E+03  0.00000000000E+00 0. -1.
         -5    1    5    5    0  502  0.72154566273E+02  0.69801838843E+01 -0.31963076440E+02  0.79364555417E+02  0.47000000000E+01 0.  1.
         13    1    6    6    0    0  0.14585925083E+02 -0.19177955462E+02 -0.26244157660E+02  0.35627222703E+02  0.00000000000E+00 0. -1.
        -14    1    6    6    0    0 -0.71684655253E+02  0.13380522648E+02 -0.42370806942E+02  0.84338683094E+02  0.00000000000E+00 0.  1.
</event>
<event>
12    1  0.8691829E-002  0.1881949E+03  0.7818608E-02  0.1160790E+00
         21   -1    0    0  501  502  0.00000000000E+00  0.00000000000E+00  0.46813197815E+03  0.46813197815E+03  0.00000000000E+00 0.  1.
         21   -1    0    0  502  503 -0.00000000000E+00 -0.00000000000E+00 -0.45423791051E+03  0.45423791051E+03  0.00000000000E+00 0.  1.
         -6    2    1    2    0  503  0.74612085225E+02 -0.19171016609E+02 -0.41473829722E+03  0.45543953103E+03  0.17170562049E+03 0.  0.
        -24    2    3    3    0    0  0.29122395434E+02 -0.19971401596E+02 -0.81968954726E+02  0.11954151408E+03  0.79525425187E+02 0.  0.
          6    2    1    2  501    0 -0.74612085225E+02  0.19171016609E+02  0.42863236486E+03  0.46693035762E+03  0.16841544917E+03 0.  0.
         24    2    5    5    0    0 -0.10348858212E+03  0.51097708824E+02  0.29360390205E+03  0.32512788402E+03  0.78638585919E+02 0.  0.
          5    1    5    5  501    0  0.28876496893E+02 -0.31926692215E+02  0.13502846281E+03  0.14180247359E+03  0.47000000000E+01 0. -1.
        -13    1    6    6    0    0 -0.13503501554E+02 -0.20580275423E+02  0.51205259205E+02  0.56814354356E+02  0.00000000000E+00 0.  1.
         14    1    6    6    0    0 -0.89985080564E+02  0.71677984247E+02  0.24239864284E+03  0.26831352967E+03  0.00000000000E+00 0. -1.
         -5    1    3    3    0  503  0.45489689791E+02  0.80038498641E+00 -0.33276934249E+03  0.33589801696E+03  0.47000000000E+01 0.  1.
         11    1    4    4    0    0  0.14887952743E+02 -0.49226433515E+02 -0.64884716118E+02  0.82794439905E+02  0.00000000000E+00 0. -1.
        -12    1    4    4    0    0  0.14234442691E+02  0.29255031919E+02 -0.17084238608E+02  0.36747074171E+02  0.00000000000E+00 0.  1.
</event>
<event>
12    1  0.8691829E-002  0.1749275E+03  0.7818608E-02  0.1173291E+00
         21   -1    0    0  503  502  0.00000000000E+00  0.00000000000E+00  0.16707957246E+02  0.16707957246E+02  0.00000000000E+00 0. -1.
         21   -1    0    0  501  503 -0.00000000000E+00 -0.00000000000E+00 -0.18422516864E+04  0.18422516864E+04  0.00000000000E+00 0. -1.
          6    2    1    2  501    0 -0.20126116684E+02 -0.55372709009E+01 -0.79731811010E+03  0.81628168738E+03  0.17367758209E+03 0.  0.
         24    2    3    3    0    0 -0.64398117396E+02 -0.47517526817E+02 -0.46174550613E+03  0.47517552434E+03  0.78599196036E+02 0.  0.
         -6    2    1    2    0  502  0.20126116684E+02  0.55372709009E+01 -0.10282256191E+04  0.10426779563E+04  0.17173722619E+03 0.  0.
        -24    2    5    5    0    0 -0.42466289801E+02 -0.23199349047E+02 -0.40459202446E+03  0.41523508797E+03  0.79899164284E+02 0.  0.
          5    1    3    3  501    0  0.44272000712E+02  0.41980255916E+02 -0.33557260396E+03  0.34110616304E+03  0.47000000000E+01 0. -1.
        -11    1    4    4    0    0 -0.15299010999E+02 -0.54575827799E+02 -0.32049503352E+03  0.32546835058E+03  0.00000000000E+00 0.  1.
         12    1    4    4    0    0 -0.49099106397E+02  0.70583009821E+01 -0.14125047261E+03  0.14970717376E+03  0.00000000000E+00 0. -1.
         -5    1    5    5    0  502  0.62592406484E+02  0.28736619948E+02 -0.62363359464E+03  0.62744286835E+03  0.47000000000E+01 0.  1.
         11    1    6    6    0    0  0.18262647119E+02 -0.20120384646E+02 -0.68609944467E+02  0.73794841540E+02  0.00000000000E+00 0. -1.
        -12    1    6    6    0    0 -0.60728936920E+02 -0.30789644010E+01 -0.33598207999E+03  0.34144024643E+03  0.00000000000E+00 0.  1.
</event>
<event>
12    1  0.8691829E-002  0.2856418E+03  0.7818608E-02  0.1092681E+00
         21   -1    0    0  503  502  0.00000000000E+00  0.00000000000E+00  0.11587585872E+04  0.11587585872E+04  0.00000000000E+00 0.  1.
         21   -1    0    0  501  503 -0.00000000000E+00 -0.00000000000E+00 -0.68868755800E+03  0.68868755800E+03  0.00000000000E+00 0. -1.
          6    2    1    2  501    0 -0.21611693699E+03  0.69479177330E+02 -0.64024903408E+03  0.70097246288E+03  0.17294415728E+03 0.  0.
         24    2    3    3    0    0 -0.11948848175E+03  0.99080334626E+02 -0.48933858481E+03  0.51928773437E+03  0.78186255191E+02 0.  0.
         -6    2    1    2    0  502  0.21611693699E+03 -0.69479177330E+02  0.11103200633E+04  0.11464736824E+04  0.17337062841E+03 0.  0.
        -24    2    5    5    0    0  0.14513614612E+03  0.12947337282E+02  0.49467296634E+03  0.52127304176E+03  0.76105886681E+02 0.  0.
          5    1    3    3  501    0 -0.96628455240E+02 -0.29601157296E+02 -0.15091044926E+03  0.18168472851E+03  0.47000000000E+01 0. -1.
        -11    1    4    4    0    0 -0.17341101950E+02 -0.79303880235E+01 -0.11859799061E+03  0.12012113988E+03  0.00000000000E+00 0.  1.
         12    1    4    4    0    0 -0.10214737980E+03  0.10701072265E+03 -0.37074059421E+03  0.39916659449E+03  0.00000000000E+00 0. -1.
         -5    1    5    5    0  502  0.70980790878E+02 -0.82426514612E+02  0.61564709699E+03  0.62520064061E+03  0.47000000000E+01 0.  1.
         13    1    6    6    0    0  0.27202660175E+02 -0.93729746756E+01  0.21521218599E+03  0.21712697293E+03  0.00000000000E+00 0. -1.
        -14    1    6    6    0    0  0.11793348594E+03  0.22320311957E+02  0.27946078034E+03  0.30414606883E+03  0.00000000000E+00 0.  1.
</event>
<event>
12    1  0.8691829E-002  0.1718200E+03  0.7818608E-02  0.1176182E+00
         21   -1    0    0  501  502  0.00000000000E+00  0.00000000000E+00  0.11430910511E+04  0.11430910511E+04  0.00000000000E+00 0. -1.
         21   -1    0    0  502  503 -0.00000000000E+00 -0.00000000000E+00 -0.28793371714E+02  0.28793371714E+02  0.00000000000E+00 0. -1.
         -6    2    1    2    0  503 -0.79053763483E+01  0.41987331569E+01  0.36383424553E+03  0.40200295456E+03  0.17073632571E+03 0.  0.
        -24    2    3    3    0    0 -0.33965817005E+02  0.79348753302E+00  0.81274151662E+02  0.11818428196E+03  0.78789151714E+02 0.  0.
          6    2    1    2  501    0  0.79053763483E+01 -0.41987331569E+01  0.75046343387E+03  0.76988146828E+03  0.17158666987E+03 0.  0.
         24    2    5    5    0    0 -0.43695291932E+02  0.25794601384E+02  0.61260228306E+03  0.61958171449E+03  0.77622829924E+02 0.  0.
          5    1    5    5  501    0  0.51600668280E+02 -0.29993334541E+02  0.13786115081E+03  0.15029975378E+03  0.47000000000E+01 0. -1.
        -13    1    6    6    0    0 -0.17003134611E+02  0.37872920667E+02  0.13882503912E+03  0.14489946926E+03  0.00000000000E+00 0.  1.
         14    1    6    6    0    0 -0.26692157321E+02 -0.12078319283E+02  0.47377724394E+03  0.47468224523E+03  0.00000000000E+00 0. -1.
         -5    1    3    3    0  503  0.26060440657E+02  0.34052456239E+01  0.28256009387E+03  0.28381867259E+03  0.47000000000E+01 0.  1.
         11    1    4    4    0    0 -0.30346014558E+02  0.37451005866E+02  0.53772459266E+02  0.72214512499E+02  0.00000000000E+00 0. -1.
        -12    1    4    4    0    0 -0.36198024471E+01 -0.36657518333E+02  0.27501692396E+02  0.45969769466E+02  0.00000000000E+00 0.  1.
</event>
<event>
12    1  0.8691829E-002  0.2074812E+03  0.7818608E-02  0.1143680E+00
         21   -1    0    0  503  502  0.00000000000E+00  0.00000000000E+00  0.21539819272E+03  0.21539819272E+03  0.00000000000E+00 0.  1.
         21   -1    0    0  501  503 -0.00000000000E+00 -0.00000000000E+00 -0.20065402938E+03  0.20065402938E+03  0.00000000000E+00 0.  1.
          6    2    1    2  501    0 -0.11439813295E+03  0.20349140564E+02 -0.93327350159E+01  0.20717868077E+03  0.17127429894E+03 0.  0.
         24    2    3    3    0    0 -0.11601612810E+03 -0.12729180788E+02  0.40851200362E+02  0.14686856037E+03  0.79245059355E+02 0.  0.
         -6    2    1    2    0  502  0.11439813295E+03 -0.20349140564E+02  0.24076898356E+02  0.20887354133E+03  0.17189368484E+03 0.  0.
        -24    2    5    5    0    0 -0.10441224143E+02  0.17846039844E+02  0.21034152168E+01  0.76402182740E+02  0.73521213756E+02 0.  0.
          5    1    3    3  501    0  0.16179951525E+01  0.33078321352E+02 -0.50183935377E+02  0.60310120392E+02  0.47000000000E+01 0. -1.
        -13    1    4    4    0    0 -0.20823947641E+02  0.29635580540E+02  0.16842094541E+02  0.39944468676E+02  0.00000000000E+00 0.  1.
         14    1    4    4    0    0 -0.95192180460E+02 -0.42364761328E+02  0.24009105820E+02  0.10692409170E+03  0.00000000000E+00 0. -1.
         -5    1    5    5    0  502  0.12483935709E+03 -0.38195180408E+02  0.21973483139E+02  0.13247135859E+03  0.47000000000E+01 0.  1.
         13    1    6    6    0    0 -0.22411513824E+01  0.17008326061E+02 -0.34688190334E+02  0.38698533093E+02  0.00000000000E+00 0. -1.
        -14    1    6    6    0    0 -0.82000727610E+01  0.83771378224E+00  0.36791605551E+02  0.37703649646E+02  0.00000000000E+00 0.  1.
</event>
<event>
12    1  0.8691829E-002  0.2161762E+03  0.7818608E-02  0.1137444E+00
         21   -1    0    0  503  502  0.00000000000E+00  0.00000000000E+00  0.18191678905E+03  0.18191678905E+03  0.00000000000E+00 0. -1.
         21   -1    0    0  501  503 -0.00000000000E+00 -0.00000000000E+00 -0.32355788263E+03  0.32355788263E+03  0.00000000000E+00 0.  1.
          6    2    1    2  501    0 -0.52264732167E+02 -0.11533512792E+03 -0.18953156955E+03  0.28749672691E+03  0.17520946940E+03 0.  0.
         24    2    3    3    0    0 -0.87542310576E+02 -0.13068203287E+03 -0.14472349005E+03  0.22825241057E+03  0.80080113047E+02 0.  0.
         -6    2    1    2    0  502  0.52264732167E+02  0.11533512792E+03  0.47890475967E+02  0.21797794476E+03  0.17084230376E+03 0.  0.
        -24    2    5    5    0    0  0.84654120166E+02  0.29986234451E+02  0.13904272709E+02  0.12045534182E+03  0.79061155168E+02 0.  0.
          5    1    3    3  501    0  0.35277578409E+02  0.15346904946E+02 -0.44808079502E+02  0.59244316339E+02  0.47000000000E+01 0. -1.
        -11    1    4    4    0    0  0.11882345938E+02  0.73642475524E-02 -0.14001064140E+02  0.18363550754E+02  0.00000000000E+00 0.  1.
         12    1    4    4    0    0 -0.99424656514E+02 -0.13068939712E+03 -0.13072242591E+03  0.20988885982E+03  0.00000000000E+00 0. -1.
         -5    1    5    5    0  502 -0.32389387999E+02  0.85348893472E+02  0.33986203258E+02  0.97522602938E+02  0.47000000000E+01 0.  1.
         13    1    6    6    0    0  0.65374009768E+02  0.43987909512E+02  0.37196982550E+02  0.87133878871E+02  0.00000000000E+00 0. -1.
        -14    1    6    6    0    0  0.19280110399E+02 -0.14001675061E+02 -0.23292709841E+02  0.33321462952E+02  0.00000000000E+00 0.  1.
</event>
<event>
12    1  0.8691829E-002  0.1898138E+03  0.7818608E-02  0.1162598E+00
         21   -1    0    0  503  502  0.00000000000E+00  0.00000000000E+00  0.18785282142E+04  0.18785282142E+04  0.00000000000E+00 0.  1.
         21   -1    0    0  501  503 -0.00000000000E+00 -0.00000000000E+00 -0.17674454413E+02  0.17674454413E+02  0.00000000000E+00 0. -1.
          6    2    1    2  501    0 -0.35805721295E+02 -0.73184305781E+02  0.97469631144E+03  0.98994426992E+03  0.15270483202E+03 0.  0.
         24    2    3    3    0    0 -0.60879767008E+02 -0.91766105559E+02  0.66325656761E+03  0.67690945542E+03  0.78547897496E+02 0.  0.
         -6    2    1    2    0  502  0.35805721295E+02  0.73184305781E+02  0.88615744835E+03  0.90625839869E+03  0.17143882189E+03 0.  0.
        -24    2    5    5    0    0  0.39954326153E+02  0.11534444118E+03  0.66617833285E+03  0.68218789819E+03  0.81768386267E+02 0.  0.
          5    1    3    3  501    0  0.25074045713E+02  0.18581799778E+02  0.31143974384E+03  0.31303481451E+03  0.47000000000E+01 0. -1.
        -11    1    4    4    0    0 -0.34657514179E+02 -0.56537434553E+02  0.56983059432E+03  0.57367632949E+03  0.00000000000E+00 0.  1.
         12    1    4    4    0    0 -0.26222252829E+02 -0.35228671007E+02  0.93425973291E+02  0.10323312593E+03  0.00000000000E+00 0. -1.
         -5    1    5    5    0  502 -0.41486048576E+01 -0.42160135401E+02  0.21997911550E+03  0.22407050050E+03  0.47000000000E+01 0.  1.
         13    1    6    6    0    0  0.46888770943E+02  0.27402623363E+02  0.33914323600E+03  0.34346411040E+03  0.00000000000E+00 0. -1.
        -14    1    6    6    0    0 -0.69344447903E+01  0.87941817820E+02  0.32703509685E+03  0.33872378779E+03  0.00000000000E+00 0.  1.
</event>
<event>
12    1  0.8691829E-002  0.2366605E+03  0.7818608E-02  0.1122178E+00
         21   -1    0    0  503  502  0.00000000000E+00  0.00000000000E+00  0.18560950522E+03  0.18560950522E+03  0.00000000000E+00 0.  1.
         21   -1    0    0  501  503 -0.00000000000E+00 -0.00000000000E+00 -0.34602349578E+03  0.34602349578E+03  0.00000000000E+00 0. -1.
          6    2    1    2  501    0 -0.51660443648E+02 -0.15381856652E+03 -0.17653457304E+03  0.29525017908E+03  0.17227669583E+03 0.  0.
         24    2    3    3    0    0  0.11690172678E+02 -0.25213671786E+02 -0.10448131266E+03  0.13473138931E+03  0.80397843187E+02 0.  0.
         -6    2    1    2    0  502  0.51660443648E+02  0.15381856652E+03  0.16120582470E+02  0.23638282192E+03  0.17113740817E+03 0.  0.
        -24    2    5    5    0    0  0.64528727136E+02  0.10847103693E+03 -0.47174999136E+02  0.15732327594E+03  0.81210899082E+02 0.  0.
          5    1    3    3  501    0 -0.63350616326E+02 -0.12860489473E+03 -0.72053260377E+02  0.16051878977E+03  0.47000000000E+01 0. -1.
        -13    1    4    4    0    0 -0.25709925316E+02  0.15137806784E+02 -0.32272124031E+02  0.43950465793E+02  0.00000000000E+00 0.  1.
         14    1    4    4    0    0  0.37400097994E+02 -0.40351478570E+02 -0.72209188628E+02  0.90780923520E+02  0.00000000000E+00 0. -1.
         -5    1    5    5    0  502 -0.12868283488E+02  0.45347529586E+02  0.63295581606E+02  0.79059545978E+02  0.47000000000E+01 0.  1.
         11    1    6    6    0    0  0.50221557397E+02  0.87190469103E+02  0.33367344098E+01  0.10067530246E+03  0.00000000000E+00 0. -1.
        -12    1    6    6    0    0  0.14307169739E+02  0.21280567831E+02 -0.50511733546E+02  0.56647973476E+02  0.00000000000E+00 0.  1.
</event>
<event>
12    1  0.8691829E-002  0.2920557E+03  0.7818608E-02  0.1089700E+00
         21   -1    0    0  503  502  0.00000000000E+00  0.00000000000E+00  0.91037178775E+03  0.91037178775E+03  0.00000000000E+00 0. -1.
         21   -1    0    0  501  503 -0.00000000000E+00 -0.00000000000E+00 -0.12466238114E+03  0.12466238114E+03  0.00000000000E+00 0. -1.
          6    2    1    2  501    0 -0.23229018685E+03  0.33899144304E+02  0.12904646486E+03  0.31635290042E+03  0.16828037503E+03 0.  0.
         24    2    3    3    0    0 -0.18790543141E+03  0.79739728074E+02  0.85485476070E+02  0.23895125069E+03  0.90128010096E+02 0.  0.
         -6    2    1    2    0  502  0.23229018685E+03 -0.33899144304E+02  0.65666294176E+03  0.71868126847E+03  0.17374885233E+03 0.  0.
        -24    2    5    5    0    0  0.93205508009E+02  0.17118509768E+02  0.43638591200E+03  0.45317908627E+03  0.77190089664E+02 0.  0.
          5    1    3    3  501    0 -0.44384755444E+02 -0.45840583770E+02  0.43560988790E+02  0.77401649728E+02  0.47000000000E+01 0. -1.
        -13    1    4    4    0    0  0.65219536913E+01  0.14040651012E+02  0.16039686302E+02  0.22292314762E+02  0.00000000000E+00 0.  1.
         14    1    4    4    0    0 -0.19442738510E+03  0.65699077062E+02  0.69445789769E+02  0.21665893593E+03  0.00000000000E+00 0. -1.
         -5    1    5    5    0  502  0.13908467884E+03 -0.51017654072E+02  0.22027702975E+03  0.26550218220E+03  0.47000000000E+01 0.  1.
         11    1    6    6    0    0  0.10560223348E+03  0.17627076600E+02  0.35311151748E+03  0.36898548661E+03  0.00000000000E+00 0. -1.
        -12    1    6    6    0    0 -0.12396725474E+02 -0.50856683231E+00  0.83274394518E+02  0.84193599668E+02  0.00000000000E+00 0.  1.
</event>
<event>
12    1  0.8691829E-002  0.1798416E+03  0.7818608E-02  0.1168203E+00
         21   -1    0    0  503  502  0.00000000000E+00  0.00000000000E+00  0.53869814594E+02  0.53869814594E+02  0.00000000000E+00 0.  1.
         21   -1    0    0  501  503 -0.00000000000E+00 -0.00000000000E+00 -0.60402779747E+03  0.60402779747E+03  0.00000000000E+00 0.  1.
          6    2    1    2  501    0 -0.25952912239E+02 -0.41080184443E+02 -0.23884026870E+03  0.29836775238E+03  0.17209737506E+03 0.  0.
         24    2    3    3    0    0  0.11177469719E+02  0.25159793365E+02 -0.67274410056E+02  0.11068894757E+03  0.83476019512E+02 0.  0.
         -6    2    1    2    0  502  0.25952912239E+02  0.41080184443E+02 -0.31131771418E+03  0.35952985968E+03  0.17315272345E+03 0.  0.
        -24    2    5    5    0    0  0.21807538723E+02  0.32503454641E+02 -0.58218688676E+02  0.10620802658E+03  0.79741368756E+02 0.  0.
          5    1    3    3  501    0 -0.37130381959E+02 -0.66239977807E+02 -0.17156585865E+03  0.18767880482E+03  0.47000000000E+01 0. -1.
        -13    1    4    4    0    0 -0.90774567563E+00 -0.30509442320E+02 -0.28656634449E+02  0.41867084575E+02  0.00000000000E+00 0.  1.
         14    1    4    4    0    0  0.12085215395E+02  0.55669235684E+02 -0.38617775607E+02  0.68821862992E+02  0.00000000000E+00 0. -1.
         -5    1    5    5    0  502  0.41453735166E+01  0.85767298021E+01 -0.25309902550E+03  0.25332183310E+03  0.47000000000E+01 0.  1.
         13    1    6    6    0    0  0.34060115949E+02 -0.92512852725E+01 -0.51115749629E+02  0.62116806404E+02  0.00000000000E+00 0. -1.
        -14    1    6    6    0    0 -0.12252577226E+02  0.41754739913E+02 -0.71029390471E+01  0.44091220181E+02  0.00000000000E+00 0.  1.
</event>
<event>
12    1  0.8691829E-002  0.1847781E+03  0.7818608E-02  0.1163864E+00
         21   -1    0    0  503  502  0.00000000000E+00  0.00000000000E+00  0.19308795208E+03  0.19308795208E+03  0.00000000000E+00 0.  1.
         21   -1    0    0  501  503 -0.00000000000E+00 -0.00000000000E+00 -0.21093023454E+03  0.21093023454E+03  0.00000000000E+00 0.  1.
          6    2    1    2  501    0  0.40570199219E+02 -0.45830028675E+02 -0.92971328750E+02  0.20455056182E+03  0.17161273781E+03 0.  0.
         24    2    3    3    0    0 -0.18902373917E+02 -0.68206004056E+02 -0.91659303031E+02  0.14082079922E+03  0.80123098609E+02 0.  0.
         -6    2    1    2    0  502 -0.40570199219E+02  0.45830028675E+02  0.75129046291E+02  0.19946762480E+03  0.17434628518E+03 0.  0.
        -24    2    5    5    0    0 -0.55643681038E+02 -0.53224711540E+01  0.10008412864E+03  0.14040296339E+03  0.81065475905E+02 0.  0.
          5    1    3    3  501    0  0.59472573136E+02  0.22375975381E+02 -0.13120257180E+01  0.63729762601E+02  0.47000000000E+01 0. -1.
        -11    1    4    4    0    0  0.31328517472E+02 -0.27206202095E+02 -0.28759640849E+02  0.50485348183E+02  0.00000000000E+00 0.  1.
         12    1    4    4    0    0 -0.50230891389E+02 -0.40999801961E+02 -0.62899662183E+02  0.90335451033E+02  0.00000000000E+00 0. -1.
         -5    1    5    5    0  502  0.15073481819E+02  0.51152499829E+02 -0.24955082351E+02  0.59064661415E+02  0.47000000000E+01 0.  1.
         13    1    6    6    0    0 -0.24896818201E+02 -0.43070118662E+02  0.52469132161E+02  0.72304194262E+02  0.00000000000E+00 0. -1.
        -14    1    6    6    0    0 -0.30746862837E+02  0.37747647508E+02  0.47614996481E+02  0.68098769127E+02  0.00000000000E+00 0.  1.
</event>
<event>
12    1  0.8691829E-002  0.2181272E+03  0.7818608E-02  0.1135731E+00
         21   -1    0    0  503  502  0.00000000000E+00  0.00000000000E+00  0.41003344159E+03  0.41003344159E+03  0.00000000000E+00 0. -1.
         21   -1    0    0  501  503 -0.00000000000E+00 -0.00000000000E+00 -0.11872368619E+03  0.11872368619E+03  0.00000000000E+00 0. -1.
          6    2    1    2  501    0 -0.11795160554E+02 -0.13373449740E+03  0.19450621862E+03  0.29225359436E+03  0.17191699371E+03 0.  0.
         24    2    3    3    0    0 -0.16360703383E+02 -0.17265334074E+02  0.20822879729E+02  0.83031457871E+02  0.76778032666E+02 0.  0.
         -6    2    1    2    0  502  0.11795160554E+02  0.13373449740E+03  0.96803536769E+02  0.23650353342E+03  0.16893476546E+03 0.  0.
        -24    2    5    5    0    0  0.43148805183E+02  0.80446636993E+02 -0.60431705840E+00  0.12103480568E+03  0.79470612145E+02 0.  0.
          5    1    3    3  501    0  0.45655428285E+01 -0.11646916333E+03  0.17368333890E+03  0.20922213649E+03  0.47000000000E+01 0. -1.
        -11    1    4    4    0    0 -0.25840917917E+01 -0.44190488335E+02 -0.32365485067E+01  0.44384141716E+02  0.00000000000E+00 0.  1.
         12    1    4    4    0    0 -0.13776611591E+02  0.26925154261E+02  0.24059428235E+02  0.38647316154E+02  0.00000000000E+00 0. -1.
         -5    1    5    5    0  502 -0.31353644629E+02  0.53287860408E+02  0.97407853828E+02  0.11546872774E+03  0.47000000000E+01 0.  1.
         11    1    6    6    0    0  0.38087970117E+02  0.43641953412E+02  0.36550451002E+02  0.68492693287E+02  0.00000000000E+00 0. -1.
        -12    1    6    6    0    0  0.50608350657E+01  0.36804683581E+02 -0.37154768060E+02  0.52542112393E+02  0.00000000000E+00 0.  1.
</event>
<event>
12    1  0.8691829E-002  0.2135286E+03  0.7818608E-02  0.1138819E+00
         21   -1    0    0  501  502  0.00000000000E+00  0.00000000000E+00  0.21033785590E+03  0.21033785590E+03  0.00000000000E+00 0. -1.
         21   -1    0    0  502  503 -0.00000000000E+00 -0.00000000000E+00 -0.25432938421E+03  0.25432938421E+03  0.00000000000E+00 0. -1.
         -6    2    1    2    0  503  0.12308891232E+03 -0.25830285232E+02 -0.11139518969E+03  0.24083886171E+03  0.17255835260E+03 0.  0.
        -24    2    3    3    0    0  0.95863471181E+02 -0.48855481791E+02 -0.14123847757E+03  0.19410454720E+03  0.78432164902E+02 0.  0.
          6    2    1    2  501    0 -0.12308891232E+03  0.25830285232E+02  0.67403661382E+02  0.22382837840E+03  0.17244652922E+03 0.  0.
         24    2    5    5    0    0 -0.55162641504E+02 -0.51822469149E+02  0.32867047061E+02  0.11493027806E+03  0.80001504399E+02 0.  0.
          5    1    5    5  501    0 -0.67926270816E+02  0.77652754380E+02  0.34536614321E+02  0.10889810034E+03  0.47000000000E+01 0. -1.
        -13    1    6    6    0    0 -0.27963425480E+02 -0.18848747165E+02  0.56715003547E+02  0.65983483249E+02  0.00000000000E+00 0.  1.
         14    1    6    6    0    0 -0.27199216024E+02 -0.32973721984E+02 -0.23847956486E+02  0.48946794812E+02  0.00000000000E+00 0. -1.
         -5    1    3    3    0  503  0.27225441140E+02  0.23025196560E+02  0.29843287873E+02  0.46734314512E+02  0.47000000000E+01 0.  1.
         13    1    4    4    0    0  0.45842059473E+01 -0.40273366545E+02 -0.54266069717E+02  0.67733044517E+02  0.00000000000E+00 0. -1.
        -14    1    4    4    0    0  0.91279265234E+02 -0.85821152467E+01 -0.86972407848E+02  0.12637150268E+03  0.00000000000E+00 0.  1.
</event>
<event>
12    1  0.8691829E-002  0.1778542E+03  0.7818608E-02  0.1170879E+00
         21   -1    0    0  503  502  0.00000000000E+00  0.00000000000E+00  0.51978266908E+03  0.51978266908E+03  0.00000000000E+00 0. -1.
         21   -1    0    0  501  503 -0.00000000000E+00 -0.00000000000E+00 -0.11895442396E+03  0.11895442396E+03  0.00000000000E+00 0. -1.
          6    2    1    2  501    0  0.92702291053E+01 -0.23208303191E+02 -0.24214082761E+02  0.17949499178E+03  0.17608965838E+03 0.  0.
         24    2    3    3    0    0 -0.38523766372E+02 -0.27731875688E+02  0.36732363419E+02  0.10176926880E+03  0.82186252164E+02 0.  0.
         -6    2    1    2    0  502 -0.92702291053E+01  0.23208303191E+02  0.42504232788E+03  0.45924210125E+03  0.17209812487E+03 0.  0.
        -24    2    5    5    0    0 -0.62172634007E+02  0.49023293980E+02  0.31710126219E+03  0.33620372570E+03  0.78809992543E+02 0.  0.
          5    1    3    3  501    0  0.47793995477E+02  0.45235724967E+01 -0.60946446179E+02  0.77725722986E+02  0.47000000000E+01 0. -1.
        -11    1    4    4    0    0  0.25600511419E+02 -0.14014709609E+02  0.13962298086E+02  0.32353423902E+02  0.00000000000E+00 0.  1.
         12    1    4    4    0    0 -0.64124277790E+02 -0.13717166079E+02  0.22770065333E+02  0.69415844896E+02  0.00000000000E+00 0. -1.
         -5    1    5    5    0  502  0.52902404902E+02 -0.25814990789E+02  0.10794106570E+03  0.12303837555E+03  0.47000000000E+01 0.  1.
         11    1    6    6    0    0 -0.18583461287E+02  0.62365866466E+02  0.20860928341E+03  0.21852386474E+03  0.00000000000E+00 0. -1.
        -12    1    6    6    0    0 -0.43589172720E+02 -0.13342572486E+02  0.10849197878E+03  0.11767986097E+03  0.00000000000E+00 0.  1.
</event>
<event>
12    1  0.8691829E-002  0.2157729E+03  0.7818608E-02  0.1137169E+00
         21   -1    0    0  501  502  0.00000000000E+00  0.00000000000E+00  0.65070569461E+03  0.65070569461E+03  0.00000000000E+00 0.  1.
         21   -1    0    0  502  503 -0.00000000000E+00 -0.00000000000E+00 -0.75703836973E+02  0.75703836973E+02  0.00000000000E+00 0.  1.
         -6    2    1    2    0  503 -0.12843240331E+03  0.22809220914E+02  0.20044332011E+03  0.29414565724E+03  0.17125711756E+03 0.  0.
        -24    2    3    3    0    0 -0.94049312398E+01 -0.27282678391E+02  0.81083370879E+02  0.11823197112E+03  0.81064719139E+02 0.  0.
          6    2    1    2  501    0  0.12843240331E+03 -0.22809220914E+02  0.37455853753E+03  0.43226387435E+03  0.17188023811E+03 0.  0.
         24    2    5    5    0    0  0.81856107347E+02 -0.81715895419E+02  0.22300908840E+03  0.26306377630E+03  0.78048619589E+02 0.  0.
          5    1    5    5  501    0  0.46576295965E+02  0.58906674505E+02  0.15154944913E+03  0.16920009804E+03  0.47000000000E+01 0. -1.
        -13    1    6    6    0    0 -0.79964858153E+01 -0.33386692506E+02  0.83042170006E+02  0.89858872801E+02  0.00000000000E+00 0.  1.
         14    1    6    6    0    0  0.89852593162E+02 -0.48329202913E+02  0.13996691839E+03  0.17320490350E+03  0.00000000000E+00 0. -1.
         -5    1    3    3    0  503 -0.11902747207E+03  0.50091899305E+02  0.11935994923E+03  0.17591368612E+03  0.47000000000E+01 0.  1.
         11    1    4    4    0    0 -0.43887883030E+02 -0.25069722130E+02  0.56603298308E+02  0.75885246418E+02  0.00000000000E+00 0. -1.
        -12    1    4    4    0    0  0.34482951791E+02 -0.22129562611E+01  0.24480072571E+02  0.42346724698E+02  0.00000000000E+00 0.  1.
</event>
<event>
12    1  0.8691829E-002  0.1822432E+03  0.7818608E-02  0.1166042E+00
         21   -1    0    0  501  502  0.00000000000E+00  0.00000000000E+00  0.66176207865E+02  0.66176207865E+02  0.00000000000E+00 0.  1.
         21   -1    0    0  502  503 -0.00000000000E+00 -0.00000000000E+00 -0.16841356308E+04  0.16841356308E+04  0.00000000000E+00 0. -1.
         -6    2    1    2    0  503  0.43328014964E+02 -0.34723224679E+02 -0.15425443302E+04  0.15530810008E+04  0.17185623391E+03 0.  0.
        -24    2    3    3    0    0 -0.36966365049E+01  0.28826508488E+02 -0.48040664745E+03  0.48799488522E+03  0.80646316571E+02 0.  0.
          6    2    1    2  501    0 -0.43328014964E+02  0.34723224679E+02 -0.75415092718E+02  0.19723083787E+03  0.17357865072E+03 0.  0.
         24    2    5    5    0    0 -0.68844603994E+02  0.20397818661E+02 -0.10840730849E+03  0.15288120568E+03  0.80404402936E+02 0.  0.
          5    1    5    5  501    0  0.25516589030E+02  0.14325406018E+02  0.32992215774E+02  0.44349632186E+02  0.47000000000E+01 0. -1.
        -11    1    6    6    0    0 -0.21476258334E+01  0.15316008582E+02  0.88993918691E+01  0.17843530796E+02  0.00000000000E+00 0.  1.
         12    1    6    6    0    0 -0.66696978161E+02  0.50818100788E+01 -0.11730670036E+03  0.13503767489E+03  0.00000000000E+00 0. -1.
         -5    1    3    3    0  503  0.47024651469E+02 -0.63549733167E+02 -0.10621376827E+04  0.10650861155E+04  0.47000000000E+01 0.  1.
         13    1    4    4    0    0 -0.22659260346E+01 -0.26047438503E+02 -0.89104228593E+02  0.92861009183E+02  0.00000000000E+00 0. -1.
        -14    1    4    4    0    0 -0.14307104703E+01  0.54873946991E+02 -0.39130241886E+03  0.39513387604E+03  0.00000000000E+00 0.  1.
</event>
<event>
12    1  0.8691829E-002  0.2266647E+03  0.7818608E-02  0.1129088E+00
         21   -1    0    0  503  502  0.00000000000E+00  0.00000000000E+00  0.21742093826E+03  0.21742093826E+03  0.00000000000E+00 0.  1.
         21   -1    0    0  501  503 -0.00000000000E+00 -0.00000000000E+00 -0.37029337690E+03  0.37029337690E+03  0.00000000000E+00 0.  1.
          6    2    1    2  501    0 -0.92017939877E+02 -0.11488353261E+03  0.10058414257E+03  0.24797991252E+03  0.17236977679E+03 0.  0.
         24    2    3    3    0    0 -0.15924060750E+02 -0.20928661045E+02  0.26744564308E+02  0.10623306194E+03  0.99391182528E+02 0.  0.
         -6    2    1    2    0  502  0.92017939877E+02  0.11488353261E+03 -0.25345658121E+03  0.33973440263E+03  0.17179551347E+03 0.  0.
        -24    2    5    5    0    0  0.34982759208E+02  0.10076174588E+03 -0.24680836576E+03  0.28041555687E+03  0.79635370594E+02 0.  0.
          5    1    3    3  501    0 -0.76093879127E+02 -0.93954871567E+02  0.73839578266E+02  0.14174685058E+03  0.47000000000E+01 0. -1.
        -13    1    4    4    0    0 -0.36955012782E+02 -0.52750464840E+02  0.13124537789E+02  0.65730799499E+02  0.00000000000E+00 0.  1.
         14    1    4    4    0    0  0.21030952032E+02  0.31821803795E+02  0.13620026519E+02  0.40502262437E+02  0.00000000000E+00 0. -1.
         -5    1    5    5    0  502  0.57035180669E+02  0.14121786736E+02 -0.66482154544E+01  0.59318845769E+02  0.47000000000E+01 0.  1.
         13    1    6    6    0    0  0.47735217946E+02  0.10788929736E+03 -0.22668821829E+03  0.25555097305E+03  0.00000000000E+00 0. -1.
        -14    1    6    6    0    0 -0.12752458738E+02 -0.71275514824E+01 -0.20120147474E+02  0.24864583817E+02  0.00000000000E+00 0.  1.
</event>
<event>
12    1  0.8691829E-002  0.1992398E+03  0.7818608E-02  0.1150414E+00
         21   -1    0    0  501  502  0.00000000000E+00  0.00000000000E+00  0.10377672238E+03  0.10377672238E+03  0.00000000000E+00 0.  1.
         21   -1    0    0  502  503 -0.00000000000E+00 -0.00000000000E+00 -0.41339997794E+03  0.41339997794E+03  0.00000000000E+00 0.  1.
         -6    2    1    2    0  503 -0.35582369423E+02  0.94576147687E+02 -0.22576546907E+03  0.30100869335E+03  0.17153843220E+03 0.  0.
        -24    2    3    3    0    0 -0.21793375740E+02  0.10414332988E+03 -0.83409290460E+02  0.15758959103E+03  0.80972742819E+02 0.  0.
          6    2    1    2  501    0  0.35582369423E+02 -0.94576147687E+02 -0.83857786485E+02  0.21616800697E+03  0.17171408259E+03 0.  0.
         24    2    5    5    0    0  0.68281572548E+02 -0.11583687975E+03 -0.59557494672E+02  0.16997438409E+03  0.85226992296E+02 0.  0.
          5    1    5    5  501    0 -0.32699203125E+02  0.21260732062E+02 -0.24300291813E+02  0.46193622883E+02  0.47000000000E+01 0. -1.
        -13    1    6    6    0    0  0.13144509472E+02  0.46713371565E+01  0.12845015308E+02  0.18962962278E+02  0.00000000000E+00 0.  1.
         14    1    6    6    0    0  0.55137063077E+02 -0.12050821691E+03 -0.72402509981E+02  0.15101142181E+03  0.00000000000E+00 0. -1.
         -5    1    3    3    0  503 -0.13788993684E+02 -0.95671821946E+01 -0.14235617861E+03  0.14341910232E+03  0.47000000000E+01 0.  1.
         11    1    4    4    0    0 -0.51999973424E+02  0.64281914312E+02 -0.42436360250E+02  0.92935495990E+02  0.00000000000E+00 0. -1.
        -12    1    4    4    0    0  0.30206597684E+02  0.39861415570E+02 -0.40972930210E+02  0.64654095036E+02  0.00000000000E+00 0.  1.
</event>
<event>
12    1  0.8691829E-002  0.1926310E+03  0.7818608E-02  0.1157375E+00
         21   -1    0    0  501  502  0.00000000000E+00  0.00000000000E+00  0.16442276169E+02  0.16442276169E+02  0.00000000000E+00 0. -1.
         21   -1    0    0  502  503 -0.00000000000E+00 -0.00000000000E+00 -0.22697533675E+04  0.22697533675E+04  0.00000000000E+00 0. -1.
         -6    2    1    2    0  503  0.75214728344E+02  0.15945323695E+02 -0.89818146392E+03  0.91744329128E+03  0.17047211469E+03 0.  0.
        -24    2    3    3    0    0 -0.89905141318E+01 -0.58744769104E+01 -0.63813696486E+03  0.64319548719E+03  0.79789159661E+02 0.  0.
          6    2    1    2  501    0 -0.75214728344E+02 -0.15945323695E+02 -0.13551296274E+04  0.13687523524E+04  0.17662159088E+03 0.  0.
         24    2    5    5    0    0 -0.44575084620E+02 -0.72927618633E+02 -0.61346450158E+03  0.62425586577E+03  0.77790201979E+02 0.  0.
          5    1    5    5  501    0 -0.30639643723E+02  0.56982294939E+02 -0.74166512582E+03  0.74449648660E+03  0.47000000000E+01 0. -1.
        -11    1    6    6    0    0 -0.43494162297E+01 -0.72714717863E+02 -0.45337848482E+03  0.45919320347E+03  0.00000000000E+00 0.  1.
         12    1    6    6    0    0 -0.40225668390E+02 -0.21290077042E+00 -0.16008601676E+03  0.16506266230E+03  0.00000000000E+00 0. -1.
         -5    1    3    3    0  503  0.84205242475E+02  0.21819800605E+02 -0.26004449905E+03  0.27424780409E+03  0.47000000000E+01 0.  1.
         11    1    4    4    0    0  0.24207803134E+02 -0.29398367961E+02 -0.37539867478E+03  0.37732538584E+03  0.00000000000E+00 0. -1.
        -12    1    4    4    0    0 -0.33198317266E+02  0.23523891051E+02 -0.26273829009E+03  0.26587010136E+03  0.00000000000E+00 0.  1.
</event>
<event>
12    1  0.8691829E-002  0.2558212E+03  0.7818608E-02  0.1109796E+00
         21   -1    0    0  503  502  0.00000000000E+00  0.00000000000E+00  0.16213918357E+03  0.16213918357E+03  0.00000000000E+00 0.  1.
         21   -1    0    0  501  503 -0.00000000000E+00 -0.00000000000E+00 -0.42033794946E+03  0.42033794946E+03  0.00000000000E+00 0. -1.
          6    2    1    2  501    0  0.87628926313E+02  0.16734831726E+03 -0.18938161029E+03  0.31829209091E+03  0.17251137008E+03 0.  0.
         24    2    3    3    0    0  0.36254056794E+02  0.64558419913E+02 -0.14548561581E+02  0.10902234839E+03  0.78689679054E+02 0.  0.
         -6    2    1    2    0  502 -0.87628926313E+02 -0.16734831726E+03 -0.68817155597E+02  0.26418504212E+03  0.17138741949E+03 0.  0.
        -24    2    5    5    0    0  0.48782363960E+01 -0.53475762900E+02 -0.66602085694E+02  0.11738064735E+03  0.80367432117E+02 0.  0.
          5    1    3    3  501    0  0.51374869519E+02  0.10278989735E+03 -0.17483304870E+03  0.20926974252E+03  0.47000000000E+01 0. -1.
        -11    1    4    4    0    0  0.55269456624E+02  0.65550204290E+02 -0.22091695983E+02  0.88541431823E+02  0.00000000000E+00 0.  1.
         12    1    4    4    0    0 -0.19015399830E+02 -0.99178437732E+00  0.75431344019E+01  0.20480916570E+02  0.00000000000E+00 0. -1.
         -5    1    5    5    0  502 -0.92507162709E+02 -0.11387255436E+03 -0.22150699029E+01  0.14680439477E+03  0.47000000000E+01 0.  1.
         11    1    6    6    0    0  0.33265903593E+02 -0.14290560153E+02 -0.14616801493E+01  0.36235023944E+02  0.00000000000E+00 0. -1.
        -12    1    6    6    0    0 -0.28387667197E+02 -0.39185202747E+02 -0.65140405545E+02  0.81145623405E+02  0.00000000000E+00 0.  1.
</event>
<event>
12    1  0.8691829E-002  0.1781187E+03  0.7818608E-02  0.1169642E+00
         21   -1    0    0  501  502  0.00000000000E+00  0.00000000000E+00  0.27740028964E+03  0.27740028964E+03  0.00000000000E+00 0. -1.
         21   -1    0    0  502  503 -0.00000000000E+00 -0.00000000000E+00 -0.11447196337E+03  0.11447196337E+03  0.00000000000E+00 0. -1.
         -6    2    1    2    0  503  0.42970827681E+02  0.15721333242E+02  0.87753059847E+02  0.19856201190E+03  0.17214128123E+03 0.  0.
        -24    2    3    3    0    0  0.68057771170E+02  0.60748524963E+02  0.80690393493E+02  0.14632434365E+03  0.81102592067E+02 0.  0.
          6    2    1    2  501    0 -0.42970827681E+02 -0.15721333242E+02  0.75175266422E+02  0.19331024112E+03  0.17211588041E+03 0.  0.
         24    2    5    5    0    0 -0.85612422379E+02 -0.25271626571E+02  0.17513738746E+02  0.12080882407E+03  0.79497792121E+02 0.  0.
          5    1    5    5  501    0  0.42641594698E+02  0.95502933291E+01  0.57661527676E+02  0.72501417055E+02  0.47000000000E+01 0. -1.
        -13    1    6    6    0    0 -0.32204216362E+02  0.96268447550E+01 -0.26917969248E+02  0.43062335746E+02  0.00000000000E+00 0.  1.
         14    1    6    6    0    0 -0.53408206016E+02 -0.34898471326E+02  0.44431707994E+02  0.77746488320E+02  0.00000000000E+00 0. -1.
         -5    1    3    3    0  503 -0.25086943489E+02 -0.45027191722E+02  0.70626663537E+01  0.52237668248E+02  0.47000000000E+01 0.  1.
         13    1    4    4    0    0 -0.18833983900E+02  0.12240452939E+02  0.17050531087E+02  0.28200500848E+02  0.00000000000E+00 0. -1.
        -14    1    4    4    0    0  0.86891755070E+02  0.48508072024E+02  0.63639862406E+02  0.11812384280E+03  0.00000000000E+00 0.  1.
</event>
<event>
12    1  0.8691829E-002  0.2355014E+03  0.7818608E-02  0.1123357E+00
         21   -1    0    0  503  502  0.00000000000E+00  0.00000000000E+00  0.91628460422E+03  0.91628460422E+03  0.00000000000E+00 0.  1.
         21   -1    0    0  501  503 -0.00000000000E+00 -0.00000000000E+00 -0.46688823991E+03  0.46688823991E+03  0.00000000000E+00 0. -1.
          6    2    1    2  501    0  0.47308148882E+02  0.15213756850E+03 -0.42131907589E+03  0.48117158661E+03  0.16921120340E+03 0.  0.
         24    2    3    3    0    0  0.81274242949E+02  0.62671028458E+02 -0.29913954782E+03  0.32590444774E+03  0.78715180339E+02 0.  0.
         -6    2    1    2    0  502 -0.47308148882E+02 -0.15213756850E+03  0.87071544019E+03  0.90200125751E+03  0.17342718951E+03 0.  0.
        -24    2    5    5    0    0 -0.82691559933E+02 -0.15227903891E+03  0.80471471477E+03  0.82696665517E+03  0.79254506675E+02 0.  0.
          5    1    3    3  501    0 -0.33966094067E+02  0.89466540040E+02 -0.12217952807E+03  0.15526713887E+03  0.47000000000E+01 0. -1.
        -13    1    4    4    0    0  0.30994890348E+02 -0.11811961776E+02 -0.42025937844E+02  0.53538632037E+02  0.00000000000E+00 0.  1.
         14    1    4    4    0    0  0.50279352601E+02  0.74482990234E+02 -0.25711360997E+03  0.27236581571E+03  0.00000000000E+00 0. -1.
         -5    1    5    5    0  502  0.35383411050E+02  0.14147041215E+00  0.66000725424E+02  0.75034602338E+02  0.47000000000E+01 0.  1.
         11    1    6    6    0    0 -0.56551461374E+02 -0.69992387280E+02  0.25274850588E+03  0.26828866783E+03  0.00000000000E+00 0. -1.
        -12    1    6    6    0    0 -0.26140098559E+02 -0.82286651630E+02  0.55196620889E+03  0.55867798734E+03  0.00000000000E+00 0.  1.
</event>
<event>
12    1  0.8691829E-002  0.1892835E+03  0.7818608E-02  0.1159247E+00
         21   -1    0    0  501  502  0.00000000000E+00  0.00000000000E+00  0.50192195952E+02  0.50192195952E+02  0.00000000000E+00 0.  1.
         21   -1    0    0  502  503 -0.00000000000E+00 -0.00000000000E+00 -0.71461494684E+03  0.71461494684E+03  0.00000000000E+00 0. -1.
         -6    2    1    2    0  503 -0.38373468662E+02 -0.67873501998E+02 -0.30656850470E+03  0.35997640876E+03  0.17181219812E+03 0.  0.
        -24    2    3    3    0    0 -0.66246812551E+02  0.10756954021E+02 -0.19024038473E+03  0.21674933936E+03  0.79274963884E+02 0.  0.
          6    2    1    2  501    0  0.38373468662E+02  0.67873501998E+02 -0.35785424619E+03  0.40483073403E+03  0.17247877066E+03 0.  0.
         24    2    5    5    0    0  0.34723151333E+01  0.67507489237E+02 -0.10288825553E+03  0.14744392226E+03  0.81144309774E+02 0.  0.
          5    1    5    5  501    0  0.34901153528E+02  0.36601276127E+00 -0.25496599066E+03  0.25738681177E+03  0.47000000000E+01 0. -1.
        -11    1    6    6    0    0  0.15199748641E+02  0.87684455074E+01  0.96001173563E+01  0.20002006115E+02  0.00000000000E+00 0.  1.
         12    1    6    6    0    0 -0.11727433508E+02  0.58739043730E+02 -0.11248837289E+03  0.12744191614E+03  0.00000000000E+00 0. -1.
         -5    1    3    3    0  503  0.27873343890E+02 -0.78630456019E+02 -0.11632811997E+03  0.14322706940E+03  0.47000000000E+01 0.  1.
         13    1    4    4    0    0 -0.69194030909E+02 -0.20459406683E+02 -0.12407642981E+03  0.14353174447E+03  0.00000000000E+00 0. -1.
        -14    1    4    4    0    0  0.29472183573E+01  0.31216360704E+02 -0.66163954918E+02  0.73217594894E+02  0.00000000000E+00 0.  1.
</event>
<event>
12    1  0.8691829E-002  0.1966503E+03  0.7818608E-02  0.1152657E+00
         21   -1    0    0  501  502  0.00000000000E+00  0.00000000000E+00  0.92805264652E+03  0.92805264652E+03  0.00000000000E+00 0.  1.
         21   -1    0    0  502  503 -0.00000000000E+00 -0.00000000000E+00 -0.44041180631E+02  0.44041180631E+02  0.00000000000E+00 0.  1.
         -6    2    1    2    0  503  0.72078366990E+02 -0.61740847737E+02  0.32809395728E+03  0.38251405402E+03  0.17223278855E+03 0.  0.
        -24    2    3    3    0    0  0.11489716096E+03 -0.61465545338E+02  0.25288256042E+03  0.29584012988E+03  0.81193732647E+02 0.  0.
          6    2    1    2  501    0 -0.72078366990E+02  0.61740847737E+02  0.55591750861E+03  0.58957977313E+03  0.17190930528E+03 0.  0.
         24    2    5    5    0    0 -0.41774393097E+01  0.76227354484E+02  0.22853524830E+03  0.25488344925E+03  0.83121311429E+02 0.  0.
          5    1    5    5  501    0 -0.67900927680E+02 -0.14486506746E+02  0.32738226030E+03  0.33469632388E+03  0.47000000000E+01 0. -1.
        -13    1    6    6    0    0  0.24707386466E+02  0.59280349860E+02  0.20257125669E+03  0.21250818540E+03  0.00000000000E+00 0.  1.
         14    1    6    6    0    0 -0.28884825776E+02  0.16947004623E+02  0.25963991616E+02  0.42375263851E+02  0.00000000000E+00 0. -1.
         -5    1    3    3    0  503 -0.42818793969E+02 -0.27530239956E+00  0.75211396864E+02  0.86673924145E+02  0.47000000000E+01 0.  1.
         13    1    4    4    0    0  0.87779247975E+02 -0.29937956928E+02  0.23083909640E+03  0.24877332266E+03  0.00000000000E+00 0. -1.
        -14    1    4    4    0    0  0.27117912983E+02 -0.31527588410E+02  0.22043464016E+02  0.47066807214E+02  0.00000000000E+00 0.  1.
</event>
<event>
12    1  0.8691829E-002  0.1824479E+03  0.7818608E-02  0.1165788E+00
         21   -1    0    0  503  502  0.00000000000E+00  0.00000000000E+00  0.11748502843E+03  0.11748502843E+03  0.00000000000E+00 0.  1.
         21   -1    0    0  501  503 -0.00000000000E+00 -0.00000000000E+00 -0.31169298445E+03  0.31169298445E+03  0.00000000000E+00 0. -1.
          6    2    1    2  501    0 -0.16991195919E+02 -0.62399507145E+02 -0.16392302810E+03  0.24423369612E+03  0.16910629777E+03 0.  0.
         24    2    3    3    0    0 -0.92189055743E+01  0.14636535951E+02 -0.14203762628E+03  0.16363579760E+03  0.79389990372E+02 0.  0.
         -6    2    1    2    0  502  0.16991195919E+02  0.62399507145E+02 -0.30284927917E+02  0.18494431676E+03  0.17060136052E+03 0.  0.
        -24    2    5    5    0    0  0.72449121940E+02  0.36322630498E+02 -0.44749949939E+02  0.12180231872E+03  0.79151993469E+02 0.  0.
          5    1    3    3  501    0 -0.77722903450E+01 -0.77036043096E+02 -0.21885401821E+02  0.80597898521E+02  0.47000000000E+01 0. -1.
        -13    1    4    4    0    0 -0.31326458955E+02  0.16627785841E+02 -0.22380082688E+02  0.41936838147E+02  0.00000000000E+00 0.  1.
         14    1    4    4    0    0  0.22107553381E+02 -0.19912498895E+01 -0.11965754359E+03  0.12169895945E+03  0.00000000000E+00 0. -1.
         -5    1    5    5    0  502 -0.55457926020E+02  0.26076876647E+02  0.14465022022E+02  0.63141998038E+02  0.47000000000E+01 0.  1.
         11    1    6    6    0    0 -0.31117297747E+01  0.27098148688E+02 -0.36018990118E+02  0.45181414029E+02  0.00000000000E+00 0. -1.
        -12    1    6    6    0    0  0.75560851714E+02  0.92244818094E+01 -0.87309598215E+01  0.76620904692E+02  0.00000000000E+00 0.  1.
</event>
<event>
12    1  0.8691829E-002  0.3074537E+03  0.7818608E-02  0.1081656E+00
         21   -1    0    0  501  502  0.00000000000E+00  0.00000000000E+00  0.73774600189E+02  0.73774600189E+02  0.00000000000E+00 0. -1.
         21   -1    0    0  502  503 -0.00000000000E+00 -0.00000000000E+00 -0.12791166023E+04  0.12791166023E+04  0.00000000000E+00 0.  1.
         -6    2    1    2    0  503  0.23620609304E+03  0.92645594040E+02 -0.61872199830E+03  0.69090135462E+03  0.17364114188E+03 0.  0.
        -24    2    3    3    0    0  0.25191229687E+03  0.57737616533E+02 -0.52157559094E+03  0.58637974827E+03  0.70757857737E+02 0.  0.
          6    2    1    2  501    0 -0.23620609304E+03 -0.92645594040E+02 -0.58662000384E+03  0.66198984790E+03  0.17242681152E+03 0.  0.
         24    2    5    5    0    0 -0.18942932917E+03 -0.38682506490E+02 -0.53251946470E+03  0.57227341244E+03  0.80870706966E+02 0.  0.
          5    1    5    5  501    0 -0.46776763861E+02 -0.53963087550E+02 -0.54100539137E+02  0.89716435451E+02  0.47000000000E+01 0. -1.
        -11    1    6    6    0    0 -0.10855136525E+03 -0.57565899399E+02 -0.36814666223E+03  0.38810977388E+03  0.00000000000E+00 0.  1.
         12    1    6    6    0    0 -0.80877963927E+02  0.18883392910E+02 -0.16437280247E+03  0.18416363856E+03  0.00000000000E+00 0. -1.
         -5    1    3    3    0  503 -0.15706203833E+02  0.34907977507E+02 -0.97146407353E+02  0.10452160635E+03  0.47000000000E+01 0.  1.
         13    1    4    4    0    0  0.18525046999E+03  0.91760579310E+01 -0.36240867958E+03  0.40711421949E+03  0.00000000000E+00 0. -1.
        -14    1    4    4    0    0  0.66661826881E+02  0.48561558602E+02 -0.15916691136E+03  0.17926552878E+03  0.00000000000E+00 0.  1.
</event>
<event>
12    1  0.8691829E-002  0.2229163E+03  0.7818608E-02  0.1131814E+00
         21   -1    0    0  503  502  0.00000000000E+00  0.00000000000E+00  0.54223607310E+02  0.54223607310E+02  0.00000000000E+00 0.  1.
         21   -1    0    0  501  503 -0.00000000000E+00 -0.00000000000E+00 -0.95694346652E+03  0.95694346652E+03  0.00000000000E+00 0. -1.
          6    2    1    2  501    0 -0.48690098932E+02  0.13248908283E+03 -0.55740585646E+03  0.60015196865E+03  0.17192153401E+03 0.  0.
         24    2    3    3    0    0  0.16880084578E+02  0.13139423068E+03 -0.39339620728E+03  0.42345476242E+03  0.83689777143E+02 0.  0.
         -6    2    1    2    0  502  0.48690098932E+02 -0.13248908283E+03 -0.34531400275E+03  0.41101510517E+03  0.17253281829E+03 0.  0.
        -24    2    5    5    0    0  0.90974544694E+02 -0.11183474361E+03 -0.31444235288E+03  0.35453745608E+03  0.77713813543E+02 0.  0.
          5    1    3    3  501    0 -0.65570183510E+02  0.10948521476E+01 -0.16400964918E+03  0.17669720624E+03  0.47000000000E+01 0. -1.
        -13    1    4    4    0    0 -0.23285206965E+02  0.98889327395E+01 -0.37370907351E+02  0.45128445247E+02  0.00000000000E+00 0.  1.
         14    1    4    4    0    0  0.40165291544E+02  0.12150529795E+03 -0.35602529993E+03  0.37832631717E+03  0.00000000000E+00 0. -1.
         -5    1    5    5    0  502 -0.42284445762E+02 -0.20654339227E+02 -0.30871649861E+02  0.56477649097E+02  0.47000000000E+01 0.  1.
         13    1    6    6    0    0 -0.77990528224E+01 -0.55270391194E+01 -0.67038535591E+02  0.67716605353E+02  0.00000000000E+00 0. -1.
        -14    1    6    6    0    0  0.98773597516E+02 -0.10630770449E+03 -0.24740381729E+03  0.28682085073E+03  0.00000000000E+00 0.  1.
</event>
<event>
12    1  0.8691829E-002  0.1931200E+03  0.7818608E-02  0.1155749E+00
         21   -1    0    0  503  502  0.00000000000E+00  0.00000000000E+00  0.12160730303E+04  0.12160730303E+04  0.00000000000E+00 0. -1.
         21   -1    0    0  501  503 -0.00000000000E+00 -0.00000000000E+00 -0.31867317690E+02  0.31867317690E+02  0.00000000000E+00 0. -1.
          6    2    1    2  501    0 -0.30864519566E+02  0.81996851554E+02  0.46898811713E+03  0.50719345175E+03  0.17210241501E+03 0.  0.
         24    2    3    3    0    0  0.46976312991E+02  0.26666597013E+02  0.23931032788E+03  0.25840717971E+03  0.81160064782E+02 0.  0.
         -6    2    1    2    0  502  0.30864519566E+02 -0.81996851554E+02  0.71521759549E+03  0.74074689625E+03  0.17173716306E+03 0.  0.
        -24    2    5    5    0    0  0.32087753719E+02 -0.17637899340E+01  0.51043283319E+03  0.52075205689E+03  0.98021898862E+02 0.  0.
          5    1    3    3  501    0 -0.77840832557E+02  0.55330254542E+02  0.22967778925E+03  0.24878627204E+03  0.47000000000E+01 0. -1.
        -13    1    4    4    0    0  0.52301408322E+02  0.17746503650E+02  0.24154669685E+03  0.24778051268E+03  0.00000000000E+00 0.  1.
         14    1    4    4    0    0 -0.53250953313E+01  0.89200933628E+01 -0.22363689723E+01  0.10626667025E+02  0.00000000000E+00 0. -1.
         -5    1    5    5    0  502 -0.12232341524E+01 -0.80233061620E+02  0.20478476230E+03  0.21999483937E+03  0.47000000000E+01 0.  1.
         13    1    6    6    0    0  0.57102862511E+01 -0.45901063770E+02  0.32676538610E+03  0.33002292735E+03  0.00000000000E+00 0. -1.
        -14    1    6    6    0    0  0.26377467468E+02  0.44137273836E+02  0.18366744709E+03  0.19072912953E+03  0.00000000000E+00 0.  1.
</event>
<event>
12    1  0.8691829E-002  0.3728721E+03  0.7818608E-02  0.1053860E+00
         21   -1    0    0  503  502  0.00000000000E+00  0.00000000000E+00  0.46030532660E+03  0.46030532660E+03  0.00000000000E+00 0.  1.
         21   -1    0    0  501  503 -0.00000000000E+00 -0.00000000000E+00 -0.39657946738E+03  0.39657946738E+03  0.00000000000E+00 0. -1.
          6    2    1    2  501    0 -0.33054977811E+03 -0.10263167631E+02 -0.17984074820E+03  0.41151049390E+03  0.16622185013E+03 0.  0.
         24    2    3    3    0    0 -0.10527717962E+03 -0.12122212516E+02 -0.20704040743E+02  0.13565223077E+03  0.82113566633E+02 0.  0.
         -6    2    1    2    0  502  0.33054977811E+03  0.10263167631E+02  0.24356660741E+03  0.44537430008E+03  0.17223555529E+03 0.  0.
        -24    2    5    5    0    0  0.74219105396E+02  0.13716894205E+02  0.37955851042E+02  0.11671761730E+03  0.80534010001E+02 0.  0.
          5    1    3    3  501    0 -0.22527259849E+03  0.18590448851E+01 -0.15913670746E+03  0.27585826313E+03  0.47000000000E+01 0. -1.
        -11    1    4    4    0    0 -0.37268768980E+02 -0.31580216127E+02  0.21401477063E+02  0.53331926764E+02  0.00000000000E+00 0.  1.
         12    1    4    4    0    0 -0.68008410640E+02  0.19458003610E+02 -0.42105517806E+02  0.82320304008E+02  0.00000000000E+00 0. -1.
         -5    1    5    5    0  502  0.25633067271E+03 -0.34537265741E+01  0.20561075637E+03  0.32865668278E+03  0.47000000000E+01 0.  1.
         11    1    6    6    0    0  0.73542409367E+01 -0.28686612046E+02  0.19376773667E+02  0.35390195368E+02  0.00000000000E+00 0. -1.
        -12    1    6    6    0    0  0.66864864460E+02  0.42403506252E+02  0.18579077375E+02  0.81327421930E+02  0.00000000000E+00 0.  1.
</event>
<event>
12    1  0.8691829E-002  0.1901436E+03  0.7818608E-02  0.1158602E+00
         21   -1    0    0  503  502  0.00000000000E+00  0.00000000000E+00  0.62608323077E+03  0.62608323077E+03  0.00000000000E+00 0. -1.
         21   -1    0    0  501  503 -0.00000000000E+00 -0.00000000000E+00 -0.64048546535E+02  0.64048546535E+02  0.00000000000E+00 0. -1.
          6    2    1    2  501    0 -0.53807389573E+02 -0.60595818926E+02  0.39311237577E+03  0.43668287036E+03  0.17201017655E+03 0.  0.
         24    2    3    3    0    0 -0.62436750655E+02  0.74687768300E+00  0.12386953115E+03  0.16036567640E+03  0.80464798262E+02 0.  0.
         -6    2    1    2    0  502  0.53807389573E+02  0.60595818926E+02  0.16892230846E+03  0.25344890694E+03  0.17068835254E+03 0.  0.
        -24    2    5    5    0    0 -0.26599951089E+02  0.28907743683E+01  0.53169361797E+02  0.10108077622E+03  0.81697174448E+02 0.  0.
          5    1    3    3  501    0  0.86293610828E+01 -0.61342696609E+02  0.26924284462E+03  0.27631719396E+03  0.47000000000E+01 0. -1.
        -13    1    4    4    0    0 -0.81608187589E+02 -0.42932570649E+01  0.10439701284E+03  0.13257852250E+03  0.00000000000E+00 0.  1.
         14    1    4    4    0    0  0.19171436933E+02  0.50401347479E+01  0.19472518313E+02  0.27787153899E+02  0.00000000000E+00 0. -1.
         -5    1    5    5    0  502  0.80407340661E+02  0.57705044557E+02  0.11575294666E+03  0.15236813072E+03  0.47000000000E+01 0.  1.
         13    1    6    6    0    0  0.41021636012E+01  0.37114686048E+02  0.11608940109E+02  0.39103646340E+02  0.00000000000E+00 0. -1.
        -14    1    6    6    0    0 -0.30702114690E+02 -0.34223911680E+02  0.41560421689E+02  0.61977129879E+02  0.00000000000E+00 0.  1.
</event>
<event>
12    1  0.8691829E-002  0.2228599E+03  0.7818608E-02  0.1131838E+00
         21   -1    0    0  503  502  0.00000000000E+00  0.00000000000E+00  0.10164755200E+03  0.10164755200E+03  0.00000000000E+00 0.  1.
         21   -1    0    0  501  503 -0.00000000000E+00 -0.00000000000E+00 -0.51351178577E+03  0.51351178577E+03  0.00000000000E+00 0.  1.
          6    2    1    2  501    0  0.13758429432E+03  0.33830368063E+02 -0.27494559147E+03  0.35392315428E+03  0.17202496626E+03 0.  0.
         24    2    3    3    0    0  0.11485385574E+03  0.63489804739E+02 -0.12246672369E+03  0.19686186006E+03  0.80833965936E+02 0.  0.
         -6    2    1    2    0  502 -0.13758429432E+03 -0.33830368063E+02 -0.13691864230E+03  0.26123618350E+03  0.17153337026E+03 0.  0.
        -24    2    5    5    0    0 -0.13668026316E+03  0.13614348281E+02 -0.59557376882E+02  0.17035893790E+03  0.81291092767E+02 0.  0.
          5    1    3    3  501    0  0.22730438573E+02 -0.29659436676E+02 -0.15247886778E+03  0.15706129422E+03  0.47000000000E+01 0. -1.
        -13    1    4    4    0    0  0.42697502376E+02 -0.16097809795E+02 -0.26235354188E+02  0.52635634306E+02  0.00000000000E+00 0.  1.
         14    1    4    4    0    0  0.72156353366E+02  0.79587614533E+02 -0.96231369504E+02  0.14422622575E+03  0.00000000000E+00 0. -1.
         -5    1    5    5    0  502 -0.90403115682E+00 -0.47444716344E+02 -0.77361265418E+02  0.90877245602E+02  0.47000000000E+01 0.  1.
         11    1    6    6    0    0 -0.88410562328E+01  0.27144629963E+02  0.30834108526E+00  0.28549786083E+02  0.00000000000E+00 0. -1.
        -12    1    6    6    0    0 -0.12783920693E+03 -0.13530281682E+02 -0.59865717967E+02  0.14180915181E+03  0.00000000000E+00 0.  1.
</event>
<event>
12    1  0.8691829E-002  0.4135988E+03  0.7818608E-02  0.1039270E+00
         21   -1    0    0  503  502  0.00000000000E+00  0.00000000000E+00  0.49743468039E+03  0.49743468039E+03  0.00000000000E+00 0. -1.
         21   -1    0    0  501  503 -0.00000000000E+00 -0.00000000000E+00 -0.37342438241E+03  0.37342438241E+03  0.00000000000E+00 0. -1.
          6    2    1    2  501    0 -0.17606710227E+03  0.33021785551E+03 -0.62415691087E+02  0.41828178242E+03  0.17612630243E+03 0.  0.
         24    2    3    3    0    0 -0.63860378488E+02  0.55871494456E+02 -0.30812673470E+02  0.12015913080E+03  0.79303367104E+02 0.  0.
         -6    2    1    2    0  502  0.17606710227E+03 -0.33021785551E+03  0.18642598907E+03  0.45257728038E+03  0.17328614691E+03 0.  0.
        -24    2    5    5    0    0  0.55279500345E+02 -0.16444152397E+03  0.27108946228E+02  0.19281691577E+03  0.79665739683E+02 0.  0.
          5    1    3    3  501    0 -0.11220672379E+03  0.27434636106E+03 -0.31603017617E+02  0.29812265162E+03  0.47000000000E+01 0. -1.
        -13    1    4    4    0    0 -0.54245761600E+02  0.51939330155E+02 -0.55494431651E+02  0.93380558002E+02  0.00000000000E+00 0.  1.
         14    1    4    4    0    0 -0.96146168874E+01  0.39321643010E+01  0.24681758181E+02  0.26778572794E+02  0.00000000000E+00 0. -1.
         -5    1    5    5    0  502  0.12078760193E+03 -0.16577633155E+03  0.15931704284E+03  0.25976036461E+03  0.47000000000E+01 0.  1.
         13    1    6    6    0    0  0.35796018962E+02 -0.15811021273E+03  0.42031383770E+02  0.16747188291E+03  0.00000000000E+00 0. -1.
        -14    1    6    6    0    0  0.19483481383E+02 -0.63313112397E+01 -0.14922437542E+02  0.25345032867E+02  0.00000000000E+00 0.  1.
</event>
<event>
12    1  0.8691829E-002  0.1773236E+03  0.7818608E-02  0.1172107E+00
         21   -1    0    0  503  502  0.00000000000E+00  0.00000000000E+00  0.34081380273E+03  0.34081380273E+03  0.00000000000E+00 0.  1.
         21   -1    0    0  501  503 -0.00000000000E+00 -0.00000000000E+00 -0.98186267579E+02  0.98186267579E+02  0.00000000000E+00 0.  1.
          6    2    1    2  501    0  0.52153647169E+01 -0.37793390128E+02  0.55591706029E+02  0.18583354811E+03  0.17317081006E+03 0.  0.
         24    2    3    3    0    0 -0.21047407852E+02  0.45519268258E+02  0.36592292087E+02  0.96313717898E+02  0.73636534784E+02 0.  0.
         -6    2    1    2    0  502 -0.52153647169E+01  0.37793390128E+02  0.18703582912E+03  0.25316652220E+03  0.16629896639E+03 0.  0.
        -24    2    5    5    0    0  0.63932907197E+01 -0.28670008514E+02  0.15031011296E+03  0.17620541210E+03  0.87134227729E+02 0.  0.
          5    1    3    3  501    0  0.26262772569E+02 -0.83312658386E+02  0.18999413942E+02  0.89519830208E+02  0.47000000000E+01 0. -1.
        -13    1    4    4    0    0  0.11780189892E+02  0.32187745041E+02 -0.11876823633E+02  0.36275098130E+02  0.00000000000E+00 0.  1.
         14    1    4    4    0    0 -0.32827597744E+02  0.13331523217E+02  0.48469115720E+02  0.60038619768E+02  0.00000000000E+00 0. -1.
         -5    1    5    5    0  502 -0.11608655437E+02  0.66463398642E+02  0.36725716158E+02  0.76961110098E+02  0.47000000000E+01 0.  1.
         13    1    6    6    0    0  0.37373645666E+02  0.10690345105E+02  0.44168232267E+02  0.58837960624E+02  0.00000000000E+00 0. -1.
        -14    1    6    6    0    0 -0.30980354946E+02 -0.39360353619E+02  0.10614188069E+03  0.11736745148E+03  0.00000000000E+00 0.  1.
</event>
<event>
12    1  0.8691829E-002  0.1948157E+03  0.7818608E-02  0.1156849E+00
         21   -1    0    0  501  502  0.00000000000E+00  0.00000000000E+00  0.14425525697E+03  0.14425525697E+03  0.00000000000E+00 0. -1.
         21   -1    0    0  502  503 -0.00000000000E+00 -0.00000000000E+00 -0.25389408873E+03  0.25389408873E+03  0.00000000000E+00 0. -1.
         -6    2    1    2    0  503  0.55132569608E+02 -0.35655528662E+02 -0.24699264331E+02  0.19637519074E+03  0.18341822407E+03 0.  0.
        -24    2    3    3    0    0 -0.15632773875E+02  0.34429189444E+02 -0.36155744285E+02  0.96011140982E+02  0.80505581441E+02 0.  0.
          6    2    1    2  501    0 -0.55132569608E+02  0.35655528662E+02 -0.84939567428E+02  0.20177415496E+03  0.17084250800E+03 0.  0.
         24    2    5    5    0    0  0.70933677540E+01  0.70135609372E+02 -0.73321405356E+02  0.12953832635E+03  0.80217391761E+02 0.  0.
          5    1    5    5  501    0 -0.62225937362E+02 -0.34480080711E+02 -0.11618162073E+02  0.72235828619E+02  0.47000000000E+01 0. -1.
        -11    1    6    6    0    0 -0.42959797418E+01 -0.12578058659E+02  0.58077148170E+01  0.14504914787E+02  0.00000000000E+00 0.  1.
         12    1    6    6    0    0  0.11389347496E+02  0.82713668032E+02 -0.79129120173E+02  0.11503341156E+03  0.00000000000E+00 0. -1.
         -5    1    3    3    0  503  0.70765343482E+02 -0.70084718105E+02  0.11456479954E+02  0.10036404975E+03  0.47000000000E+01 0.  1.
         13    1    4    4    0    0  0.87353332671E+01 -0.44450023511E+01 -0.47703395522E+02  0.48699877181E+02  0.00000000000E+00 0. -1.
        -14    1    4    4    0    0 -0.24368107142E+02  0.38874191795E+02  0.11547651237E+02  0.47311263801E+02  0.00000000000E+00 0.  1.
</event>
<event>
12    1  0.8691829E-002  0.3664995E+03  0.7818608E-02  0.1056188E+00
         21   -1    0    0  503  502  0.00000000000E+00  0.00000000000E+00  0.50223888409E+03  0.50223888409E+03  0.00000000000E+00 0.  1.
         21   -1    0    0  501  503 -0.00000000000E+00 -0.00000000000E+00 -0.26683934030E+03  0.26683934030E+03  0.00000000000E+00 0. -1.
          6    2    1    2  501    0 -0.22295584865E+03  0.23450883378E+03  0.13475231294E+03  0.39048692209E+03  0.17209923565E+03 0.  0.
         24    2    3    3    0    0 -0.11614184322E+03  0.18190610756E+03  0.14363051459E+03  0.27099972182E+03  0.78945327878E+02 0.  0.
         -6    2    1    2    0  502  0.22295584865E+03 -0.23450883378E+03  0.10064723086E+03  0.37859130230E+03  0.16881293056E+03 0.  0.
        -24    2    5    5    0    0  0.11772637203E+03 -0.54044314375E+02  0.15416554271E+02  0.15292109215E+03  0.79792879960E+02 0.  0.
          5    1    3    3  501    0 -0.10681400544E+03  0.52602726224E+02 -0.88782016498E+01  0.11948720027E+03  0.47000000000E+01 0. -1.
        -13    1    4    4    0    0 -0.60013118066E+02  0.15457627801E+03  0.89826306894E+02  0.18858463743E+03  0.00000000000E+00 0.  1.
         14    1    4    4    0    0 -0.56128725150E+02  0.27329829549E+02  0.53804207693E+02  0.82415084394E+02  0.00000000000E+00 0. -1.
         -5    1    5    5    0  502  0.10522947662E+03 -0.18046451941E+03  0.85230676585E+02  0.22567021015E+03  0.47000000000E+01 0.  1.
         11    1    6    6    0    0  0.11052994777E+03 -0.45014052620E+02 -0.15097080068E+02  0.12029570280E+03  0.00000000000E+00 0. -1.
        -12    1    6    6    0    0  0.71964242602E+01 -0.90302617550E+01  0.30513634339E+02  0.32625389347E+02  0.00000000000E+00 0.  1.
</event>
<event>
12    1  0.8691829E-002  0.1948374E+03  0.7818608E-02  0.1157525E+00
         21   -1    0    0  501  502  0.00000000000E+00  0.00000000000E+00  0.33061437781E+03  0.33061437781E+03  0.00000000000E+00 0. -1.
         21   -1    0    0  502  503 -0.00000000000E+00 -0.00000000000E+00 -0.10649733444E+03  0.10649733444E+03  0.00000000000E+00 0. -1.
         -6    2    1    2    0  503  0.37960624685E+02  0.45009915661E+02  0.10698040440E+03  0.22227558286E+03  0.18572755928E+03 0.  0.
        -24    2    3    3    0    0 -0.55509665560E+02  0.43321585908E+02  0.43129686446E+02  0.10896825830E+03  0.71104350695E+02 0.  0.
          6    2    1    2  501    0 -0.37960624685E+02 -0.45009915661E+02  0.11713663896E+03  0.21483612939E+03  0.17019597166E+03 0.  0.
         24    2    5    5    0    0  0.26607588588E+02  0.16795355982E+02  0.31877328031E+02  0.91223080449E+02  0.79469733932E+02 0.  0.
          5    1    5    5  501    0 -0.64568213273E+02 -0.61805271644E+02  0.85259310928E+02  0.12361304894E+03  0.47000000000E+01 0. -1.
        -13    1    6    6    0    0 -0.19964874341E+02  0.20619052398E+02  0.33939947544E+02  0.44448414691E+02  0.00000000000E+00 0.  1.
         14    1    6    6    0    0  0.46572462929E+02 -0.38236964160E+01 -0.20626195129E+01  0.46774665758E+02  0.00000000000E+00 0. -1.
         -5    1    3    3    0  503  0.93470290244E+02  0.16883297532E+01  0.63850717958E+02  0.11330732456E+03  0.47000000000E+01 0.  1.
         11    1    4    4    0    0  0.13312158339E+02  0.24497894614E+02  0.59355765225E+01  0.28505990051E+02  0.00000000000E+00 0. -1.
        -12    1    4    4    0    0 -0.68821823898E+02  0.18823691294E+02  0.37194109924E+02  0.80462268248E+02  0.00000000000E+00 0.  1.
</event>
<event>
12    1  0.8691829E-002  0.2016081E+03  0.7818608E-02  0.1148842E+00
         21   -1    0    0  501  502  0.00000000000E+00  0.00000000000E+00  0.52109410604E+03  0.52109410604E+03  0.00000000000E+00 0.  1.
         21   -1    0    0  502  503 -0.00000000000E+00 -0.00000000000E+00 -0.79377517755E+02  0.79377517755E+02  0.00000000000E+00 0. -1.
         -6    2    1    2    0  503  0.10070269630E+03 -0.29995443615E+02  0.26978163162E+03  0.33550469164E+03  0.16953026182E+03 0.  0.
        -24    2    3    3    0    0  0.77680433478E+02  0.36616214529E+02  0.11609164996E+03  0.16636026209E+03  0.82604289841E+02 0.  0.
          6    2    1    2  501    0 -0.10070269630E+03  0.29995443615E+02  0.17193495667E+03  0.26496693215E+03  0.17206128597E+03 0.  0.
         24    2    5    5    0    0 -0.71974352493E+02  0.38722919856E+02  0.19544683211E+03  0.22654317822E+03  0.80265655662E+02 0.  0.
          5    1    5    5  501    0 -0.28728343808E+02 -0.87274762410E+01 -0.23511875441E+02  0.38423753932E+02  0.47000000000E+01 0. -1.
        -13    1    6    6    0    0  0.13836869046E+02  0.22559356009E+02  0.57248783098E+02  0.63069855357E+02  0.00000000000E+00 0.  1.
         14    1    6    6    0    0 -0.85811221539E+02  0.16163563847E+02  0.13819804901E+03  0.16347332286E+03  0.00000000000E+00 0. -1.
         -5    1    3    3    0  503  0.23022262823E+02 -0.66611658144E+02  0.15368998166E+03  0.16914442955E+03  0.47000000000E+01 0.  1.
         13    1    4    4    0    0 -0.10711777726E+02  0.82843317471E+01 -0.44207070532E+01  0.14244823108E+02  0.00000000000E+00 0. -1.
        -14    1    4    4    0    0  0.88392211203E+02  0.28331882782E+02  0.12051235701E+03  0.15211543898E+03  0.00000000000E+00 0.  1.
</event>
<event>
12    1  0.8691829E-002  0.2215840E+03  0.7818608E-02  0.1132921E+00
         21   -1    0    0  503  502  0.00000000000E+00  0.00000000000E+00  0.23033154392E+03  0.23033154392E+03  0.00000000000E+00 0. -1.
         21   -1    0    0  501  503 -0.00000000000E+00 -0.00000000000E+00 -0.53199273700E+03  0.53199273700E+03  0.00000000000E+00 0. -1.
          6    2    1    2  501    0  0.19009457804E+01 -0.13953572565E+03 -0.44657538062E+03  0.49852686704E+03  0.17212098728E+03 0.  0.
         24    2    3    3    0    0 -0.14285872542E+02 -0.16450785284E+03 -0.41547324927E+03  0.45522498719E+03  0.85702090449E+02 0.  0.
         -6    2    1    2    0  502 -0.19009457804E+01  0.13953572565E+03  0.14491418753E+03  0.26379741388E+03  0.17063153722E+03 0.  0.
        -24    2    5    5    0    0  0.41634400061E+02  0.22387130305E+02  0.83314889760E+02  0.12438549468E+03  0.79345910791E+02 0.  0.
          5    1    3    3  501    0  0.16186818323E+02  0.24972127192E+02 -0.31102131348E+02  0.43301879847E+02  0.47000000000E+01 0. -1.
        -13    1    4    4    0    0 -0.65254654608E+01  0.56233271060E+01 -0.32513090781E+01  0.92073078553E+01  0.00000000000E+00 0.  1.
         14    1    4    4    0    0 -0.77604070816E+01 -0.17013117995E+03 -0.41222194019E+03  0.44601767934E+03  0.00000000000E+00 0. -1.
         -5    1    5    5    0  502 -0.43535345841E+02  0.11714859534E+03  0.61599297773E+02  0.13941191920E+03  0.47000000000E+01 0.  1.
         13    1    6    6    0    0  0.49590651613E+02  0.13123980412E+02  0.94692996157E+02  0.10769510254E+03  0.00000000000E+00 0. -1.
        -14    1    6    6    0    0 -0.79562515520E+01  0.92631498925E+01 -0.11378106397E+02  0.16690392143E+02  0.00000000000E+00 0.  1.
</event>
<event>
12    1  0.8691829E-002  0.1854632E+03  0.7818608E-02  0.1163255E+00
         21   -1    0    0  501  502  0.00000000000E+00  0.00000000000E+00  0.25301694637E+03  0.25301694637E+03  0.00000000000E+00 0.  1.
         21   -1    0    0  502  503 -0.00000000000E+00 -0.00000000000E+00 -0.22402169814E+03  0.22402169814E+03  0.00000000000E+00 0.  1.
         -6    2    1    2    0  503 -0.10273256864E+02 -0.68222916254E+02 -0.13666873951E+03  0.23037996253E+03  0.17215306174E+03 0.  0.
        -24    2    3    3    0    0 -0.59532236043E+02 -0.25101325464E+01 -0.73418572037E+02  0.12661440631E+03  0.84205304290E+02 0.  0.
          6    2    1    2  501    0  0.10273256864E+02  0.68222916254E+02  0.16566398774E+03  0.24665868198E+03  0.16922187344E+03 0.  0.
         24    2    5    5    0    0 -0.50769137654E+02  0.49717567897E+02  0.14243499850E+03  0.17861239047E+03  0.81026633505E+02 0.  0.
          5    1    5    5  501    0  0.61042394518E+02  0.18505348358E+02  0.23228989240E+02  0.68046291504E+02  0.47000000000E+01 0. -1.
        -13    1    6    6    0    0  0.14463257421E+02 -0.65295273473E+01  0.54129460541E+01  0.16766649265E+02  0.00000000000E+00 0.  1.
         14    1    6    6    0    0 -0.65232395075E+02  0.56247095244E+02  0.13702205244E+03  0.16184574121E+03  0.00000000000E+00 0. -1.
         -5    1    3    3    0  503  0.49258979180E+02 -0.65712783708E+02 -0.63250167473E+02  0.10376555622E+03  0.47000000000E+01 0.  1.
         13    1    4    4    0    0  0.19693945266E+02  0.53846446464E+01 -0.36254449081E+01  0.20736193693E+02  0.00000000000E+00 0. -1.
        -14    1    4    4    0    0 -0.79226181309E+02 -0.78947771928E+01 -0.69793127129E+02  0.10587821261E+03  0.00000000000E+00 0.  1.
</event>
<event>
12    1  0.8691829E-002  0.2352487E+03  0.7818608E-02  0.1123208E+00
         21   -1    0    0  501  502  0.00000000000E+00  0.00000000000E+00  0.35560272355E+02  0.35560272355E+02  0.00000000000E+00 0. -1.
         21   -1    0    0  502  503 -0.00000000000E+00 -0.00000000000E+00 -0.17975657180E+04  0.17975657180E+04  0.00000000000E+00 0. -1.
         -6    2    1    2    0  503 -0.83218086652E+02 -0.13535988758E+03 -0.12243241274E+04  0.12467203053E+04  0.17347738064E+03 0.  0.
        -24    2    3    3    0    0 -0.10376050645E+03 -0.10852173529E+03 -0.66853103655E+03  0.68988071685E+03  0.80364463027E+02 0.  0.
          6    2    1    2  501    0  0.83218086652E+02  0.13535988758E+03 -0.53768131830E+03  0.58640568511E+03  0.17182222898E+03 0.  0.
         24    2    5    5    0    0  0.14729086847E+02  0.14267802816E+03 -0.40870007380E+03  0.44010958226E+03  0.78017487497E+02 0.  0.
          5    1    5    5  501    0  0.68488999804E+02 -0.73181405879E+01 -0.12898124450E+03  0.14629610285E+03  0.47000000000E+01 0. -1.
        -11    1    6    6    0    0  0.30051818047E+02  0.84249726270E+02 -0.32370794855E+03  0.33583919381E+03  0.00000000000E+00 0.  1.
         12    1    6    6    0    0 -0.15322731200E+02  0.58428301894E+02 -0.84992125252E+02  0.10427038846E+03  0.00000000000E+00 0. -1.
         -5    1    3    3    0  503  0.20542419797E+02 -0.26838152285E+02 -0.55579309081E+03  0.55683958842E+03  0.47000000000E+01 0.  1.
         11    1    4    4    0    0 -0.94182798440E+02 -0.42729764487E+02 -0.38380447371E+03  0.39749478781E+03  0.00000000000E+00 0. -1.
        -12    1    4    4    0    0 -0.95777080083E+01 -0.65791970804E+02 -0.28472656284E+03  0.29238592904E+03  0.00000000000E+00 0.  1.
</event>
<event>
12    1  0.8691829E-002  0.1801790E+03  0.7818608E-02  0.1167830E+00
         21   -1    0    0  501  502  0.00000000000E+00  0.00000000000E+00  0.28369636047E+03  0.28369636047E+03  0.00000000000E+00 0. -1.
         21   -1    0    0  502  503 -0.00000000000E+00 -0.00000000000E+00 -0.23565241750E+03  0.23565241750E+03  0.00000000000E+00 0. -1.
         -6    2    1    2    0  503 -0.17167396616E+02 -0.49956962719E+02 -0.16264814289E+03  0.24212031871E+03  0.17139840348E+03 0.  0.
        -24    2    3    3    0    0 -0.89797895327E+01  0.33478464986E+02 -0.48610703058E+02  0.10050416430E+03  0.80849504336E+02 0.  0.
          6    2    1    2  501    0  0.17167396616E+02  0.49956962719E+02  0.21069208586E+03  0.27722845927E+03  0.17226156262E+03 0.  0.
         24    2    5    5    0    0 -0.47714211218E+02  0.66263629676E+01  0.71734435393E+02  0.11779671045E+03  0.80060484213E+02 0.  0.
          5    1    5    5  501    0  0.64881607834E+02  0.43330599752E+02  0.13895765046E+03  0.15943174882E+03  0.47000000000E+01 0. -1.
        -13    1    6    6    0    0 -0.55629638611E+02  0.25157708174E+02  0.75706824131E+02  0.97257854143E+02  0.00000000000E+00 0.  1.
         14    1    6    6    0    0  0.79154273933E+01 -0.18531345206E+02 -0.39723887373E+01  0.20538856303E+02  0.00000000000E+00 0. -1.
         -5    1    3    3    0  503 -0.81876070833E+01 -0.83435427706E+02 -0.11403743983E+03  0.14161615441E+03  0.47000000000E+01 0.  1.
         11    1    4    4    0    0 -0.10550829159E+02 -0.78239351383E+00 -0.62582582194E+02  0.63470557974E+02  0.00000000000E+00 0. -1.
        -12    1    4    4    0    0  0.15710396259E+01  0.34260858500E+02  0.13971879135E+02  0.37033606323E+02  0.00000000000E+00 0.  1.
</event>
<event>
12    1  0.8691829E-002  0.3979314E+03  0.7818608E-02  0.1044545E+00
         21   -1    0    0  503  502  0.00000000000E+00  0.00000000000E+00  0.28984333556E+03  0.28984333556E+03  0.00000000000E+00 0.  1.
         21   -1    0    0  501  503 -0.00000000000E+00 -0.00000000000E+00 -0.54647980779E+03  0.54647980779E+03  0.00000000000E+00 0. -1.
          6    2    1    2  501    0  0.12342018620E+03 -0.33623195440E+03 -0.14509587437E+03  0.42305485673E+03  0.17215728136E+03 0.  0.
         24    2    3    3    0    0  0.56902839059E+02 -0.14418555899E+03 -0.34808160999E+01  0.17529834282E+03  0.81792324816E+02 0.  0.
         -6    2    1    2    0  502 -0.12342018620E+03  0.33623195440E+03 -0.11154059786E+03  0.41326828662E+03  0.17339233616E+03 0.  0.
        -24    2    5    5    0    0 -0.10187921189E+03  0.19491698686E+03 -0.13158894752E+03  0.26884543542E+03  0.81180117375E+02 0.  0.
          5    1    3    3  501    0  0.66517347146E+02 -0.19204639540E+03 -0.14161505827E+03  0.24775651392E+03  0.47000000000E+01 0. -1.
        -11    1    4    4    0    0  0.73177830300E+02 -0.11334333316E+03  0.15148344075E+02  0.13576147593E+03  0.00000000000E+00 0.  1.
         12    1    4    4    0    0 -0.16274991241E+02 -0.30842225833E+02 -0.18629160175E+02  0.39536866885E+02  0.00000000000E+00 0. -1.
         -5    1    5    5    0  502 -0.21540974318E+02  0.14131496754E+03  0.20048349663E+02  0.14442285120E+03  0.47000000000E+01 0.  1.
         11    1    6    6    0    0  0.57457122951E+01  0.60664935445E+02 -0.47885857938E+02  0.77500341888E+02  0.00000000000E+00 0. -1.
        -12    1    6    6    0    0 -0.10762492418E+03  0.13425205141E+03 -0.83703089583E+02  0.19134509354E+03  0.00000000000E+00 0.  1.
</event>
<event>
12    1  0.8691829E-002  0.1724545E+03  0.7818608E-02  0.1175327E+00
         21   -1    0    0  503  502  0.00000000000E+00  0.00000000000E+00  0.23812834175E+03  0.23812834175E+03  0.00000000000E+00 0.  1.
         21   -1    0    0  501  503 -0.00000000000E+00 -0.00000000000E+00 -0.48667729588E+03  0.48667729588E+03  0.00000000000E+00 0.  1.
          6    2    1    2  501    0 -0.71653778274E+00 -0.40106201758E+01 -0.43675855713E+03  0.46957279114E+03  0.17240641071E+03 0.  0.
         24    2    3    3    0    0 -0.44685106692E+02 -0.28828456593E+02 -0.15530600637E+03  0.18358889581E+03  0.82201510827E+02 0.  0.
         -6    2    1    2    0  502  0.71653778274E+00  0.40106201758E+01  0.18820960300E+03  0.25523284648E+03  0.17234950758E+03 0.  0.
        -24    2    5    5    0    0 -0.41762706731E+02 -0.49886682898E+02  0.10456907485E+03  0.14694049476E+03  0.80149939373E+02 0.  0.
          5    1    3    3  501    0  0.43968568909E+02  0.24817836417E+02 -0.28145255076E+03  0.28598389533E+03  0.47000000000E+01 0. -1.
        -11    1    4    4    0    0 -0.42261831278E+02 -0.19061649978E+02 -0.16391533080E+03  0.17034566198E+03  0.00000000000E+00 0.  1.
         12    1    4    4    0    0 -0.24232754144E+01 -0.97668066143E+01  0.86093244345E+01  0.13243233834E+02  0.00000000000E+00 0. -1.
         -5    1    5    5    0  502  0.42479244514E+02  0.53897303074E+02  0.83640528151E+02  0.10829235173E+03  0.47000000000E+01 0.  1.
         11    1    6    6    0    0 -0.11635097025E+02 -0.22524069161E+02 -0.85246639947E+01  0.26746571193E+02  0.00000000000E+00 0. -1.
        -12    1    6    6    0    0 -0.30127609706E+02 -0.27362613737E+02  0.11309373884E+03  0.12019392356E+03  0.00000000000E+00 0.  1.
</event>
<event>
12    1  0.8691829E-002  0.1977094E+03  0.7818608E-02  0.1151969E+00
         21   -1    0    0  503  502  0.00000000000E+00  0.00000000000E+00  0.20832509035E+02  0.20832509035E+02  0.00000000000E+00 0. -1.
         21   -1    0    0  501  503 -0.00000000000E+00 -0.00000000000E+00 -0.19139405991E+04  0.19139405991E+04  0.00000000000E+00 0. -1.
          6    2    1    2  501    0 -0.23918719190E+02 -0.93263845956E+02 -0.10999554335E+04  0.11173502532E+04  0.17117062393E+03 0.  0.
         24    2    3    3    0    0 -0.57020767882E+02 -0.11369184505E+03 -0.96055714886E+03  0.97255032039E+03  0.83707143427E+02 0.  0.
         -6    2    1    2    0  502  0.23918719190E+02  0.93263845956E+02 -0.79315265658E+03  0.81742285498E+03  0.17268102706E+03 0.  0.
        -24    2    5    5    0    0 -0.54440448477E+01  0.12459584246E+03 -0.52762110311E+03  0.54840062205E+03  0.82495164954E+02 0.  0.
          5    1    3    3  501    0  0.33102048692E+02  0.20427999094E+02 -0.13939828464E+03  0.14479993278E+03  0.47000000000E+01 0. -1.
        -11    1    4    4    0    0 -0.77609739186E+02 -0.73260853508E+02 -0.65283144458E+03  0.66149778481E+03  0.00000000000E+00 0.  1.
         12    1    4    4    0    0  0.20588971304E+02 -0.40430991542E+02 -0.30772570428E+03  0.31105253558E+03  0.00000000000E+00 0. -1.
         -5    1    5    5    0  502  0.29362764038E+02 -0.31331996506E+02 -0.26553155347E+03  0.26902223292E+03  0.47000000000E+01 0.  1.
         13    1    6    6    0    0 -0.99000281293E+01  0.60781377324E+02 -0.40918247462E+03  0.41379062812E+03  0.00000000000E+00 0. -1.
        -14    1    6    6    0    0  0.44559832816E+01  0.63814465138E+02 -0.11843862849E+03  0.13460999393E+03  0.00000000000E+00 0.  1.
</event>
<event>
12    1  0.8691829E-002  0.1849355E+03  0.7818608E-02  0.1163306E+00
         21   -1    0    0  503  502  0.00000000000E+00  0.00000000000E+00  0.12066793943E+03  0.12066793943E+03  0.00000000000E+00 0. -1.
         21   -1    0    0  501  503 -0.00000000000E+00 -0.00000000000E+00 -0.29543609398E+03  0.29543609398E+03  0.00000000000E+00 0. -1.
          6    2    1    2  501    0  0.65980372417E+02 -0.31284928819E+00 -0.13169418176E+03  0.22703410818E+03  0.17276464148E+03 0.  0.
         24    2    3    3    0    0  0.42194484171E+02 -0.45671386036E+02 -0.14209589084E+03  0.17456077316E+03  0.80087273250E+02 0.  0.
         -6    2    1    2    0  502 -0.65980372417E+02  0.31284928819E+00 -0.43073972783E+02  0.18906992523E+03  0.17186786225E+03 0.  0.
        -24    2    5    5    0    0 -0.10452548283E+03 -0.56880888162E+01  0.12989752619E+01  0.12980117028E+03  0.76738031996E+02 0.  0.
          5    1    3    3  501    0  0.23785888246E+02  0.45358536748E+02  0.10401709077E+02  0.52473335012E+02  0.47000000000E+01 0. -1.
        -11    1    4    4    0    0  0.24232602602E+02 -0.96645618478E+01  0.80659373072E+00  0.26101214110E+02  0.00000000000E+00 0.  1.
         12    1    4    4    0    0  0.17961881570E+02 -0.36006824188E+02 -0.14290248457E+03  0.14845955905E+03  0.00000000000E+00 0. -1.
         -5    1    5    5    0  502  0.38545110413E+02  0.60009381044E+01 -0.44372948045E+02  0.59268754947E+02  0.47000000000E+01 0.  1.
         13    1    6    6    0    0 -0.10714449960E+02 -0.21557757452E+02  0.21795825509E+02  0.32474518532E+02  0.00000000000E+00 0. -1.
        -14    1    6    6    0    0 -0.93811032869E+02  0.15869668636E+02 -0.20496850247E+02  0.97326651749E+02  0.00000000000E+00 0.  1.
</event>
<event>
12    1  0.8691829E-002  0.2053258E+03  0.7818608E-02  0.1145485E+00
         21   -1    0    0  503  502  0.00000000000E+00  0.00000000000E+00  0.24743159930E+03  0.24743159930E+03  0.00000000000E+00 0.  1.
         21   -1    0    0  501  503 -0.00000000000E+00 -0.00000000000E+00 -0.18927059254E+03  0.18927059254E+03  0.00000000000E+00 0.  1.
          6    2    1    2  501    0 -0.66958506519E+02  0.86522994364E+02 -0.41138546879E+02  0.20862524321E+03  0.17280752853E+03 0.  0.
         24    2    3    3    0    0  0.10960403119E+02  0.91698522368E+02 -0.46377981095E+01  0.12229716417E+03  0.80039601153E+02 0.  0.
         -6    2    1    2    0  502  0.66958506519E+02 -0.86522994364E+02  0.99299553635E+02  0.22807694863E+03  0.17374988632E+03 0.  0.
        -24    2    5    5    0    0  0.75211464925E+02 -0.19584066609E+01  0.20019897208E+02  0.11177288706E+03  0.80198392652E+02 0.  0.
          5    1    3    3  501    0 -0.77918909639E+02 -0.51755280040E+01 -0.36500748770E+02  0.86328079037E+02  0.47000000000E+01 0. -1.
        -13    1    4    4    0    0 -0.11107587215E+02  0.89619246357E+02 -0.23365867256E+02  0.93278891310E+02  0.00000000000E+00 0.  1.
         14    1    4    4    0    0  0.22067990334E+02  0.20792760114E+01  0.18728069146E+02  0.29018272865E+02  0.00000000000E+00 0. -1.
         -5    1    5    5    0  502 -0.82529584055E+01 -0.84564587704E+02  0.79279656427E+02  0.11630406158E+03  0.47000000000E+01 0.  1.
         13    1    6    6    0    0 -0.13789058911E+02  0.13270517193E+02  0.77574097900E+01  0.20649992225E+02  0.00000000000E+00 0. -1.
        -14    1    6    6    0    0  0.89000523836E+02 -0.15228923854E+02  0.12262487418E+02  0.91122894832E+02  0.00000000000E+00 0.  1.
</event>
<event>
12    1  0.8691829E-002  0.1879413E+03  0.7818608E-02  0.1160365E+00
         21   -1    0    0  503  502  0.00000000000E+00  0.00000000000E+00  0.71853155117E+02  0.71853155117E+02  0.00000000000E+00 0. -1.
         21   -1    0    0  501  503 -0.00000000000E+00 -0.00000000000E+00 -0.87135752091E+03  0.87135752091E+03  0.00000000000E+00 0. -1.
          6    2    1    2  501    0  0.69669538609E+02 -0.30112356291E+02 -0.71134428851E+03  0.73575311383E+03  0.17193414176E+03 0.  0.
         24    2    3    3    0    0  0.97058816304E+02 -0.12843389771E+02 -0.33668806126E+03  0.35967098403E+03  0.80118659969E+02 0.  0.
         -6    2    1    2    0  502 -0.69669538609E+02  0.30112356291E+02 -0.88160077284E+02  0.20745756220E+03  0.17177264705E+03 0.  0.
        -24    2    5    5    0    0 -0.97258537249E+02  0.60990387645E+02 -0.89443697171E+02  0.16576411731E+03  0.79363197846E+02 0.  0.
          5    1    3    3  501    0 -0.27389277695E+02 -0.17268966520E+02 -0.37465622725E+03  0.37608212980E+03  0.47000000000E+01 0. -1.
        -11    1    4    4    0    0  0.44349654663E+02  0.10097660112E+02 -0.51341392160E+02  0.68591494789E+02  0.00000000000E+00 0.  1.
         12    1    4    4    0    0  0.52709161641E+02 -0.22941049884E+02 -0.28534666910E+03  0.29107948924E+03  0.00000000000E+00 0. -1.
         -5    1    5    5    0  502  0.27588998640E+02 -0.30878031354E+02  0.12836198879E+01  0.41693444884E+02  0.47000000000E+01 0.  1.
         11    1    6    6    0    0 -0.76662669700E+02  0.13536018862E+02 -0.22253819003E+02  0.80966790676E+02  0.00000000000E+00 0. -1.
        -12    1    6    6    0    0 -0.20595867549E+02  0.47454368783E+02 -0.67189878168E+02  0.84797326638E+02  0.00000000000E+00 0.  1.
</event>
<event>
12    1  0.8691829E-002  0.1833998E+03  0.7818608E-02  0.1164825E+00
         21   -1    0    0  503  502  0.00000000000E+00  0.00000000000E+00  0.66785624014E+03  0.66785624014E+03  0.00000000000E+00 0.  1.
         21   -1    0    0  501  503 -0.00000000000E+00 -0.00000000000E+00 -0.73919741590E+02  0.73919741590E+02  0.00000000000E+00 0.  1.
          6    2    1    2  501    0  0.58210534834E+02 -0.10379270211E+02  0.86835290176E+02  0.20291833897E+03  0.17360670798E+03 0.  0.
         24    2    3    3    0    0  0.45588702628E+02 -0.65583909912E+02  0.92818307588E+02  0.14578035344E+03  0.79101796314E+02 0.  0.
         -6    2    1    2    0  502 -0.58210534834E+02  0.10379270211E+02  0.50710120837E+03  0.53885764276E+03  0.17239410666E+03 0.  0.
        -24    2    5    5    0    0 -0.22435313937E+02 -0.56865207523E+02  0.34933064218E+03  0.36359975342E+03  0.80223986366E+02 0.  0.
          5    1    3    3  501    0  0.12621832206E+02  0.55204639701E+02 -0.59830174124E+01  0.57137985527E+02  0.47000000000E+01 0. -1.
        -13    1    4    4    0    0  0.64143139039E+02 -0.39045656699E+02  0.83033609429E+02  0.11195305216E+03  0.00000000000E+00 0.  1.
         14    1    4    4    0    0 -0.18554436412E+02 -0.26538253213E+02  0.97846981586E+01  0.33827301285E+02  0.00000000000E+00 0. -1.
         -5    1    5    5    0  502 -0.35775220897E+02  0.67244477733E+02  0.15777056620E+03  0.17525788933E+03  0.47000000000E+01 0.  1.
         13    1    6    6    0    0 -0.46398113248E+02 -0.23536215878E+02  0.26182984702E+03  0.26694869762E+03  0.00000000000E+00 0. -1.
        -14    1    6    6    0    0  0.23962799311E+02 -0.33328991644E+02  0.87500795154E+02  0.96651055801E+02  0.00000000000E+00 0.  1.
</event>
<event>
12    1  0.8691829E-002  0.1733966E+03  0.7818608E-02  0.1174389E+00
         21   -1    0    0  503  502  0.00000000000E+00  0.00000000000E+00  0.10901586722E+04  0.10901586722E+04  0.00000000000E+00 0. -1.
         21   -1    0    0  501  503 -0.00000000000E+00 -0.00000000000E+00 -0.38900313676E+02  0.38900313676E+02  0.00000000000E+00 0. -1.
          6    2    1    2  501    0 -0.15157114143E+01 -0.19252495219E+02  0.83064034959E+03  0.84854568570E+03  0.17231782960E+03 0.  0.
         24    2    3    3    0    0  0.42645309461E+02  0.29967707373E+02  0.31895272719E+03  0.33258140687E+03  0.78503911436E+02 0.  0.
         -6    2    1    2    0  502  0.15157114143E+01  0.19252495219E+02  0.22061800896E+03  0.28051330020E+03  0.17216982825E+03 0.  0.
        -24    2    5    5    0    0 -0.19547356328E+01 -0.55771077241E+02  0.13341012200E+03  0.16532699036E+03  0.80128141384E+02 0.  0.
          5    1    3    3  501    0 -0.44161020875E+02 -0.49220202592E+02  0.51168762240E+03  0.51596427883E+03  0.47000000000E+01 0. -1.
        -13    1    4    4    0    0 -0.30938078507E+00  0.26184177795E+01 -0.44617373446E+01  0.51825600113E+01  0.00000000000E+00 0.  1.
         14    1    4    4    0    0  0.42954690246E+02  0.27349289594E+02  0.32341446454E+03  0.32739884686E+03  0.00000000000E+00 0. -1.
         -5    1    5    5    0  502  0.34704470471E+01  0.75023572460E+02  0.87207886960E+02  0.11518630984E+03  0.47000000000E+01 0.  1.
         13    1    6    6    0    0 -0.43467546469E+00  0.18091247153E+02  0.80259177521E+01  0.19796401746E+02  0.00000000000E+00 0. -1.
        -14    1    6    6    0    0 -0.15200601681E+01 -0.73862324394E+02  0.12538420425E+03  0.14553058862E+03  0.00000000000E+00 0.  1.
</event>
<event>
12    1  0.8691829E-002  0.1785562E+03  0.7818608E-02  0.1169829E+00
         21   -1    0    0  501  502  0.00000000000E+00  0.00000000000E+00  0.79186636459E+03  0.79186636459E+03  0.00000000000E+00 0.  1.
         21   -1    0    0  502  503 -0.00000000000E+00 -0.00000000000E+00 -0.32757449885E+03  0.32757449885E+03  0.00000000000E+00 0.  1.
         -6    2    1    2    0  503  0.36845491932E+02 -0.34794606623E+02 -0.29276465516E+03  0.34161253710E+03  0.16858151520E+03 0.  0.
        -24    2    3    3    0    0  0.51814509278E+02 -0.76472729840E+02 -0.15235257018E+03  0.19430747594E+03  0.77532366048E+02 0.  0.
          6    2    1    2  501    0 -0.36845491932E+02  0.34794606623E+02  0.75705652090E+03  0.77782832634E+03  0.17121353475E+03 0.  0.
         24    2    5    5    0    0 -0.72745812190E+02  0.38480213502E+02  0.70406302103E+03  0.71354133137E+03  0.81632187100E+02 0.  0.
          5    1    5    5  501    0  0.35900320258E+02 -0.36856068789E+01  0.52993499872E+02  0.64286994963E+02  0.47000000000E+01 0. -1.
        -11    1    6    6    0    0 -0.18200716420E+02  0.47363486796E+02  0.19522584187E+03  0.20171191163E+03  0.00000000000E+00 0.  1.
         12    1    6    6    0    0 -0.54545095770E+02 -0.88832732941E+01  0.50883717916E+03  0.51182941974E+03  0.00000000000E+00 0. -1.
         -5    1    3    3    0  503 -0.14969017346E+02  0.41678123218E+02 -0.14041208498E+03  0.14730506116E+03  0.47000000000E+01 0.  1.
         13    1    4    4    0    0  0.47926985741E+02 -0.96294030800E+01 -0.38497113327E+02  0.62223380657E+02  0.00000000000E+00 0. -1.
        -14    1    4    4    0    0  0.38875235372E+01 -0.66843326760E+02 -0.11385545685E+03  0.13208409528E+03  0.00000000000E+00 0.  1.
</event>
<event>
12    1  0.8691829E-002  0.1743787E+03  0.7818608E-02  0.1173382E+00
         21   -1    0    0  501  502  0.00000000000E+00  0.00000000000E+00  0.10287434268E+04  0.10287434268E+04  0.00000000000E+00 0. -1.
         21   -1    0    0  502  503 -0.00000000000E+00 -0.00000000000E+00 -0.33231005839E+02  0.33231005839E+02  0.00000000000E+00 0. -1.
         -6    2    1    2    0  503  0.76677061012E+01 -0.20543175806E+02  0.67455613965E+03  0.69670624167E+03  0.17289530315E+03 0.  0.
        -24    2    3    3    0    0  0.34425795876E+02  0.45627519980E+02  0.31813213771E+03  0.33317534132E+03  0.80813025055E+02 0.  0.
          6    2    1    2  501    0 -0.76677061012E+01  0.20543175806E+02  0.32095628135E+03  0.36526819101E+03  0.17299451158E+03 0.  0.
         24    2    5    5    0    0 -0.66183153242E+02 -0.11245192349E+02  0.23018022132E+03  0.25258748734E+03  0.79440797776E+02 0.  0.
          5    1    5    5  501    0  0.58515447141E+02  0.31788368155E+02  0.90776060028E+02  0.11268070366E+03  0.47000000000E+01 0. -1.
        -13    1    6    6    0    0 -0.79157899508E+02 -0.86605225844E+01  0.22447398285E+03  0.23817965211E+03  0.00000000000E+00 0.  1.
         14    1    6    6    0    0  0.12974746266E+02 -0.25846697650E+01  0.57062384728E+01  0.14407835229E+02  0.00000000000E+00 0. -1.
         -5    1    3    3    0  503 -0.26758089775E+02 -0.66170695786E+02  0.35642400195E+03  0.36353090036E+03  0.47000000000E+01 0.  1.
         13    1    4    4    0    0  0.37632032456E+01 -0.22436076277E+02  0.51729233905E+02  0.56510643756E+02  0.00000000000E+00 0. -1.
        -14    1    4    4    0    0  0.30662592631E+02  0.68063596257E+02  0.26640290380E+03  0.27666469756E+03  0.00000000000E+00 0.  1.
</event>
<event>
12    1  0.8691829E-002  0.1926845E+03  0.7818608E-02  0.1156376E+00
         21   -1    0    0  501  502  0.00000000000E+00  0.00000000000E+00  0.99904733674E+02  0.99904733674E+02  0.00000000000E+00 0. -1.
         21   -1    0    0  502  503 -0.00000000000E+00 -0.00000000000E+00 -0.51463280964E+03  0.51463280964E+03  0.00000000000E+00 0. -1.
         -6    2    1    2    0  503 -0.41334147913E+02  0.74862080171E+02 -0.43311647352E+02  0.19611492761E+03  0.17109156380E+03 0.  0.
        -24    2    3    3    0    0 -0.12147926911E+02 -0.21659160325E+02  0.91649410224E+01  0.82342928897E+02  0.77972241479E+02 0.  0.
          6    2    1    2  501    0  0.41334147913E+02 -0.74862080171E+02 -0.37141642862E+03  0.41842261571E+03  0.17266869739E+03 0.  0.
         24    2    5    5    0    0 -0.18597745759E+02 -0.61323343338E+02 -0.17131454841E+03  0.20904739813E+03  0.10122110245E+03 0.  0.
          5    1    5    5  501    0  0.59931893671E+02 -0.13538736834E+02 -0.20010188021E+03  0.20937521758E+03  0.47000000000E+01 0. -1.
        -11    1    6    6    0    0 -0.64310902344E+01  0.24967444385E+02 -0.14329855060E+02  0.29497066748E+02  0.00000000000E+00 0.  1.
         12    1    6    6    0    0 -0.12166655524E+02 -0.86290787723E+02 -0.15698469335E+03  0.17955033138E+03  0.00000000000E+00 0. -1.
         -5    1    3    3    0  503 -0.29186221002E+02  0.96521240496E+02 -0.52476588374E+02  0.11377199871E+03  0.47000000000E+01 0.  1.
         11    1    4    4    0    0  0.12093096755E+02 -0.40463529220E+02  0.23663864085E+02  0.48409902391E+02  0.00000000000E+00 0. -1.
        -12    1    4    4    0    0 -0.24241023666E+02  0.18804368895E+02 -0.14498923063E+02  0.33933026506E+02  0.00000000000E+00 0.  1.
</event>
<event>
12    1  0.8691829E-002  0.3421053E+03  0.7818608E-02  0.1066258E+00
         21   -1    0    0  503  502  0.00000000000E+00  0.00000000000E+00  0.53188142367E+03  0.53188142367E+03  0.00000000000E+00 0.  1.
         21   -1    0    0  501  503 -0.00000000000E+00 -0.00000000000E+00 -0.26500086990E+03  0.26500086990E+03  0.00000000000E+00 0. -1.
          6    2    1    2  501    0  0.26455691136E+03 -0.13066166209E+03  0.30195887905E+03  0.45630602525E+03  0.17312768339E+03 0.  0.
         24    2    3    3    0    0  0.71625704488E+02 -0.26389774324E+02  0.16183129906E+03  0.19601214166E+03  0.80029548218E+02 0.  0.
         -6    2    1    2    0  502 -0.26455691136E+03  0.13066166209E+03 -0.35078325267E+02  0.34057626832E+03  0.16642979406E+03 0.  0.
        -24    2    5    5    0    0 -0.21084347741E+03  0.12485272445E+03  0.25921178653E+02  0.25895576709E+03  0.79642997400E+02 0.  0.
          5    1    3    3  501    0  0.19293120687E+03 -0.10427188777E+03  0.14012757998E+03  0.26029388359E+03  0.47000000000E+01 0. -1.
        -11    1    4    4    0    0  0.69578446638E+02  0.98109334160E+01  0.79813995408E+02  0.10633761571E+03  0.00000000000E+00 0.  1.
         12    1    4    4    0    0  0.20472578505E+01 -0.36200707740E+02  0.82017303656E+02  0.89674525952E+02  0.00000000000E+00 0. -1.
         -5    1    5    5    0  502 -0.53713433947E+02  0.58089376404E+01 -0.60999503920E+02  0.81620501233E+02  0.47000000000E+01 0.  1.
         13    1    6    6    0    0 -0.17512537238E+03  0.11668165842E+03 -0.57635501624E+01  0.21051537705E+03  0.00000000000E+00 0. -1.
        -14    1    6    6    0    0 -0.35718105035E+02  0.81710660317E+01  0.31684728815E+02  0.48440390042E+02  0.00000000000E+00 0.  1.
</event>
<event>
12    1  0.8691829E-002  0.2549943E+03  0.7818608E-02  0.1110545E+00
         21   -1    0    0  503  502  0.00000000000E+00  0.00000000000E+00  0.21928917716E+03  0.21928917716E+03  0.00000000000E+00 0.  1.
         21   -1    0    0  501  503 -0.00000000000E+00 -0.00000000000E+00 -0.32755560618E+03  0.32755560618E+03  0.00000000000E+00 0. -1.
          6    2    1    2  501    0 -0.99156302618E+02  0.15551381563E+03 -0.14207085980E+03  0.29190108628E+03  0.17608405881E+03 0.  0.
         24    2    3    3    0    0 -0.18437623335E+02  0.13673521548E+03 -0.13335461408E+03  0.20843729804E+03  0.81401406688E+02 0.  0.
         -6    2    1    2    0  502  0.99156302618E+02 -0.15551381563E+03  0.33804430790E+02  0.25494369705E+03  0.17273398602E+03 0.  0.
        -24    2    5    5    0    0  0.13025699415E+02 -0.11913254154E+03 -0.23311965482E+02  0.14527852193E+03  0.78741157590E+02 0.  0.
          5    1    3    3  501    0 -0.80718679283E+02  0.18778600153E+02 -0.87162457248E+01  0.83463788246E+02  0.47000000000E+01 0. -1.
        -11    1    4    4    0    0 -0.48166414283E+02  0.58482488561E+02 -0.53513901524E+02  0.92757439538E+02  0.00000000000E+00 0.  1.
         12    1    4    4    0    0  0.29728790948E+02  0.78252726918E+02 -0.79840712556E+02  0.11567985850E+03  0.00000000000E+00 0. -1.
         -5    1    5    5    0  502  0.86130603203E+02 -0.36381274088E+02  0.57116396273E+02  0.10966517513E+03  0.47000000000E+01 0.  1.
         11    1    6    6    0    0 -0.27852209537E+02 -0.23706751965E+02 -0.19377292301E+02  0.41391244505E+02  0.00000000000E+00 0. -1.
        -12    1    6    6    0    0  0.40877908951E+02 -0.95425789579E+02 -0.39346731816E+01  0.10388727742E+03  0.00000000000E+00 0.  1.
</event>
<event>
12    1  0.8691829E-002  0.1984346E+03  0.7818608E-02  0.1151244E+00
         21   -1    0    0  501  502  0.00000000000E+00  0.00000000000E+00  0.72623522993E+02  0.72623522993E+02  0.00000000000E+00 0.  1.
         21   -1    0    0  502  503 -0.00000000000E+00 -0.00000000000E+00 -0.10323855286E+04  0.10323855286E+04  0.00000000000E+00 0.  1.
         -6    2    1    2    0  503  0.90567826192E+02  0.39193166489E+02 -0.86199952654E+03  0.88454477479E+03  0.17215585793E+03 0.  0.
        -24    2    3    3    0    0  0.65803171668E+02  0.92055099380E+02 -0.56894802532E+03  0.58569875352E+03  0.80851565471E+02 0.  0.
          6    2    1    2  501    0 -0.90567826192E+02 -0.39193166489E+02 -0.97762479053E+02  0.22046427678E+03  0.17119684456E+03 0.  0.
         24    2    5    5    0    0 -0.57148901400E+02 -0.86852264956E+02 -0.94858924415E+02  0.16199432869E+03  0.80216171228E+02 0.  0.
          5    1    5    5  501    0 -0.33418924792E+02  0.47659098467E+02 -0.29035546386E+01  0.58469948097E+02  0.47000000000E+01 0. -1.
        -11    1    6    6    0    0 -0.56420348164E+02 -0.49363101567E+02 -0.18942281080E+02  0.77322580763E+02  0.00000000000E+00 0.  1.
         12    1    6    6    0    0 -0.72855323602E+00 -0.37489163389E+02 -0.75916643335E+02  0.84671747925E+02  0.00000000000E+00 0. -1.
         -5    1    3    3    0  503  0.24764654524E+02 -0.52861932892E+02 -0.29305150122E+03  0.29884602127E+03  0.47000000000E+01 0.  1.
         11    1    4    4    0    0  0.44600066129E+02  0.17043614640E+02 -0.10630825582E+03  0.11653795928E+03  0.00000000000E+00 0. -1.
        -12    1    4    4    0    0  0.21203105539E+02  0.75011484740E+02 -0.46263976949E+03  0.46916079423E+03  0.00000000000E+00 0.  1.
</event>
<event>
12    1  0.8691829E-002  0.1892758E+03  0.7818608E-02  0.1159572E+00
         21   -1    0    0  501  502  0.00000000000E+00  0.00000000000E+00  0.10313250165E+03  0.10313250165E+03  0.00000000000E+00 0. -1.
         21   -1    0    0  502  503 -0.00000000000E+00 -0.00000000000E+00 -0.34397455848E+03  0.34397455848E+03  0.00000000000E+00 0. -1.
         -6    2    1    2    0  503  0.23427921360E+02 -0.70562942229E+02 -0.11361815459E+03  0.21904728936E+03  0.17188552472E+03 0.  0.
        -24    2    3    3    0    0  0.75872407268E+02 -0.65132251794E+02 -0.51780816279E+02  0.13764788574E+03  0.79163470775E+02 0.  0.
          6    2    1    2  501    0 -0.23427921360E+02  0.70562942229E+02 -0.12722390224E+03  0.22805977077E+03  0.17406131514E+03 0.  0.
         24    2    5    5    0    0  0.48270367773E+02  0.50603043114E+02 -0.10712020891E+03  0.15082447623E+03  0.79891095222E+02 0.  0.
          5    1    5    5  501    0 -0.71698289133E+02  0.19959899116E+02 -0.20103693329E+02  0.77235294541E+02  0.47000000000E+01 0. -1.
        -11    1    6    6    0    0  0.14172425242E+02 -0.38196700798E+00 -0.84137674738E+02  0.85323805859E+02  0.00000000000E+00 0.  1.
         12    1    6    6    0    0  0.34097942531E+02  0.50985010122E+02 -0.22982534172E+02  0.65500670370E+02  0.00000000000E+00 0. -1.
         -5    1    3    3    0  503 -0.52444485907E+02 -0.54306904354E+01 -0.61837338316E+02  0.81399403626E+02  0.47000000000E+01 0.  1.
         13    1    4    4    0    0 -0.51691544913E+01 -0.43103779411E+02 -0.14582350548E+02  0.45796297942E+02  0.00000000000E+00 0. -1.
        -14    1    4    4    0    0  0.81041561759E+02 -0.22028472383E+02 -0.37198465731E+02  0.91851587796E+02  0.00000000000E+00 0.  1.
</event>
<event>
12    1  0.8691829E-002  0.2130503E+03  0.7818608E-02  0.1139521E+00
         21   -1    0    0  503  502  0.00000000000E+00  0.00000000000E+00  0.57270393526E+03  0.57270393526E+03  0.00000000000E+00 0.  1.
         21   -1    0    0  501  503 -0.00000000000E+00 -0.00000000000E+00 -0.79799723832E+02  0.79799723832E+02  0.00000000000E+00 0.  1.
          6    2    1    2  501    0 -0.11909187356E+03 -0.44851440653E+02  0.20738756688E+03  0.29732140102E+03  0.17086803837E+03 0.  0.
         24    2    3    3    0    0 -0.12657123764E+03 -0.42263096155E+02  0.91334710030E+02  0.18090406556E+03  0.81103663210E+02 0.  0.
         -6    2    1    2    0  502  0.11909187356E+03  0.44851440653E+02  0.28551664455E+03  0.35518225807E+03  0.16864209455E+03 0.  0.
        -24    2    5    5    0    0  0.12480268942E+03  0.84662765555E+02  0.20872167631E+03  0.26836571497E+03  0.75577269418E+02 0.  0.
          5    1    3    3  501    0  0.74793640763E+01 -0.25883444979E+01  0.11605285685E+03  0.11641733546E+03  0.47000000000E+01 0. -1.
        -11    1    4    4    0    0 -0.17681673183E+02 -0.36299744012E+01 -0.15310873566E+02  0.23669413387E+02  0.00000000000E+00 0.  1.
         12    1    4    4    0    0 -0.10888956445E+03 -0.38633121754E+02  0.10664558360E+03  0.15723465217E+03  0.00000000000E+00 0. -1.
         -5    1    5    5    0  502 -0.57108158579E+01 -0.39811324902E+02  0.76794968238E+02  0.86816543094E+02  0.47000000000E+01 0.  1.
         11    1    6    6    0    0 -0.79935029091E+01  0.95517160981E+01  0.35055878831E+02  0.37202768846E+02  0.00000000000E+00 0. -1.
        -12    1    6    6    0    0  0.13279619233E+03  0.75111049457E+02  0.17366579748E+03  0.23116294613E+03  0.00000000000E+00 0.  1.
</event>
<event>
12    1  0.8691829E-002  0.1937943E+03  0.7818608E-02  0.1157276E+00
         21   -1    0    0  503  502  0.00000000000E+00  0.00000000000E+00  0.78232055960E+03  0.78232055960E+03  0.00000000000E+00 0. -1.
         21   -1    0    0  501  503 -0.00000000000E+00 -0.00000000000E+00 -0.46287654977E+02  0.46287654977E+02  0.00000000000E+00 0. -1.
          6    2    1    2  501    0 -0.45686096245E+02 -0.77745854420E+02  0.40800290880E+03  0.44760962520E+03  0.16048789897E+03 0.  0.
         24    2    3    3    0    0 -0.26376811506E+02  0.17111078225E+02  0.17438988129E+03  0.19469101622E+03  0.80648843250E+02 0.  0.
         -6    2    1    2    0  502  0.45686096245E+02  0.77745854420E+02  0.32802999582E+03  0.38099858937E+03  0.17153603025E+03 0.  0.
        -24    2    5    5    0    0  0.11374946809E+02  0.65929271994E+02  0.32954793677E+03  0.34437508953E+03  0.74271807182E+02 0.  0.
          5    1    3    3  501    0 -0.19309284739E+02 -0.94856932645E+02  0.23361302751E+03  0.25291860898E+03  0.47000000000E+01 0. -1.
        -13    1    4    4    0    0 -0.38787462902E+01  0.21918994493E+02  0.16977327560E+03  0.17122631837E+03  0.00000000000E+00 0.  1.
         14    1    4    4    0    0 -0.22498065216E+02 -0.48079162680E+01  0.46166056862E+01  0.23464697854E+02  0.00000000000E+00 0. -1.
         -5    1    5    5    0  502  0.34311149436E+02  0.11816582426E+02 -0.15179409437E+01  0.36623499840E+02  0.47000000000E+01 0.  1.
         13    1    6    6    0    0  0.95819567526E+01  0.19337504408E+02  0.14743973069E+02  0.26136903294E+02  0.00000000000E+00 0. -1.
        -14    1    6    6    0    0  0.17929900566E+01  0.46591767586E+02  0.31480396370E+03  0.31823818624E+03  0.00000000000E+00 0.  1.
</event>
<event>
12    1  0.8691829E-002  0.2128681E+03  0.7818608E-02  0.1139364E+00
         21   -1    0    0  501  502  0.00000000000E+00  0.00000000000E+00  0.20089973741E+03  0.20089973741E+03  0.00000000000E+00 0.  1.
         21   -1    0    0  502  503 -0.00000000000E+00 -0.00000000000E+00 -0.64259805702E+03  0.64259805702E+03  0.00000000000E+00 0.  1.
         -6    2    1    2    0  503 -0.11974663089E+03 -0.38214750007E+02 -0.56077009362E+03  0.59981325557E+03  0.17179412365E+03 0.  0.
        -24    2    3    3    0    0 -0.10976642376E+03 -0.66070644118E+02 -0.32855790968E+03  0.36567623641E+03  0.96720277383E+02 0.  0.
          6    2    1    2  501    0  0.11974663089E+03  0.38214750007E+02  0.11907177402E+03  0.24368453887E+03  0.17147724160E+03 0.  0.
         24    2    5    5    0    0  0.15130878565E+03  0.47600578153E+02  0.87818190184E+02  0.19804311157E+03  0.79679833451E+02 0.  0.
          5    1    5    5  501    0 -0.31562154756E+02 -0.93858281459E+01  0.31253583835E+02  0.45641427293E+02  0.47000000000E+01 0. -1.
        -13    1    6    6    0    0  0.69591337593E+02  0.25647594438E+02  0.85788660642E+02  0.11340391379E+03  0.00000000000E+00 0.  1.
         14    1    6    6    0    0  0.81717448057E+02  0.21952983715E+02  0.20295295420E+01  0.84639197782E+02  0.00000000000E+00 0. -1.
         -5    1    3    3    0  503 -0.99802071334E+01  0.27855894111E+02 -0.23221218394E+03  0.23413701916E+03  0.47000000000E+01 0.  1.
         13    1    4    4    0    0 -0.11766415375E+03 -0.81514926837E+02 -0.29049531414E+03  0.32384728486E+03  0.00000000000E+00 0. -1.
        -14    1    4    4    0    0  0.78977299913E+01  0.15444282719E+02 -0.38062595548E+02  0.41828951547E+02  0.00000000000E+00 0.  1.
</event>
<event>
12    1  0.8691829E-002  0.1791673E+03  0.7818608E-02  0.1168909E+00
         21   -1    0    0  501  502  0.00000000000E+00  0.00000000000E+00  0.43423917773E+03  0.43423917773E+03  0.00000000000E+00 0. -1.
         21   -1    0    0  502  503 -0.00000000000E+00 -0.00000000000E+00 -0.34328601726E+03  0.34328601726E+03  0.00000000000E+00 0. -1.
         -6    2    1    2    0  503 -0.16541866894E+02  0.42235972491E+02 -0.29924588770E+03  0.34815796144E+03  0.17207078217E+03 0.  0.
        -24    2    3    3    0    0  0.16165635605E+02 -0.38362434621E+02 -0.95471479309E+02  0.12654572472E+03  0.71874981176E+02 0.  0.
          6    2    1    2  501    0  0.16541866894E+02 -0.42235972491E+02  0.39019904817E+03  0.42936723355E+03  0.17333035890E+03 0.  0.
         24    2    5    5    0    0 -0.53533181268E+02 -0.10928567629E+02  0.18808847108E+03  0.21312329411E+03  0.84018036450E+02 0.  0.
          5    1    5    5  501    0  0.70075048162E+02 -0.31307404863E+02  0.20211057709E+03  0.21624393944E+03  0.47000000000E+01 0. -1.
        -13    1    6    6    0    0 -0.11223561436E+02 -0.44696627722E+02  0.87417786932E+02  0.98821183625E+02  0.00000000000E+00 0.  1.
         14    1    6    6    0    0 -0.42309619832E+02  0.33768060093E+02  0.10067068415E+03  0.11430211048E+03  0.00000000000E+00 0. -1.
         -5    1    3    3    0  503 -0.32707502499E+02  0.80598407112E+02 -0.20377440839E+03  0.22161223672E+03  0.47000000000E+01 0.  1.
         13    1    4    4    0    0  0.16506557781E+02  0.11078215756E+02 -0.66129074263E+02  0.69052500150E+02  0.00000000000E+00 0. -1.
        -14    1    4    4    0    0 -0.34092217668E+00 -0.49440650377E+02 -0.29342405046E+02  0.57493224570E+02  0.00000000000E+00 0.  1.
</event>
<event>
12    1  0.8691829E-002  0.2073835E+03  0.7818608E-02  0.1144162E+00
         21   -1    0    0  503  502  0.00000000000E+00  0.00000000000E+00  0.50027211575E+03  0.50027211575E+03  0.00000000000E+00 0.  1.
         21   -1    0    0  501  503 -0.00000000000E+00 -0.00000000000E+00 -0.84935862284E+02  0.84935862284E+02  0.00000000000E+00 0. -1.
          6    2    1    2  501    0  0.31212635975E+02 -0.10944231255E+03  0.20532020713E+03  0.29005606378E+03  0.17036514978E+03 0.  0.
         24    2    3    3    0    0  0.47771064258E+02 -0.11811885660E+03  0.94591937102E+02  0.17766254196E+03  0.79888706237E+02 0.  0.
         -6    2    1    2    0  502 -0.31212635975E+02  0.10944231255E+03  0.21001604634E+03  0.29515191426E+03  0.17336684905E+03 0.  0.
        -24    2    5    5    0    0  0.17711017480E+02 -0.60595586731E+01  0.74752887446E+02  0.11061894085E+03  0.79360931829E+02 0.  0.
          5    1    3    3  501    0 -0.16558428283E+02  0.86765440589E+01  0.11072827003E+03  0.11239352182E+03  0.47000000000E+01 0. -1.
        -11    1    4    4    0    0  0.28367314206E+02 -0.24195472857E+02  0.68953152406E+02  0.78387898612E+02  0.00000000000E+00 0.  1.
         12    1    4    4    0    0  0.19403750052E+02 -0.93923383748E+02  0.25638784696E+02  0.99274643346E+02  0.00000000000E+00 0. -1.
         -5    1    5    5    0  502 -0.48923653455E+02  0.11550187122E+03  0.13526315889E+03  0.18453297341E+03  0.47000000000E+01 0.  1.
         13    1    6    6    0    0 -0.12351067211E+02 -0.34166411971E+02  0.18083152267E+02  0.40581929034E+02  0.00000000000E+00 0. -1.
        -14    1    6    6    0    0  0.30062084691E+02  0.28106853298E+02  0.56669735179E+02  0.70037011811E+02  0.00000000000E+00 0.  1.
</event>
<event>
12    1  0.8691829E-002  0.1844259E+03  0.7818608E-02  0.1164547E+00
         21   -1    0    0  503  502  0.00000000000E+00  0.00000000000E+00  0.23213789277E+03  0.23213789277E+03  0.00000000000E+00 0. -1.
         21   -1    0    0  501  503 -0.00000000000E+00 -0.00000000000E+00 -0.16011231800E+03  0.16011231800E+03  0.00000000000E+00 0. -1.
          6    2    1    2  501    0  0.23629268805E+02  0.46647040924E+02 -0.27849442126E+02  0.18251725196E+03  0.17263448979E+03 0.  0.
         24    2    3    3    0    0  0.51123571998E+02 -0.85243603900E+01 -0.60041776421E+02  0.11281605672E+03  0.80225702888E+02 0.  0.
         -6    2    1    2    0  502 -0.23629268805E+02 -0.46647040924E+02  0.99875016895E+02  0.20973295881E+03  0.17685758745E+03 0.  0.
        -24    2    5    5    0    0 -0.28676049885E+02 -0.85940655680E+02  0.20030124650E+02  0.12047627851E+03  0.76845400994E+02 0.  0.
          5    1    3    3  501    0 -0.27494303193E+02  0.55171401314E+02  0.32192334296E+02  0.69701195244E+02  0.47000000000E+01 0. -1.
        -11    1    4    4    0    0  0.36904210817E+02 -0.79981077705E+01  0.11813276958E+02  0.39565692417E+02  0.00000000000E+00 0.  1.
         12    1    4    4    0    0  0.14219361181E+02 -0.52625261958E+00 -0.71855053379E+02  0.73250364302E+02  0.00000000000E+00 0. -1.
         -5    1    5    5    0  502  0.50467810803E+01  0.39293614757E+02  0.79844892246E+02  0.89256680297E+02  0.47000000000E+01 0.  1.
         13    1    6    6    0    0  0.17213009719E+02 -0.58833459249E+02 -0.51782093604E+01  0.61518106952E+02  0.00000000000E+00 0. -1.
        -14    1    6    6    0    0 -0.45889059604E+02 -0.27107196432E+02  0.25208334010E+02  0.58958171556E+02  0.00000000000E+00 0.  1.
</event>
<event>
12    1  0.8691829E-002  0.2330463E+03  0.7818608E-02  0.1126588E+00
         21   -1    0    0  501  502  0.00000000000E+00  0.00000000000E+00  0.11077093778E+03  0.11077093778E+03  0.00000000000E+00 0.  1.
         21   -1    0    0  502  503 -0.00000000000E+00 -0.00000000000E+00 -0.76663304636E+03  0.76663304636E+03  0.00000000000E+00 0.  1.
         -6    2    1    2    0  503  0.11748233638E+03 -0.98316220546E+02 -0.60768548296E+03  0.65083962181E+03  0.17562001178E+03 0.  0.
        -24    2    3    3    0    0  0.34968984736E+02 -0.64245102874E+02 -0.15286677676E+03  0.18731892134E+03  0.79811425984E+02 0.  0.
          6    2    1    2  501    0 -0.11748233638E+03  0.98316220546E+02 -0.48176625623E+02  0.22656436233E+03  0.15981941195E+03 0.  0.
         24    2    5    5    0    0 -0.19750995116E+02  0.52529852653E+02  0.11287908870E+02  0.10325204578E+03  0.85930674633E+02 0.  0.
          5    1    5    5  501    0 -0.97731341265E+02  0.45786367893E+02 -0.59464534493E+02  0.12331231655E+03  0.47000000000E+01 0. -1.
        -11    1    6    6    0    0 -0.50546765692E+02  0.50592623942E+02  0.45011617756E+01  0.71657864722E+02  0.00000000000E+00 0.  1.
         12    1    6    6    0    0  0.30795770576E+02  0.19372287115E+01  0.67867470941E+01  0.31594181056E+02  0.00000000000E+00 0. -1.
         -5    1    3    3    0  503  0.82513351644E+02 -0.34071117672E+02 -0.45481870620E+03  0.46352070047E+03  0.47000000000E+01 0.  1.
         11    1    4    4    0    0  0.40045421953E+02  0.28997907902E+01 -0.46563786383E+02  0.61483581616E+02  0.00000000000E+00 0. -1.
        -12    1    4    4    0    0 -0.50764372161E+01 -0.67144893664E+02 -0.10630299038E+03  0.12583533972E+03  0.00000000000E+00 0.  1.
</event>
<event>
12    1  0.8691829E-002  0.1837327E+03  0.7818608E-02  0.1164547E+00
         21   -1    0    0  503  502  0.00000000000E+00  0.00000000000E+00  0.50752873344E+02  0.50752873344E+02  0.00000000000E+00 0. -1.
         21   -1    0    0  501  503 -0.00000000000E+00 -0.00000000000E+00 -0.66057022398E+03  0.66057022398E+03  0.00000000000E+00 0. -1.
          6    2    1    2  501    0 -0.58976103610E+02 -0.11737314609E+02 -0.30897227044E+03  0.35881003719E+03  0.17223482092E+03 0.  0.
         24    2    3    3    0    0 -0.78121750174E+02 -0.24718670837E+02 -0.31393544816E+03  0.33468962001E+03  0.82144114795E+02 0.  0.
         -6    2    1    2    0  502  0.58976103610E+02  0.11737314609E+02 -0.30084508019E+03  0.35251306013E+03  0.17361379535E+03 0.  0.
        -24    2    5    5    0    0 -0.31772097699E+02 -0.20276782281E+02 -0.14982047220E+03  0.17337439691E+03  0.78688585718E+02 0.  0.
          5    1    3    3  501    0  0.19145646564E+02  0.12981356229E+02  0.49631777155E+01  0.24120417180E+02  0.47000000000E+01 0. -1.
        -13    1    4    4    0    0 -0.63228573166E+02  0.12966666258E+02 -0.25585423594E+03  0.26387000009E+03  0.00000000000E+00 0.  1.
         14    1    4    4    0    0 -0.14893177008E+02 -0.37685337095E+02 -0.58081212218E+02  0.70819619923E+02  0.00000000000E+00 0. -1.
         -5    1    5    5    0  502  0.90748201309E+02  0.32014096890E+02 -0.15102460799E+03  0.17913866322E+03  0.47000000000E+01 0.  1.
         11    1    6    6    0    0 -0.57915791308E+01 -0.47501080921E+02 -0.66279219728E+02  0.81748578246E+02  0.00000000000E+00 0. -1.
        -12    1    6    6    0    0 -0.25980518568E+02  0.27224298640E+02 -0.83541252470E+02  0.91625818663E+02  0.00000000000E+00 0.  1.
</event>
<event>
12    1  0.8691829E-002  0.1912001E+03  0.7818608E-02  0.1158385E+00
         21   -1    0    0  501  502  0.00000000000E+00  0.00000000000E+00  0.97481671902E+02  0.97481671902E+02  0.00000000000E+00 0.  1.
         21   -1    0    0  502  503 -0.00000000000E+00 -0.00000000000E+00 -0.54339887117E+03  0.54339887117E+03  0.00000000000E+00 0.  1.
         -6    2    1    2    0  503  0.66854253435E+02  0.30215374381E+02 -0.40407670447E+03  0.44515593651E+03  0.17176543502E+03 0.  0.
        -24    2    3    3    0    0  0.11241335353E+03  0.28588091452E+02 -0.31087458763E+03  0.34129543279E+03  0.79909462422E+02 0.  0.
          6    2    1    2  501    0 -0.66854253435E+02 -0.30215374381E+02 -0.41840494805E+02  0.19572460656E+03  0.17656453369E+03 0.  0.
         24    2    5    5    0    0 -0.51025232488E+02  0.47630334222E+02 -0.17442163799E+02  0.11249071438E+03  0.86473745467E+02 0.  0.
          5    1    5    5  501    0 -0.15829020948E+02 -0.77845708603E+02 -0.24398331006E+02  0.83233892183E+02  0.47000000000E+01 0. -1.
        -11    1    6    6    0    0  0.15476687101E+02  0.35724780757E+02  0.89683406596E+01  0.39952708768E+02  0.00000000000E+00 0.  1.
         12    1    6    6    0    0 -0.66501919589E+02  0.11905553465E+02 -0.26410504459E+02  0.72538005611E+02  0.00000000000E+00 0. -1.
         -5    1    3    3    0  503 -0.45559100093E+02  0.16272829288E+01 -0.93202116832E+02  0.10386050372E+03  0.47000000000E+01 0.  1.
         13    1    4    4    0    0  0.32046223000E+02 -0.18766872336E+02 -0.38953453825E+02  0.53819396789E+02  0.00000000000E+00 0. -1.
        -14    1    4    4    0    0  0.80367130528E+02  0.47354963788E+02 -0.27192113381E+03  0.28747603600E+03  0.00000000000E+00 0.  1.
</event>
<event>
12    1  0.8691829E-002  0.1747814E+03  0.7818608E-02  0.1173029E+00
         21   -1    0    0  503  502  0.00000000000E+00  0.00000000000E+00  0.14520026734E+03  0.14520026734E+03  0.00000000000E+00 0. -1.
         21   -1    0    0  501  503 -0.00000000000E+00 -0.00000000000E+00 -0.21443422758E+03  0.21443422758E+03  0.00000000000E+00 0. -1.
          6    2    1    2  501    0  0.19413938050E+02  0.15784344817E+02 -0.60390691282E+02  0.18462954519E+03  0.17267016775E+03 0.  0.
         24    2    3    3    0    0 -0.48169252858E+02 -0.10447751232E+02 -0.54679646070E+01  0.93557011120E+02  0.79332107410E+02 0.  0.
         -6    2    1    2    0  502 -0.19413938050E+02 -0.15784344817E+02 -0.88432689596E+01  0.17500494974E+03  0.17298116225E+03 0.  0.
        -24    2    5    5    0    0  0.24147874490E+02  0.23899374778E+02  0.41199084359E+02  0.97553311674E+02  0.81639353925E+02 0.  0.
          5    1    3    3  501    0  0.67583190908E+02  0.26232096049E+02 -0.54922726675E+02  0.91072534069E+02  0.47000000000E+01 0. -1.
        -13    1    4    4    0    0 -0.89582445386E+01  0.31379004698E+02 -0.14154957771E+02  0.35570421849E+02  0.00000000000E+00 0.  1.
         14    1    4    4    0    0 -0.39211008319E+02 -0.41826755930E+02  0.86869931638E+01  0.57986589271E+02  0.00000000000E+00 0. -1.
         -5    1    5    5    0  502 -0.43561812540E+02 -0.39683719596E+02 -0.50042353319E+02  0.77451638061E+02  0.47000000000E+01 0.  1.
         13    1    6    6    0    0  0.12314902349E+02  0.51194482993E+02  0.84833558029E+01  0.53333846988E+02  0.00000000000E+00 0. -1.
        -14    1    6    6    0    0  0.11832972141E+02 -0.27295108215E+02  0.32715728556E+02  0.44219464686E+02  0.00000000000E+00 0.  1.
</event>
<event>
12    1  0.8691829E-002  0.2541291E+03  0.7818608E-02  0.1110939E+00
         21   -1    0    0  501  502  0.00000000000E+00  0.00000000000E+00  0.28258719814E+02  0.28258719814E+02  0.00000000000E+00 0.  1.
         21   -1    0    0  502  503 -0.00000000000E+00 -0.00000000000E+00 -0.29165291814E+04  0.29165291814E+04  0.00000000000E+00 0. -1.
         -6    2    1    2    0  503  0.34866295191E+01  0.18753585668E+03 -0.21389476625E+04  0.21539913389E+04  0.17146349762E+03 0.  0.
        -24    2    3    3    0    0  0.28750734324E+02  0.16747876083E+03 -0.12102131504E+04  0.12246849061E+04  0.79759073255E+02 0.  0.
          6    2    1    2  501    0 -0.34866295191E+01 -0.18753585668E+03 -0.74932279908E+03  0.79079656231E+03  0.16938917205E+03 0.  0.
         24    2    5    5    0    0  0.81881271917E+01 -0.17271981517E+03 -0.74719171030E+03  0.77124032111E+03  0.81344950593E+02 0.  0.
          5    1    5    5  501    0 -0.11674756711E+02 -0.14816041513E+02 -0.21310887817E+01  0.19556241197E+02  0.47000000000E+01 0. -1.
        -13    1    6    6    0    0  0.10652060760E+02 -0.17573958184E+03 -0.63430033458E+03  0.65828168855E+03  0.00000000000E+00 0.  1.
         14    1    6    6    0    0 -0.24639335685E+01  0.30197666720E+01 -0.11289137572E+03  0.11295863256E+03  0.00000000000E+00 0. -1.
         -5    1    3    3    0  503 -0.25264104804E+02  0.20057095858E+02 -0.92873451210E+03  0.92930643280E+03  0.47000000000E+01 0.  1.
         13    1    4    4    0    0  0.48767890235E+02  0.98989978382E+02 -0.87715287958E+03  0.88406702071E+03  0.00000000000E+00 0. -1.
        -14    1    4    4    0    0 -0.20017155911E+02  0.68488782443E+02 -0.33306027082E+03  0.34061788539E+03  0.00000000000E+00 0.  1.
</event>
<event>
12    1  0.8691829E-002  0.2068726E+03  0.7818608E-02  0.1144257E+00
         21   -1    0    0  501  502  0.00000000000E+00  0.00000000000E+00  0.89456845192E+02  0.89456845192E+02  0.00000000000E+00 0.  1.
         21   -1    0    0  502  503 -0.00000000000E+00 -0.00000000000E+00 -0.83692355204E+03  0.83692355204E+03  0.00000000000E+00 0. -1.
         -6    2    1    2    0  503  0.53705614360E+02 -0.10222999096E+03 -0.67732624225E+03  0.70794060357E+03  0.17051039756E+03 0.  0.
        -24    2    3    3    0    0  0.87943180607E+02 -0.99643578377E+02 -0.63468642613E+03  0.65299386216E+03  0.76884841028E+02 0.  0.
          6    2    1    2  501    0 -0.53705614360E+02  0.10222999096E+03 -0.70140464591E+02  0.21843979366E+03  0.17164205375E+03 0.  0.
         24    2    5    5    0    0 -0.85440706219E+02  0.61943757599E+02 -0.10522491126E+01  0.13226921764E+03  0.79730140610E+02 0.  0.
          5    1    5    5  501    0  0.31735091859E+02  0.40286233359E+02 -0.69088215479E+02  0.86170576020E+02  0.47000000000E+01 0. -1.
        -11    1    6    6    0    0 -0.73815253412E+02  0.48638880045E+02 -0.34137507082E+02  0.94761815507E+02  0.00000000000E+00 0.  1.
         12    1    6    6    0    0 -0.11625452807E+02  0.13304877554E+02  0.33085257970E+02  0.37507402131E+02  0.00000000000E+00 0. -1.
         -5    1    3    3    0  503 -0.34237566247E+02 -0.25864125808E+01 -0.42639816121E+02  0.54946741408E+02  0.47000000000E+01 0.  1.
         13    1    4    4    0    0  0.20262981065E+02 -0.25339229137E+02 -0.34191439628E+03  0.34345031564E+03  0.00000000000E+00 0. -1.
        -14    1    4    4    0    0  0.67680199543E+02 -0.74304349240E+02 -0.29277202986E+03  0.30954354652E+03  0.00000000000E+00 0.  1.
</event>
<event>
12    1  0.8691829E-002  0.2007884E+03  0.7818608E-02  0.1149372E+00
         21   -1    0    0  503  502  0.00000000000E+00  0.00000000000E+00  0.35951954153E+02  0.35951954153E+02  0.00000000000E+00 0.  1.
         21   -1    0    0  501  503 -0.00000000000E+00 -0.00000000000E+00 -0.12564409196E+04  0.12564409196E+04  0.00000000000E+00 0.  1.
          6    2    1    2  501    0 -0.36517596539E+02 -0.92820097478E+02 -0.39041527700E+03  0.43837980754E+03  0.17263737078E+03 0.  0.
         24    2    3    3    0    0  0.32792911841E+02 -0.75416621513E+02 -0.31208946495E+03  0.33224851912E+03  0.78906289089E+02 0.  0.
         -6    2    1    2    0  502  0.36517596539E+02  0.92820097478E+02 -0.83007368842E+03  0.85401306619E+03  0.17426096425E+03 0.  0.
        -24    2    5    5    0    0  0.40655277479E+02  0.42714083047E+02 -0.20988340475E+03  0.23177050011E+03  0.78671320397E+02 0.  0.
          5    1    3    3  501    0 -0.69310508380E+02 -0.17403475965E+02 -0.78325812051E+02  0.10613128842E+03  0.47000000000E+01 0. -1.
        -13    1    4    4    0    0 -0.19321072645E+02 -0.30433234002E+02 -0.52493651265E+02  0.63679423703E+02  0.00000000000E+00 0.  1.
         14    1    4    4    0    0  0.52113984486E+02 -0.44983387511E+02 -0.25959581369E+03  0.26856909542E+03  0.00000000000E+00 0. -1.
         -5    1    5    5    0  502 -0.41376809396E+01  0.50106014431E+02 -0.62019028367E+03  0.62224256608E+03  0.47000000000E+01 0.  1.
         13    1    6    6    0    0  0.23415250068E+02 -0.10783109322E+02 -0.13868261384E+03  0.14105820346E+03  0.00000000000E+00 0. -1.
        -14    1    6    6    0    0  0.17240027411E+02  0.53497192368E+02 -0.71200790911E+02  0.90712296646E+02  0.00000000000E+00 0.  1.
</event>
<event>
12    1  0.8691829E-002  0.2503303E+03  0.7818608E-02  0.1113176E+00
         21   -1    0    0  501  502  0.00000000000E+00  0.00000000000E+00  0.53688149822E+03  0.53688149822E+03  0.00000000000E+00 0. -1.
         21   -1    0    0  502  503 -0.00000000000E+00 -0.00000000000E+00 -0.13349479164E+03  0.13349479164E+03  0.00000000000E+00 0. -1.
         -6    2    1    2    0  503  0.15341551841E+03  0.10026430973E+03  0.32115950388E+03  0.40688708840E+03  0.16977756823E+03 0.  0.
        -24    2    3    3    0    0  0.51751895246E+02  0.45536636022E+02  0.20986943190E+03  0.24645585495E+03  0.10928616614E+03 0.  0.
          6    2    1    2  501    0 -0.15341551841E+03 -0.10026430973E+03  0.82227202703E+02  0.26348920146E+03  0.17051684177E+03 0.  0.
         24    2    5    5    0    0 -0.44438607710E+02  0.71109502661E+01  0.38299354651E+01  0.91519334813E+02  0.79597517361E+02 0.  0.
          5    1    5    5  501    0 -0.10897691070E+03 -0.10737526000E+03  0.78397267238E+02  0.17196986665E+03  0.47000000000E+01 0. -1.
        -13    1    6    6    0    0 -0.28278294288E+02  0.36781041911E+02  0.23933836384E+02  0.52204745914E+02  0.00000000000E+00 0.  1.
         14    1    6    6    0    0 -0.16160313422E+02 -0.29670091645E+02 -0.20103900919E+02  0.39314588899E+02  0.00000000000E+00 0. -1.
         -5    1    3    3    0  503  0.10166362316E+03  0.54727673709E+02  0.11129007198E+03  0.16043123345E+03  0.47000000000E+01 0.  1.
         13    1    4    4    0    0  0.30253573024E+02  0.24846127711E+01 -0.79439622350E+00  0.30365820369E+02  0.00000000000E+00 0. -1.
        -14    1    4    4    0    0  0.21498322222E+02  0.43052023251E+02  0.21066382812E+03  0.21609003458E+03  0.00000000000E+00 0.  1.
</event>
<event>
12    1  0.8691829E-002  0.2206426E+03  0.7818608E-02  0.1133474E+00
         21   -1    0    0  501  502  0.00000000000E+00  0.00000000000E+00  0.15115967411E+04  0.15115967411E+04  0.00000000000E+00 0. -1.
         21   -1    0    0  502  503 -0.00000000000E+00 -0.00000000000E+00 -0.32172287736E+02  0.32172287736E+02  0.00000000000E+00 0.  1.
         -6    2    1    2    0  503 -0.37056674665E+02 -0.13343866959E+03  0.71997093783E+03  0.75291330107E+03  0.17129276673E+03 0.  0.
        -24    2    3    3    0    0 -0.89048811046E+02 -0.84398236221E+02  0.43318967088E+03  0.45732282182E+03  0.80237892391E+02 0.  0.
          6    2    1    2  501    0  0.37056674665E+02  0.13343866959E+03  0.75945351555E+03  0.79085572778E+03  0.17176747132E+03 0.  0.
         24    2    5    5    0    0  0.85425402591E+02  0.12223796318E+03  0.54296285380E+03  0.56869523109E+03  0.79787130577E+02 0.  0.
          5    1    5    5  501    0 -0.48368727927E+02  0.11200706408E+02  0.21649066174E+03  0.22216049669E+03  0.47000000000E+01 0. -1.
        -13    1    6    6    0    0  0.22957308451E+01  0.64036072671E+02  0.15599560543E+03  0.16864316736E+03  0.00000000000E+00 0.  1.
         14    1    6    6    0    0  0.83129671746E+02  0.58201890509E+02  0.38696724837E+03  0.40005206373E+03  0.00000000000E+00 0. -1.
         -5    1    3    3    0  503  0.51992136381E+02 -0.49040433368E+02  0.28678126695E+03  0.29559047925E+03  0.47000000000E+01 0.  1.
         13    1    4    4    0    0 -0.56644314033E+02 -0.79235783325E+02  0.39565494782E+03  0.40746745319E+03  0.00000000000E+00 0. -1.
        -14    1    4    4    0    0 -0.32404497013E+02 -0.51624528960E+01  0.37534723061E+02  0.49855368636E+02  0.00000000000E+00 0.  1.
</event>
<event>
12    1  0.8691829E-002  0.1797374E+03  0.7818608E-02  0.1168378E+00
         21   -1    0    0  501  502  0.00000000000E+00  0.00000000000E+00  0.41583081853E+03  0.41583081853E+03  0.00000000000E+00 0. -1.
         21   -1    0    0  502  503 -0.00000000000E+00 -0.00000000000E+00 -0.93248256133E+02  0.93248256133E+02  0.00000000000E+00 0. -1.
         -6    2    1    2    0  503  0.47278329889E+01  0.48110608653E+02  0.54946393419E+02  0.18669009702E+03  0.17174720698E+03 0.  0.
        -24    2    3    3    0    0  0.24434556777E+01  0.99067601353E+02  0.34425781579E+02  0.13150840626E+03  0.79303003512E+02 0.  0.
          6    2    1    2  501    0 -0.47278329889E+01 -0.48110608653E+02  0.26763616898E+03  0.32238897765E+03  0.17311427120E+03 0.  0.
         24    2    5    5    0    0 -0.37412665576E+02  0.12576621225E+02  0.22310955636E+03  0.24019440737E+03  0.79734561183E+02 0.  0.
          5    1    5    5  501    0  0.32684832587E+02 -0.60687229878E+02  0.44526612625E+02  0.82194570279E+02  0.47000000000E+01 0. -1.
        -13    1    6    6    0    0 -0.59556324629E+02  0.18205947989E+02  0.12755299653E+03  0.14194428227E+03  0.00000000000E+00 0.  1.
         14    1    6    6    0    0  0.22143659053E+02 -0.56293267647E+01  0.95556559827E+02  0.98250125099E+02  0.00000000000E+00 0. -1.
         -5    1    3    3    0  503  0.22843773112E+01 -0.50956992700E+02  0.20520611840E+02  0.55181690759E+02  0.47000000000E+01 0.  1.
         11    1    4    4    0    0 -0.28565588034E-01  0.88261517956E+02  0.57893351599E+02  0.10555442448E+03  0.00000000000E+00 0. -1.
        -12    1    4    4    0    0  0.24720212657E+01  0.10806083396E+02 -0.23467570020E+02  0.25953981779E+02  0.00000000000E+00 0.  1.
</event>
<event>
12    1  0.8691829E-002  0.1923973E+03  0.7818608E-02  0.1156876E+00
         21   -1    0    0  503  502  0.00000000000E+00  0.00000000000E+00  0.63601052775E+02  0.63601052775E+02  0.00000000000E+00 0. -1.
         21   -1    0    0  501  503 -0.00000000000E+00 -0.00000000000E+00 -0.69977200522E+03  0.69977200522E+03  0.00000000000E+00 0.  1.
          6    2    1    2  501    0  0.13593788793E+02  0.83999966150E+02 -0.15828380523E+03  0.24913947340E+03  0.17255703058E+03 0.  0.
         24    2    3    3    0    0 -0.29365559667E+02 -0.12623880792E+02 -0.76819379405E+02  0.11557220162E+03  0.80212332426E+02 0.  0.
         -6    2    1    2    0  502 -0.13593788793E+02 -0.83999966150E+02 -0.47788714721E+03  0.51423358459E+03  0.16976238878E+03 0.  0.
        -24    2    5    5    0    0 -0.38651115816E+02 -0.67842698769E+02 -0.16545150476E+03  0.20034340060E+03  0.81650090074E+02 0.  0.
          5    1    3    3  501    0  0.42959348460E+02  0.96623846942E+02 -0.81464425828E+02  0.13356727179E+03  0.47000000000E+01 0. -1.
        -13    1    4    4    0    0 -0.46416684192E+02 -0.42573700398E+01 -0.12146660335E+02  0.48168196232E+02  0.00000000000E+00 0.  1.
         14    1    4    4    0    0  0.17051124525E+02 -0.83665107522E+01 -0.64672719070E+02  0.67404005383E+02  0.00000000000E+00 0. -1.
         -5    1    5    5    0  502  0.25057327023E+02 -0.16157267381E+02 -0.31243564246E+03  0.31389018399E+03  0.47000000000E+01 0.  1.
         13    1    6    6    0    0 -0.49029319974E+02 -0.57072596344E+02 -0.16898184147E+03  0.18497572332E+03  0.00000000000E+00 0. -1.
        -14    1    6    6    0    0  0.10378204158E+02 -0.10770102425E+02  0.35303367147E+01  0.15367677284E+02  0.00000000000E+00 0.  1.
</event>
<event>
12    1  0.8691829E-002  0.2041421E+03  0.7818608E-02  0.1146511E+00
         21   -1    0    0  501  502  0.00000000000E+00  0.00000000000E+00  0.12162798691E+03  0.12162798691E+03  0.00000000000E+00 0.  1.
         21   -1    0    0  502  503 -0.00000000000E+00 -0.00000000000E+00 -0.84417424575E+03  0.84417424575E+03  0.00000000000E+00 0.  1.
         -6    2    1    2    0  503  0.68002771181E+02 -0.87225612855E+02 -0.73376994858E+03  0.76135181893E+03  0.17031021792E+03 0.  0.
        -24    2    3    3    0    0  0.21399836622E+02 -0.16807886794E+02 -0.15095667736E+03  0.17243426208E+03  0.78773080654E+02 0.  0.
          6    2    1    2  501    0 -0.68002771181E+02  0.87225612855E+02  0.11223689734E+02  0.20445041373E+03  0.17158471970E+03 0.  0.
         24    2    5    5    0    0 -0.88457912003E+02  0.76237698802E+02 -0.40598489151E+02  0.14746993228E+03  0.80387528212E+02 0.  0.
          5    1    5    5  501    0  0.20455140821E+02  0.10987914053E+02  0.51822178885E+02  0.56980481444E+02  0.47000000000E+01 0. -1.
        -11    1    6    6    0    0 -0.20346512898E+01  0.51935039045E+02 -0.13655900609E+02  0.53738921723E+02  0.00000000000E+00 0.  1.
         12    1    6    6    0    0 -0.86423260713E+02  0.24302659757E+02 -0.26942588541E+02  0.93731010561E+02  0.00000000000E+00 0. -1.
         -5    1    3    3    0  503  0.46602934559E+02 -0.70417726061E+02 -0.58281327122E+03  0.58891755685E+03  0.47000000000E+01 0.  1.
         13    1    4    4    0    0  0.21890161935E+02 -0.47186570802E+02 -0.10732775869E+03  0.11926860206E+03  0.00000000000E+00 0. -1.
        -14    1    4    4    0    0 -0.49032531216E+00  0.30378684008E+02 -0.43628918673E+02  0.53165660022E+02  0.00000000000E+00 0.  1.
</event>
<event>
12    1  0.8691829E-002  0.1947559E+03  0.7818608E-02  0.1154461E+00
         21   -1    0    0  501  502  0.00000000000E+00  0.00000000000E+00  0.24157205370E+03  0.24157205370E+03  0.00000000000E+00 0.  1.
         21   -1    0    0  502  503 -0.00000000000E+00 -0.00000000000E+00 -0.16459670960E+03  0.16459670960E+03  0.00000000000E+00 0.  1.
         -6    2    1    2    0  503 -0.54520800034E+02  0.72814549869E+02 -0.74770901822E+01  0.19389042415E+03  0.17106464681E+03 0.  0.
        -24    2    3    3    0    0  0.14547285243E+02  0.82153135383E+02 -0.32670119407E+02  0.11963149671E+03  0.79269143688E+02 0.  0.
          6    2    1    2  501    0  0.54520800034E+02 -0.72814549869E+02  0.84452434288E+02  0.21227833915E+03  0.17220744266E+03 0.  0.
         24    2    5    5    0    0  0.17520520972E+02  0.21801160967E+02  0.92874869005E+01  0.85814855477E+02  0.80595736444E+02 0.  0.
          5    1    5    5  501    0  0.37000279062E+02 -0.94615710836E+02  0.75164947387E+02  0.12646348368E+03  0.47000000000E+01 0. -1.
        -11    1    6    6    0    0  0.37225168420E+01 -0.30646777178E+02  0.50770839486E+00  0.30876202015E+02  0.00000000000E+00 0.  1.
         12    1    6    6    0    0  0.13798004130E+02  0.52447938145E+02  0.87797785057E+01  0.54938653462E+02  0.00000000000E+00 0. -1.
         -5    1    3    3    0  503 -0.69068085277E+02 -0.93385855137E+01  0.25193029225E+02  0.74258927441E+02  0.47000000000E+01 0.  1.
         13    1    4    4    0    0  0.17214517225E+02 -0.11746258306E+02 -0.26168031947E+01  0.21003853133E+02  0.00000000000E+00 0. -1.
        -14    1    4    4    0    0 -0.26672319820E+01  0.93899393689E+02 -0.30053316212E+02  0.98627643574E+02  0.00000000000E+00 0.  1.
</event>
<event>
12    1  0.8691829E-002  0.2657867E+03  0.7818608E-02  0.1103825E+00
         21   -1    0    0  503  502  0.00000000000E+00  0.00000000000E+00  0.38947960620E+03  0.38947960620E+03  0.00000000000E+00 0.  1.
         21   -1    0    0  501  503 -0.00000000000E+00 -0.00000000000E+00 -0.18914965145E+03  0.18914965145E+03  0.00000000000E+00 0. -1.
          6    2    1    2  501    0  0.19680125154E+03 -0.36496226736E+02  0.16057514753E+03  0.30988588233E+03  0.17373017840E+03 0.  0.
         24    2    3    3    0    0  0.21303341656E+03 -0.44060363959E+01  0.12921545820E+03  0.26194025049E+03  0.80705702805E+02 0.  0.
         -6    2    1    2    0  502 -0.19680125154E+03  0.36496226736E+02  0.39754807223E+02  0.26874337532E+03  0.17487095215E+03 0.  0.
        -24    2    5    5    0    0 -0.62765298509E+02  0.73829288691E+02  0.10582591003E+02  0.12650237413E+03  0.80626378202E+02 0.  0.
          5    1    3    3  501    0 -0.16232165014E+02 -0.32090190340E+02  0.31359689334E+02  0.47945631836E+02  0.47000000000E+01 0. -1.
        -13    1    4    4    0    0  0.59380584133E+02 -0.15544597018E+02  0.78714318771E+02  0.99817995612E+02  0.00000000000E+00 0.  1.
         14    1    4    4    0    0  0.15365283243E+03  0.11138560622E+02  0.50501139426E+02  0.16212225488E+03  0.00000000000E+00 0. -1.
         -5    1    5    5    0  502 -0.13403595303E+03 -0.37333061955E+02  0.29172216220E+02  0.14224100119E+03  0.47000000000E+01 0.  1.
         11    1    6    6    0    0 -0.57410070924E+02  0.10888945727E+02  0.21759309262E+02  0.62353451565E+02  0.00000000000E+00 0. -1.
        -12    1    6    6    0    0 -0.53552275857E+01  0.62940342964E+02 -0.11176718258E+02  0.64148922563E+02  0.00000000000E+00 0.  1.
</event>
<event>
12    1  0.8691829E-002  0.1975866E+03  0.7818608E-02  0.1152078E+00
         21   -1    0    0  503  502  0.00000000000E+00  0.00000000000E+00  0.17499384463E+03  0.17499384463E+03  0.00000000000E+00 0.  1.
         21   -1    0    0  501  503 -0.00000000000E+00 -0.00000000000E+00 -0.35315833857E+03  0.35315833857E+03  0.00000000000E+00 0.  1.
          6    2    1    2  501    0 -0.85818854027E+02 -0.41142084171E+02 -0.25045013591E+03  0.31900742804E+03  0.17315577314E+03 0.  0.
         24    2    3    3    0    0 -0.11213948043E+03 -0.69836262382E+02 -0.17075220619E+03  0.23018186168E+03  0.79843640409E+02 0.  0.
         -6    2    1    2    0  502  0.85818854027E+02  0.41142084171E+02  0.72285641964E+02  0.20914475516E+03  0.17163556677E+03 0.  0.
        -24    2    5    5    0    0  0.55353080448E+02 -0.31603778047E+02  0.10216213072E+01  0.10274562702E+03  0.80578271633E+02 0.  0.
          5    1    3    3  501    0  0.26320626402E+02  0.28694178211E+02 -0.79697929717E+02  0.88825566356E+02  0.47000000000E+01 0. -1.
        -13    1    4    4    0    0 -0.74613834673E+02 -0.83751088640E+02 -0.10771065171E+03  0.15550901474E+03  0.00000000000E+00 0.  1.
         14    1    4    4    0    0 -0.37525645756E+02  0.13914826258E+02 -0.63041554483E+02  0.74672846944E+02  0.00000000000E+00 0. -1.
         -5    1    5    5    0  502  0.30465773579E+02  0.72745862217E+02  0.71264020657E+02  0.10639912814E+03  0.47000000000E+01 0.  1.
         13    1    6    6    0    0  0.47938211040E+02 -0.30350906866E+01  0.33726115887E+02  0.58691862690E+02  0.00000000000E+00 0. -1.
        -14    1    6    6    0    0  0.74148694085E+01 -0.28568687360E+02 -0.32704494580E+02  0.44053764329E+02  0.00000000000E+00 0.  1.
</event>
<event>
12    1  0.8691829E-002  0.3171721E+03  0.7818608E-02  0.1077086E+00
         21   -1    0    0  501  502  0.00000000000E+00  0.00000000000E+00  0.27790069671E+03  0.27790069671E+03  0.00000000000E+00 0.  1.
         21   -1    0    0  502  503 -0.00000000000E+00 -0.00000000000E+00 -0.57554161699E+03  0.57554161699E+03  0.00000000000E+00 0. -1.
         -6    2    1    2    0  503  0.16169908250E+03  0.21077948550E+03 -0.40934503623E+03  0.51717466725E+03  0.17126497881E+03 0.  0.
        -24    2    3    3    0    0  0.15622433478E+03  0.15431673532E+03 -0.22883737399E+03  0.32790469829E+03  0.83278147506E+02 0.  0.
          6    2    1    2  501    0 -0.16169908250E+03 -0.21077948550E+03  0.11170411595E+03  0.33626764646E+03  0.17327300928E+03 0.  0.
         24    2    5    5    0    0 -0.12136950642E+03 -0.22210068429E+03  0.12436727286E+03  0.29225526420E+03  0.76724506172E+02 0.  0.
          5    1    5    5  501    0 -0.40329576084E+02  0.11321198788E+02 -0.12663156907E+02  0.44012382257E+02  0.47000000000E+01 0. -1.
        -13    1    6    6    0    0 -0.48923038489E+02 -0.15843706137E+03  0.96549657009E+02  0.19187913482E+03  0.00000000000E+00 0.  1.
         14    1    6    6    0    0 -0.72446467931E+02 -0.63663622915E+02  0.27817615849E+02  0.10037612938E+03  0.00000000000E+00 0. -1.
         -5    1    3    3    0  503  0.54747477280E+01  0.56462750180E+02 -0.18050766224E+03  0.18926996895E+03  0.47000000000E+01 0.  1.
         13    1    4    4    0    0  0.81538452403E+01  0.53356692601E+02 -0.70297566734E+02  0.88629395385E+02  0.00000000000E+00 0. -1.
        -14    1    4    4    0    0  0.14807048954E+03  0.10096004272E+03 -0.15853980726E+03  0.23927530291E+03  0.00000000000E+00 0.  1.
</event>
<event>
12    1  0.8691829E-002  0.1763242E+03  0.7818608E-02  0.1172071E+00
         21   -1    0    0  501  502  0.00000000000E+00  0.00000000000E+00  0.89203085812E+02  0.89203085812E+02  0.00000000000E+00 0. -1.
         21   -1    0    0  502  503 -0.00000000000E+00 -0.00000000000E+00 -0.42940971412E+03  0.42940971412E+03  0.00000000000E+00 0. -1.
         -6    2    1    2    0  503  0.70141631238E+01 -0.36100588197E+02 -0.28517384883E+03  0.33390001345E+03  0.16974287605E+03 0.  0.
        -24    2    3    3    0    0  0.36328613102E+02  0.16485039961E+02 -0.24620873078E+03  0.26203238728E+03  0.80316300949E+02 0.  0.
          6    2    1    2  501    0 -0.70141631238E+01  0.36100588197E+02 -0.55032779479E+02  0.18471278649E+03  0.17244638506E+03 0.  0.
         24    2    5    5    0    0  0.12917796688E+02  0.44967727683E+02 -0.98288308593E+02  0.13604000165E+03  0.81592428810E+02 0.  0.
          5    1    5    5  501    0 -0.19931959812E+02 -0.88671394857E+01  0.43255529114E+02  0.48672784834E+02  0.47000000000E+01 0. -1.
        -13    1    6    6    0    0 -0.15312936475E+02  0.58265370095E+02 -0.48775626554E+02  0.77513876961E+02  0.00000000000E+00 0.  1.
         14    1    6    6    0    0  0.28230733163E+02 -0.13297642412E+02 -0.49512682039E+02  0.58526124691E+02  0.00000000000E+00 0. -1.
         -5    1    3    3    0  503 -0.29314449978E+02 -0.52585628159E+02 -0.38965118049E+02  0.71867626167E+02  0.47000000000E+01 0.  1.
         11    1    4    4    0    0  0.21878804003E+02  0.49199005265E+02 -0.15300859312E+03  0.16220620750E+03  0.00000000000E+00 0. -1.
        -12    1    4    4    0    0  0.14449809099E+02 -0.32713965304E+02 -0.93200137663E+02  0.99826179779E+02  0.00000000000E+00 0.  1.
</event>
<event>
12    1  0.8691829E-002  0.1990265E+03  0.7818608E-02  0.1151344E+00
         21   -1    0    0  503  502  0.00000000000E+00  0.00000000000E+00  0.12471215057E+02  0.12471215057E+02  0.00000000000E+00 0.  1.
         21   -1    0    0  501  503 -0.00000000000E+00 -0.00000000000E+00 -0.31195675679E+04  0.31195675679E+04  0.00000000000E+00 0.  1.
          6    2    1    2  501    0 -0.92973055156E+02 -0.19275471577E+02 -0.15086596227E+04  0.15212589924E+04  0.17076162369E+03 0.  0.
         24    2    3    3    0    0 -0.97067067067E+02 -0.57562875108E+02 -0.13760282385E+04  0.13830712207E+04  0.81833905477E+02 0.  0.
         -6    2    1    2    0  502  0.92973055156E+02  0.19275471577E+02 -0.15984367302E+04  0.16107797906E+04  0.17491718176E+03 0.  0.
        -24    2    5    5    0    0  0.80707528720E+01 -0.18558234999E+02 -0.11466189623E+04  0.11494760124E+04  0.78425209213E+02 0.  0.
          5    1    3    3  501    0  0.40940119111E+01  0.38287403531E+02 -0.13263138416E+03  0.13818777177E+03  0.47000000000E+01 0. -1.
        -11    1    4    4    0    0 -0.76231957689E+02 -0.41204200701E+02 -0.56464647553E+03  0.57125715738E+03  0.00000000000E+00 0.  1.
         12    1    4    4    0    0 -0.20835109378E+02 -0.16358674407E+02 -0.81138176300E+03  0.81181406328E+03  0.00000000000E+00 0. -1.
         -5    1    5    5    0  502  0.84902302284E+02  0.37833706576E+02 -0.45181776793E+03  0.46130377812E+03  0.47000000000E+01 0.  1.
         13    1    6    6    0    0 -0.15795506082E+02 -0.41416170695E+02 -0.48129726754E+03  0.48333410489E+03  0.00000000000E+00 0. -1.
        -14    1    6    6    0    0  0.23866258954E+02  0.22857935696E+02 -0.66532169471E+03  0.66614190755E+03  0.00000000000E+00 0.  1.
</event>
<event>
12    1  0.8691829E-002  0.1750859E+03  0.7818608E-02  0.1173267E+00
         21   -1    0    0  503  502  0.00000000000E+00  0.00000000000E+00  0.86279886568E+03  0.86279886568E+03  0.00000000000E+00 0. -1.
         21   -1    0    0  501  503 -0.00000000000E+00 -0.00000000000E+00 -0.56973963549E+02  0.56973963549E+02  0.00000000000E+00 0. -1.
          6    2    1    2  501    0  0.58747615696E+00 -0.29987263872E+02  0.11927403106E+03  0.21185222554E+03  0.17249779667E+03 0.  0.
         24    2    3    3    0    0 -0.41918249794E+02  0.36373061123E+02  0.64270871369E+02  0.11563441508E+03  0.78488431020E+02 0.  0.
         -6    2    1    2    0  502 -0.58747615696E+00  0.29987263872E+02  0.68655087107E+03  0.70792060369E+03  0.16999971013E+03 0.  0.
        -24    2    5    5    0    0  0.52918380791E+02  0.26503893254E+02  0.58078626699E+03  0.58924772526E+03  0.79983638462E+02 0.  0.
          5    1    3    3  501    0  0.42505725950E+02 -0.66360324995E+02  0.55003159695E+02  0.96217810453E+02  0.47000000000E+01 0. -1.
        -11    1    4    4    0    0  0.21489517080E+02  0.22691765772E+02  0.20179311352E+02  0.37201077738E+02  0.00000000000E+00 0.  1.
         12    1    4    4    0    0 -0.63407766874E+02  0.13681295351E+02  0.44091560016E+02  0.78433337345E+02  0.00000000000E+00 0. -1.
         -5    1    5    5    0  502 -0.53505856948E+02  0.34833706172E+01  0.10576460408E+03  0.11867287843E+03  0.47000000000E+01 0.  1.
         11    1    6    6    0    0 -0.12621736752E+02  0.15366678760E+02  0.43088990411E+02  0.47456339401E+02  0.00000000000E+00 0. -1.
        -12    1    6    6    0    0  0.65540117543E+02  0.11137214494E+02  0.53769727658E+03  0.54179138586E+03  0.00000000000E+00 0.  1.
</event>
<event>
12    1  0.8691829E-002  0.1794940E+03  0.7818608E-02  0.1168593E+00
         21   -1    0    0  501  502  0.00000000000E+00  0.00000000000E+00  0.55075039719E+02  0.55075039719E+02  0.00000000000E+00 0. -1.
         21   -1    0    0  502  503 -0.00000000000E+00 -0.00000000000E+00 -0.59627943995E+03  0.59627943995E+03  0.00000000000E+00 0. -1.
         -6    2    1    2    0  503  0.25108157165E+02  0.40936444153E+02 -0.32366188421E+03  0.37010149855E+03  0.17295054762E+03 0.  0.
        -24    2    3    3    0    0  0.21824176835E+02 -0.49802187362E+01 -0.31084640024E+03  0.32208638544E+03  0.81320709955E+02 0.  0.
          6    2    1    2  501    0 -0.25108157165E+02 -0.40936444153E+02 -0.21754251602E+03  0.28125298112E+03  0.17167492856E+03 0.  0.
         24    2    5    5    0    0 -0.26995277321E+02 -0.97908105864E+02 -0.15586022722E+03  0.19713326754E+03  0.65225551371E+02 0.  0.
          5    1    5    5  501    0  0.18871201563E+01  0.56971661711E+02 -0.61682288805E+02  0.84119713581E+02  0.47000000000E+01 0. -1.
        -13    1    6    6    0    0  0.79805752970E+01 -0.72296926867E+02 -0.12236331360E+03  0.14234927373E+03  0.00000000000E+00 0.  1.
         14    1    6    6    0    0 -0.34975852618E+02 -0.25611178997E+02 -0.33496913619E+02  0.54783993811E+02  0.00000000000E+00 0. -1.
         -5    1    3    3    0  503  0.32839803292E+01  0.45916662889E+02 -0.12815483966E+02  0.48015113110E+02  0.47000000000E+01 0.  1.
         13    1    4    4    0    0  0.28709945794E+02 -0.34779383284E+02 -0.10939237604E+03  0.11832395541E+03  0.00000000000E+00 0. -1.
        -14    1    4    4    0    0 -0.68857689589E+01  0.29799164547E+02 -0.20145402421E+03  0.20376243003E+03  0.00000000000E+00 0.  1.
</event>
<event>
12    1  0.8691829E-002  0.1942300E+03  0.7818608E-02  0.1154764E+00
         21   -1    0    0  503  502  0.00000000000E+00  0.00000000000E+00  0.34858051006E+02  0.34858051006E+02  0.00000000000E+00 0.  1.
         21   -1    0    0  501  503 -0.00000000000E+00 -0.00000000000E+00 -0.11050803595E+04  0.11050803595E+04  0.00000000000E+00 0.  1.
          6    2    1    2  501    0  0.53282749872E+02 -0.72292976847E+02 -0.61949418147E+03  0.64914196101E+03  0.17189217184E+03 0.  0.
         24    2    3    3    0    0  0.19975881227E+02 -0.65175040735E+02 -0.59938526747E+03  0.60931143333E+03  0.85737402353E+02 0.  0.
         -6    2    1    2    0  502 -0.53282749872E+02  0.72292976847E+02 -0.45072812705E+03  0.49079644951E+03  0.17222074326E+03 0.  0.
        -24    2    5    5    0    0 -0.22955361900E+02  0.10793028349E+03 -0.39355047196E+03  0.41676171221E+03  0.81439892264E+02 0.  0.
          5    1    3    3  501    0  0.33306868645E+02 -0.71179361122E+01 -0.20108914003E+02  0.39830527687E+02  0.47000000000E+01 0. -1.
        -13    1    4    4    0    0  0.16046321512E+02  0.97689438916E+01 -0.32973012053E+02  0.37949126771E+02  0.00000000000E+00 0.  1.
         14    1    4    4    0    0  0.39295597153E+01 -0.74943984626E+02 -0.56641225541E+03  0.57136230656E+03  0.00000000000E+00 0. -1.
         -5    1    5    5    0  502 -0.30327387972E+02 -0.35637306644E+02 -0.57177655090E+02  0.74034737304E+02  0.47000000000E+01 0.  1.
         11    1    6    6    0    0  0.20277590027E+02  0.13862785551E+02 -0.15183358463E+03  0.15380765554E+03  0.00000000000E+00 0. -1.
        -12    1    6    6    0    0 -0.43232951927E+02  0.94067497940E+02 -0.24171688733E+03  0.26295405667E+03  0.00000000000E+00 0.  1.
</event>
<event>
12    1  0.8691829E-002  0.1812083E+03  0.7818608E-02  0.1166714E+00
         21   -1    0    0  503  502  0.00000000000E+00  0.00000000000E+00  0.22335801152E+02  0.22335801152E+02  0.00000000000E+00 0. -1.
         21   -1    0    0  501  503 -0.00000000000E+00 -0.00000000000E+00 -0.15518208218E+04  0.15518208218E+04  0.00000000000E+00 0. -1.
          6    2    1    2  501    0  0.38480184157E+02  0.42598833157E+02 -0.94874772894E+03  0.96589787639E+03  0.17187515610E+03 0.  0.
         24    2    3    3    0    0 -0.24438313172E+02  0.70388488353E+02 -0.48118164391E+03  0.49327631942E+03  0.78955572453E+02 0.  0.
         -6    2    1    2    0  502 -0.38480184157E+02 -0.42598833157E+02 -0.58073729170E+03  0.60825874656E+03  0.17154450043E+03 0.  0.
        -24    2    5    5    0    0 -0.67011060282E+02 -0.78001306276E+02 -0.48096583937E+03  0.49851459547E+03  0.81326362778E+02 0.  0.
          5    1    3    3  501    0  0.62918497329E+02 -0.27789655196E+02 -0.46756608502E+03  0.47262155696E+03  0.47000000000E+01 0. -1.
        -13    1    4    4    0    0 -0.30504322565E+01  0.31026894834E+02 -0.44679383737E+02  0.54481379123E+02  0.00000000000E+00 0.  1.
         14    1    4    4    0    0 -0.21387880915E+02  0.39361593519E+02 -0.43650226018E+03  0.43879494030E+03  0.00000000000E+00 0. -1.
         -5    1    5    5    0  502  0.28530876125E+02  0.35402473119E+02 -0.99771452335E+02  0.10974415108E+03  0.47000000000E+01 0.  1.
         11    1    6    6    0    0 -0.37774574228E+02 -0.91221091463E+02 -0.34828937780E+03  0.36201339294E+03  0.00000000000E+00 0. -1.
        -12    1    6    6    0    0 -0.29236486054E+02  0.13219785187E+02 -0.13267646157E+03  0.13650120253E+03  0.00000000000E+00 0.  1.
</event>
<event>
12    1  0.8691829E-002  0.1764030E+03  0.7818608E-02  0.1171500E+00
         21   -1    0    0  501  502  0.00000000000E+00  0.00000000000E+00  0.24943880259E+03  0.24943880259E+03  0.00000000000E+00 0.  1.
         21   -1    0    0  502  503 -0.00000000000E+00 -0.00000000000E+00 -0.23234803279E+03  0.23234803279E+03  0.00000000000E+00 0. -1.
         -6    2    1    2    0  503 -0.26639091400E+01 -0.31522239010E+02 -0.15573924589E+03  0.23531413009E+03  0.17354330625E+03 0.  0.
        -24    2    3    3    0    0  0.41256848456E+02 -0.70243350080E+02 -0.76633592030E+02  0.13678417594E+03  0.78746095691E+02 0.  0.
          6    2    1    2  501    0  0.26639091400E+01  0.31522239010E+02  0.17283001570E+03  0.24647270530E+03  0.17285205282E+03 0.  0.
         24    2    5    5    0    0 -0.36273168028E+02  0.35186421036E+02  0.18287041840E+03  0.20582271274E+03  0.79797068936E+02 0.  0.
          5    1    5    5  501    0  0.38937077168E+02 -0.36641820257E+01 -0.10040402699E+02  0.40649992554E+02  0.47000000000E+01 0. -1.
        -13    1    6    6    0    0  0.12260707031E+02 -0.13631317122E+02  0.12831991602E+02  0.22378510940E+02  0.00000000000E+00 0.  1.
         14    1    6    6    0    0 -0.48533875059E+02  0.48817738158E+02  0.17003842680E+03  0.18344420180E+03  0.00000000000E+00 0. -1.
         -5    1    3    3    0  503 -0.43920757596E+02  0.38721111069E+02 -0.79105653861E+02  0.98529954141E+02  0.47000000000E+01 0.  1.
         13    1    4    4    0    0  0.25761115060E+02 -0.27585560340E+02 -0.82785824803E+02  0.90984014951E+02  0.00000000000E+00 0. -1.
        -14    1    4    4    0    0  0.15495733396E+02 -0.42657789740E+02  0.61522327724E+01  0.45800160994E+02  0.00000000000E+00 0.  1.
</event>
<event>
12    1  0.8691829E-002  0.2867228E+03  0.7818608E-02  0.1092081E+00
         21   -1    0    0  503  502  0.00000000000E+00  0.00000000000E+00  0.17850921304E+03  0.17850921304E+03  0.00000000000E+00 0. -1.
         21   -1    0    0  501  503 -0.00000000000E+00 -0.00000000000E+00 -0.46099854581E+03  0.46099854581E+03  0.00000000000E+00 0. -1.
          6    2    1    2  501    0 -0.21386877502E+03  0.82554776784E+02 -0.15236108878E+03  0.32463742430E+03  0.17210581567E+03 0.  0.
         24    2    3    3    0    0 -0.13643685468E+03 -0.85390223447E+01 -0.49929398896E+02  0.16713147642E+03  0.82170890937E+02 0.  0.
         -6    2    1    2    0  502  0.21386877502E+03 -0.82554776784E+02 -0.13012824398E+03  0.31487033455E+03  0.17220575949E+03 0.  0.
        -24    2    5    5    0    0  0.22800053651E+03 -0.85518684681E+02 -0.89307054572E+02  0.27131633430E+03  0.79618548010E+02 0.  0.
          5    1    3    3  501    0 -0.77431920336E+02  0.91093799128E+02 -0.10243168989E+03  0.15750594789E+03  0.47000000000E+01 0. -1.
        -11    1    4    4    0    0 -0.67178313258E+02 -0.44774801369E+02 -0.18113697347E+02  0.82739438247E+02  0.00000000000E+00 0.  1.
         12    1    4    4    0    0 -0.69258541421E+02  0.36235779024E+02 -0.31815701549E+02  0.84392038169E+02  0.00000000000E+00 0. -1.
         -5    1    5    5    0  502 -0.14131761490E+02  0.29639078978E+01 -0.40821189409E+02  0.43554000248E+02  0.47000000000E+01 0.  1.
         11    1    6    6    0    0  0.19294957019E+02 -0.12317045590E+01 -0.34670582479E+02  0.39697125234E+02  0.00000000000E+00 0. -1.
        -12    1    6    6    0    0  0.20870557949E+03 -0.84286980122E+02 -0.54636472094E+02  0.23161920907E+03  0.00000000000E+00 0.  1.
</event>
<event>
12    1  0.8691829E-002  0.2107984E+03  0.7818608E-02  0.1143553E+00
         21   -1    0    0  501  502  0.00000000000E+00  0.00000000000E+00  0.46271046268E+03  0.46271046268E+03  0.00000000000E+00 0.  1.
         21   -1    0    0  502  503 -0.00000000000E+00 -0.00000000000E+00 -0.95114931991E+02  0.95114931991E+02  0.00000000000E+00 0. -1.
         -6    2    1    2    0  503  0.71549942381E+02  0.77229360781E+02  0.24123197844E+03  0.31205369660E+03  0.16763315220E+03 0.  0.
        -24    2    3    3    0    0  0.14615860316E+02  0.39768051721E+02  0.36029039008E+02  0.95778002798E+02  0.77975719668E+02 0.  0.
          6    2    1    2  501    0 -0.71549942381E+02 -0.77229360781E+02  0.12636355225E+03  0.24577169808E+03  0.18262587937E+03 0.  0.
         24    2    5    5    0    0 -0.80671039863E+02 -0.50116522113E+01  0.12936613377E+03  0.17276692189E+03  0.81116455800E+02 0.  0.
          5    1    5    5  501    0  0.91210974817E+01 -0.72217708569E+02 -0.30025815207E+01  0.73004776187E+02  0.47000000000E+01 0. -1.
        -11    1    6    6    0    0 -0.59741972454E+02 -0.40419875423E+02  0.69753241180E+02  0.10034133872E+03  0.00000000000E+00 0.  1.
         12    1    6    6    0    0 -0.20929067409E+02  0.35408223212E+02  0.59612892593E+02  0.72425583166E+02  0.00000000000E+00 0. -1.
         -5    1    3    3    0  503  0.56934082065E+02  0.37461309060E+02  0.20520293943E+03  0.21627569380E+03  0.47000000000E+01 0.  1.
         11    1    4    4    0    0 -0.27743200236E+01  0.42924633259E+02  0.55017677347E+02  0.69836708204E+02  0.00000000000E+00 0. -1.
        -12    1    4    4    0    0  0.17390180339E+02 -0.31565815385E+01 -0.18988638339E+02  0.25941294594E+02  0.00000000000E+00 0.  1.
</event>
<event>
12    1  0.8691829E-002  0.1934319E+03  0.7818608E-02  0.1155432E+00
         21   -1    0    0  503  502  0.00000000000E+00  0.00000000000E+00  0.55188466114E+03  0.55188466114E+03  0.00000000000E+00 0.  1.
         21   -1    0    0  501  503 -0.00000000000E+00 -0.00000000000E+00 -0.13964930468E+03  0.13964930468E+03  0.00000000000E+00 0.  1.
          6    2    1    2  501    0 -0.80729571036E+02  0.35074346855E+02 -0.42018119316E+02  0.19781123656E+03  0.17209383926E+03 0.  0.
         24    2    3    3    0    0 -0.12209507620E+03  0.22114630725E+02 -0.43369493952E+02  0.15418812946E+03  0.80602740246E+02 0.  0.
         -6    2    1    2    0  502  0.80729571036E+02 -0.35074346855E+02  0.45425347577E+03  0.49372272926E+03  0.17224528931E+03 0.  0.
        -24    2    5    5    0    0  0.11420245795E+03 -0.53659609219E+02  0.30628620112E+03  0.34081017090E+03  0.80117292332E+02 0.  0.
          5    1    3    3  501    0  0.41365505167E+02  0.12959716130E+02  0.13513746367E+01  0.43623107102E+02  0.47000000000E+01 0. -1.
        -11    1    4    4    0    0 -0.38824160637E+02  0.30804754260E+02 -0.49748628501E+02  0.70222321038E+02  0.00000000000E+00 0.  1.
         12    1    4    4    0    0 -0.83270915566E+02 -0.86901235352E+01  0.63791345484E+01  0.83965808421E+02  0.00000000000E+00 0. -1.
         -5    1    5    5    0  502 -0.33472886916E+02  0.18585262364E+02  0.14796727465E+03  0.15291255836E+03  0.47000000000E+01 0.  1.
         11    1    6    6    0    0  0.52841374084E+02  0.10450202855E+02  0.69425938507E+02  0.87871374704E+02  0.00000000000E+00 0. -1.
        -12    1    6    6    0    0  0.61361083868E+02 -0.64109812073E+02  0.23686026261E+03  0.25293879620E+03  0.00000000000E+00 0.  1.
</event>
<event>
12    1  0.8691829E-002  0.1795362E+03  0.7818608E-02  0.1168495E+00
         21   -1    0    0  503  502  0.00000000000E+00  0.00000000000E+00  0.91684559061E+02  0.91684559061E+02  0.00000000000E+00 0.  1.
         21   -1    0    0  501  503 -0.00000000000E+00 -0.00000000000E+00 -0.45553491671E+03  0.45553491671E+03  0.00000000000E+00 0.  1.
          6    2    1    2  501    0  0.41289180967E+02  0.29966045913E+02 -0.31424272122E+03  0.36191397021E+03  0.17213504472E+03 0.  0.
         24    2    3    3    0    0 -0.29717759976E+02 -0.53177005659E+01 -0.90890227985E+02  0.12485837618E+03  0.80107161739E+02 0.  0.
         -6    2    1    2    0  502 -0.41289180967E+02 -0.29966045913E+02 -0.49607636430E+02  0.18530550556E+03  0.17109778615E+03 0.  0.
        -24    2    5    5    0    0 -0.35108127146E+02 -0.78294964795E+02 -0.22838457225E+02  0.12951510511E+03  0.94286187856E+02 0.  0.
          5    1    3    3  501    0  0.71006940942E+02  0.35283746479E+02 -0.22335249324E+03  0.23705559403E+03  0.47000000000E+01 0. -1.
        -13    1    4    4    0    0  0.54971658994E+01 -0.18160916408E+02 -0.84782890487E+02  0.86880240774E+02  0.00000000000E+00 0.  1.
         14    1    4    4    0    0 -0.35214925875E+02  0.12843215842E+02 -0.61073374980E+01  0.37978135405E+02  0.00000000000E+00 0. -1.
         -5    1    5    5    0  502 -0.61810538208E+01  0.48328918882E+02 -0.26769179205E+02  0.55790400446E+02  0.47000000000E+01 0.  1.
         11    1    6    6    0    0 -0.51231020477E+02 -0.76563280706E+02  0.10226099945E+02  0.92688330073E+02  0.00000000000E+00 0. -1.
        -12    1    6    6    0    0  0.16122893332E+02 -0.17316840897E+01 -0.33064557169E+02  0.36826775041E+02  0.00000000000E+00 0.  1.
</event>
<event>
12    1  0.8691829E-002  0.1973951E+03  0.7818608E-02  0.1152105E+00
         21   -1    0    0  503  502  0.00000000000E+00  0.00000000000E+00  0.46244431097E+03  0.46244431097E+03  0.00000000000E+00 0.  1.
         21   -1    0    0  501  503 -0.00000000000E+00 -0.00000000000E+00 -0.20796247412E+03  0.20796247412E+03  0.00000000000E+00 0.  1.
          6    2    1    2  501    0  0.93088038159E+02 -0.22849538701E+02 -0.13150610893E+03  0.23718913335E+03  0.17256113127E+03 0.  0.
         24    2    3    3    0    0  0.11567641786E+03 -0.13895320817E+02 -0.14967360085E+03  0.20648798226E+03  0.81614866530E+02 0.  0.
         -6    2    1    2    0  502 -0.93088038159E+02  0.22849538701E+02  0.38598794578E+03  0.43321765174E+03  0.17176540753E+03 0.  0.
        -24    2    5    5    0    0  0.12281695364E+02  0.20940027629E+02  0.22497481316E+03  0.24072415613E+03  0.82128728166E+02 0.  0.
          5    1    3    3  501    0 -0.22588379700E+02 -0.89542178848E+01  0.18167491916E+02  0.30701151085E+02  0.47000000000E+01 0. -1.
        -13    1    4    4    0    0  0.64670161385E+02  0.21934492128E+02 -0.36866083581E+02  0.77604509128E+02  0.00000000000E+00 0.  1.
         14    1    4    4    0    0  0.51006256475E+02 -0.35829812945E+02 -0.11280751727E+03  0.12888347314E+03  0.00000000000E+00 0. -1.
         -5    1    5    5    0  502 -0.10536973352E+03  0.19095110719E+01  0.16101313262E+03  0.19249349561E+03  0.47000000000E+01 0.  1.
         11    1    6    6    0    0  0.23730319042E+02  0.48634605547E+02  0.12169647625E+03  0.13318590477E+03  0.00000000000E+00 0. -1.
        -12    1    6    6    0    0 -0.11448623678E+02 -0.27694577917E+02  0.10327833691E+03  0.10753825135E+03  0.00000000000E+00 0.  1.
</event>
<event>
12    1  0.8691829E-002  0.1919646E+03  0.7818608E-02  0.1157348E+00
         21   -1    0    0  501  502  0.00000000000E+00  0.00000000000E+00  0.67833209432E+02  0.67833209432E+02  0.00000000000E+00 0.  1.
         21   -1    0    0  502  503 -0.00000000000E+00 -0.00000000000E+00 -0.53541914600E+03  0.53541914600E+03  0.00000000000E+00 0.  1.
         -6    2    1    2    0  503 -0.60675307887E+02 -0.53377225985E+02 -0.22486723205E+03  0.29379676893E+03  0.17094048128E+03 0.  0.
        -24    2    3    3    0    0  0.14869412835E+02  0.17653558350E+02 -0.94728786861E+02  0.12733211181E+03  0.81897350854E+02 0.  0.
          6    2    1    2  501    0  0.60675307887E+02  0.53377225985E+02 -0.24271870451E+03  0.30945558650E+03  0.17412572830E+03 0.  0.
         24    2    5    5    0    0  0.77498936272E+01  0.63988670490E+01 -0.22125110938E+03  0.23535421456E+03  0.79614989528E+02 0.  0.
          5    1    5    5  501    0  0.52925414259E+02  0.46978358936E+02 -0.21467595124E+02  0.74101371939E+02  0.47000000000E+01 0. -1.
        -11    1    6    6    0    0  0.36183859675E+02  0.25384093254E+02 -0.14908128579E+03  0.15549551011E+03  0.00000000000E+00 0.  1.
         12    1    6    6    0    0 -0.28433966047E+02 -0.18985226205E+02 -0.72169823591E+02  0.79858704449E+02  0.00000000000E+00 0. -1.
         -5    1    3    3    0  503 -0.75544720721E+02 -0.71030784335E+02 -0.13013844519E+03  0.16646465712E+03  0.47000000000E+01 0.  1.
         13    1    4    4    0    0  0.10494416718E+02 -0.47764282068E+01 -0.10253628264E+03  0.10318253876E+03  0.00000000000E+00 0. -1.
        -14    1    4    4    0    0  0.43749961163E+01  0.22429986557E+02  0.78074957757E+01  0.24149573045E+02  0.00000000000E+00 0.  1.
</event>
<event>
12    1  0.8691829E-002  0.1845109E+03  0.7818608E-02  0.1163884E+00
         21   -1    0    0  503  502  0.00000000000E+00  0.00000000000E+00  0.10193100524E+03  0.10193100524E+03  0.00000000000E+00 0. -1.
         21   -1    0    0  501  503 -0.00000000000E+00 -0.00000000000E+00 -0.36802655997E+03  0.36802655997E+03  0.00000000000E+00 0. -1.
          6    2    1    2  501    0  0.58222531848E+02  0.21796236645E+02 -0.20800122740E+03  0.27804456525E+03  0.17372199204E+03 0.  0.
         24    2    3    3    0    0  0.19591864108E+02  0.33367449304E+02 -0.27779849945E+02  0.93306760929E+02  0.80232186558E+02 0.  0.
         -6    2    1    2    0  502 -0.58222531848E+02 -0.21796236645E+02 -0.58094327324E+02  0.19191299997E+03  0.17201950338E+03 0.  0.
        -24    2    5    5    0    0  0.15781067264E+02  0.33165029554E+02 -0.34464281616E+02  0.96635812118E+02  0.82472614892E+02 0.  0.
          5    1    3    3  501    0  0.38630667740E+02 -0.11571212660E+02 -0.18022137745E+03  0.18473780432E+03  0.47000000000E+01 0. -1.
        -11    1    4    4    0    0 -0.10129982755E+02 -0.18659367627E+02  0.89344300495E+01  0.23035029654E+02  0.00000000000E+00 0.  1.
         12    1    4    4    0    0  0.29721846863E+02  0.52026816931E+02 -0.36714279994E+02  0.70271731275E+02  0.00000000000E+00 0. -1.
         -5    1    5    5    0  502 -0.74003599113E+02 -0.54961266199E+02 -0.23630045707E+02  0.95277187847E+02  0.47000000000E+01 0.  1.
         13    1    6    6    0    0 -0.25979347343E+02  0.88457080003E+01  0.11672275410E+02  0.29823062412E+02  0.00000000000E+00 0. -1.
        -14    1    6    6    0    0  0.41760414607E+02  0.24319321554E+02 -0.46136557026E+02  0.66812749706E+02  0.00000000000E+00 0.  1.
</event>
<event>
12    1  0.8691829E-002  0.2102419E+03  0.7818608E-02  0.1141740E+00
         21   -1    0    0  501  502  0.00000000000E+00  0.00000000000E+00  0.27811122817E+04  0.27811122817E+04  0.00000000000E+00 0. -1.
         21   -1    0    0  502  503 -0.00000000000E+00 -0.00000000000E+00 -0.16064367137E+02  0.16064367137E+02  0.00000000000E+00 0.  1.
         -6    2    1    2    0  503  0.10248729061E+03 -0.62405747616E+02  0.11942746126E+04  0.12126390720E+04  0.17263703733E+03 0.  0.
        -24    2    3    3    0    0  0.13415102121E+03 -0.58856843182E+02  0.81043540558E+03  0.82745104859E+03  0.80056646958E+02 0.  0.
          6    2    1    2  501    0 -0.10248729061E+03  0.62405747616E+02  0.15707733020E+04  0.15845375768E+04  0.17038909605E+03 0.  0.
         24    2    5    5    0    0 -0.18477396378E+02 -0.24925150980E+02  0.57139519210E+03  0.57782855993E+03  0.80191656563E+02 0.  0.
          5    1    5    5  501    0 -0.84009894236E+02  0.87330898597E+02  0.99937810989E+03  0.10067090169E+04  0.47000000000E+01 0. -1.
        -13    1    6    6    0    0  0.26156930289E+01  0.20552532693E+01  0.48328916710E+03  0.48330061550E+03  0.00000000000E+00 0.  1.
         14    1    6    6    0    0 -0.21093089407E+02 -0.26980404250E+02  0.88106025005E+02  0.94527944420E+02  0.00000000000E+00 0. -1.
         -5    1    3    3    0  503 -0.31663730598E+02 -0.35489044341E+01  0.38383920700E+03  0.38518802343E+03  0.47000000000E+01 0.  1.
         11    1    4    4    0    0  0.30807503927E+02 -0.54027538903E+02  0.35561605018E+03  0.36101364573E+03  0.00000000000E+00 0. -1.
        -12    1    4    4    0    0  0.10334351729E+03 -0.48293042794E+01  0.45481935540E+03  0.46643740286E+03  0.00000000000E+00 0.  1.
</event>
<event>
12    1  0.8691829E-002  0.2377953E+03  0.7818608E-02  0.1122535E+00
         21   -1    0    0  501  502  0.00000000000E+00  0.00000000000E+00  0.10030116897E+04  0.10030116897E+04  0.00000000000E+00 0.  1.
         21   -1    0    0  502  503 -0.00000000000E+00 -0.00000000000E+00 -0.62692657108E+02  0.62692657108E+02  0.00000000000E+00 0. -1.
         -6    2    1    2    0  503  0.14566515042E+03  0.50160048031E+02  0.28568238907E+03  0.37170017604E+03  0.18114145571E+03 0.  0.
        -24    2    3    3    0    0  0.17537592425E+03  0.20116319074E+02  0.23781743977E+03  0.30768065478E+03  0.83359879842E+02 0.  0.
          6    2    1    2  501    0 -0.14566515042E+03 -0.50160048031E+02  0.65463664351E+03  0.69400417076E+03  0.17134260281E+03 0.  0.
         24    2    5    5    0    0 -0.16152035877E+03 -0.11241586949E+02  0.57165544966E+03  0.60086984424E+03  0.89662796107E+02 0.  0.
          5    1    5    5  501    0  0.15855208351E+02 -0.38918461083E+02  0.82981193847E+02  0.93134326525E+02  0.47000000000E+01 0. -1.
        -11    1    6    6    0    0 -0.61783745737E+02  0.35870230055E+02  0.17138447726E+03  0.18567860321E+03  0.00000000000E+00 0.  1.
         12    1    6    6    0    0 -0.99736613034E+02 -0.47111817004E+02  0.40027097240E+03  0.41519124103E+03  0.00000000000E+00 0. -1.
         -5    1    3    3    0  503 -0.29710773826E+02  0.30043728958E+02  0.47864949303E+02  0.64019521264E+02  0.47000000000E+01 0.  1.
         11    1    4    4    0    0  0.76598074044E+02 -0.11544363657E+02  0.47318474182E+02  0.90772106279E+02  0.00000000000E+00 0. -1.
        -12    1    4    4    0    0  0.98777850202E+02  0.31660682731E+02  0.19049896559E+03  0.21690854850E+03  0.00000000000E+00 0.  1.
</event>
<event>
12    1  0.8691829E-002  0.2158390E+03  0.7818608E-02  0.1137392E+00
         21   -1    0    0  503  502  0.00000000000E+00  0.00000000000E+00  0.14039024089E+03  0.14039024089E+03  0.00000000000E+00 0. -1.
         21   -1    0    0  501  503 -0.00000000000E+00 -0.00000000000E+00 -0.34953909558E+03  0.34953909558E+03  0.00000000000E+00 0. -1.
          6    2    1    2  501    0  0.13018216013E+03  0.88605116213E+01 -0.16454857265E+03  0.27140873719E+03  0.17193186551E+03 0.  0.
         24    2    3    3    0    0  0.42533070259E+02  0.59295861640E+02 -0.11732705157E+03  0.15970354689E+03  0.80090727208E+02 0.  0.
         -6    2    1    2    0  502 -0.13018216013E+03 -0.88605116213E+01 -0.44600282037E+02  0.21852059928E+03  0.16951744356E+03 0.  0.
        -24    2    5    5    0    0 -0.16199611506E+03 -0.62763908101E+01 -0.38929309141E+02  0.18576307584E+03  0.81916389459E+02 0.  0.
          5    1    3    3  501    0  0.87649089872E+02 -0.50435350019E+02 -0.47221521083E+02  0.11170519030E+03  0.47000000000E+01 0. -1.
        -13    1    4    4    0    0 -0.17276239836E+02 -0.71864994046E+01 -0.16670573759E+02  0.25060372424E+02  0.00000000000E+00 0.  1.
         14    1    4    4    0    0  0.59809310095E+02  0.66482361045E+02 -0.10065647781E+03  0.13464317446E+03  0.00000000000E+00 0. -1.
         -5    1    5    5    0  502  0.31813954924E+02 -0.25841208112E+01 -0.56709728956E+01  0.32757523439E+02  0.47000000000E+01 0.  1.
         13    1    6    6    0    0 -0.60645577884E+02  0.27387651798E+02  0.11717967807E+02  0.67566858425E+02  0.00000000000E+00 0. -1.
        -14    1    6    6    0    0 -0.10135053717E+03 -0.33664042609E+02 -0.50647276949E+02  0.11819621742E+03  0.00000000000E+00 0.  1.
</event>
<event>
12    1  0.8691829E-002  0.2045440E+03  0.7818608E-02  0.1145982E+00
         21   -1    0    0  503  502  0.00000000000E+00  0.00000000000E+00  0.24706196695E+03  0.24706196695E+03  0.00000000000E+00 0. -1.
         21   -1    0    0  501  503 -0.00000000000E+00 -0.00000000000E+00 -0.26172584626E+03  0.26172584626E+03  0.00000000000E+00 0.  1.
          6    2    1    2  501    0  0.26564602033E+02 -0.10923022881E+03 -0.15854377020E+03  0.25879407712E+03  0.17088395569E+03 0.  0.
         24    2    3    3    0    0 -0.32203000511E+02 -0.82438171855E+01 -0.74336096791E+02  0.11469373464E+03  0.80770066949E+02 0.  0.
         -6    2    1    2    0  502 -0.26564602033E+02  0.10923022881E+03  0.14387989090E+03  0.24999373609E+03  0.17075867215E+03 0.  0.
        -24    2    5    5    0    0 -0.70863329627E+02  0.81143914463E+02  0.14451729325E+03  0.19732766920E+03  0.80293303861E+02 0.  0.
          5    1    3    3  501    0  0.58767602544E+02 -0.10098641162E+03 -0.84207673412E+02  0.14410034248E+03  0.47000000000E+01 0. -1.
        -11    1    4    4    0    0 -0.62770130482E+01 -0.38382957246E+02 -0.11895903733E+02  0.40671425170E+02  0.00000000000E+00 0.  1.
         12    1    4    4    0    0 -0.25925987462E+02  0.30139140060E+02 -0.62440193059E+02  0.74022309466E+02  0.00000000000E+00 0. -1.
         -5    1    5    5    0  502  0.44298727593E+02  0.28086314345E+02 -0.63740235323E+00  0.52666066890E+02  0.47000000000E+01 0.  1.
         11    1    6    6    0    0 -0.84962484312E+02  0.47239019811E+02  0.97645588974E+02  0.13778537578E+03  0.00000000000E+00 0. -1.
        -12    1    6    6    0    0  0.14099154686E+02  0.33904894653E+02  0.46871704274E+02  0.59542293421E+02  0.00000000000E+00 0.  1.
</event>
<event>
12    1  0.8691829E-002  0.2067837E+03  0.7818608E-02  0.1145235E+00
         21   -1    0    0  503  502  0.00000000000E+00  0.00000000000E+00  0.38327950079E+03  0.38327950079E+03  0.00000000000E+00 0. -1.
         21   -1    0    0  501  503 -0.00000000000E+00 -0.00000000000E+00 -0.14375304664E+03  0.14375304664E+03  0.00000000000E+00 0. -1.
          6    2    1    2  501    0  0.94164315828E+02 -0.41158096510E+02  0.25108013208E+03  0.32527025104E+03  0.17943967287E+03 0.  0.
         24    2    3    3    0    0  0.41741933924E+02 -0.40647874903E+02  0.37193709722E+02  0.10500255454E+03  0.79041290701E+02 0.  0.
         -6    2    1    2    0  502 -0.94164315828E+02  0.41158096510E+02 -0.11553677935E+02  0.20176229639E+03  0.17324442123E+03 0.  0.
        -24    2    5    5    0    0 -0.29480818917E+02  0.18492243149E+02 -0.70626153463E+02  0.11115687136E+03  0.78464735749E+02 0.  0.
          5    1    3    3  501    0  0.52422381905E+02 -0.51022160694E+00  0.21388642236E+03  0.22026769649E+03  0.47000000000E+01 0. -1.
        -13    1    4    4    0    0  0.19622063691E+02  0.21959544441E+02  0.11982700545E+01  0.29473425771E+02  0.00000000000E+00 0.  1.
         14    1    4    4    0    0  0.22119870233E+02 -0.62607419344E+02  0.35995439668E+02  0.75529128771E+02  0.00000000000E+00 0. -1.
         -5    1    5    5    0  502 -0.64683496911E+02  0.22665853361E+02  0.59072475528E+02  0.90605425038E+02  0.47000000000E+01 0.  1.
         13    1    6    6    0    0  0.14500387473E+02  0.35375148009E+02 -0.37603048810E+02  0.53625102455E+02  0.00000000000E+00 0. -1.
        -14    1    6    6    0    0 -0.43981206390E+02 -0.16882904860E+02 -0.33023104653E+02  0.57531768902E+02  0.00000000000E+00 0.  1.
</event>
<event>
12    1  0.8691829E-002  0.2310814E+03  0.7818608E-02  0.1126168E+00
         21   -1    0    0  503  502  0.00000000000E+00  0.00000000000E+00  0.14732320337E+04  0.14732320337E+04  0.00000000000E+00 0.  1.
         21   -1    0    0  501  503 -0.00000000000E+00 -0.00000000000E+00 -0.18322047145E+03  0.18322047145E+03  0.00000000000E+00 0.  1.
          6    2    1    2  501    0 -0.10131376924E+03  0.11682169327E+03 -0.97883866323E+02  0.24945131342E+03  0.16950787187E+03 0.  0.
         24    2    3    3    0    0 -0.21072658116E+02  0.14140435549E+01 -0.79528673166E+01  0.82516487487E+02  0.79370436369E+02 0.  0.
         -6    2    1    2    0  502  0.10131376924E+03 -0.11682169327E+03  0.13878954285E+04  0.14070011917E+04  0.17171734052E+03 0.  0.
        -24    2    5    5    0    0  0.11174116876E+03 -0.32277705002E+02  0.72229192102E+03  0.73595235903E+03  0.79951964011E+02 0.  0.
          5    1    3    3  501    0 -0.80241111123E+02  0.11540764972E+03 -0.89930999007E+02  0.16693482593E+03  0.47000000000E+01 0. -1.
        -13    1    4    4    0    0 -0.19796435933E+02  0.23781851560E+02 -0.35445144737E+02  0.47051393440E+02  0.00000000000E+00 0.  1.
         14    1    4    4    0    0 -0.12762221823E+01 -0.22367808005E+02  0.27492277420E+02  0.35465094047E+02  0.00000000000E+00 0. -1.
         -5    1    5    5    0  502 -0.10427399523E+02 -0.84543988270E+02  0.66560350750E+03  0.67104883266E+03  0.47000000000E+01 0.  1.
         11    1    6    6    0    0 -0.62155648767E+01 -0.29748772673E+01  0.51988397017E+01  0.86319798271E+01  0.00000000000E+00 0. -1.
        -12    1    6    6    0    0  0.11795673364E+03 -0.29302827734E+02  0.71709308132E+03  0.72732037920E+03  0.00000000000E+00 0.  1.
</event>
<event>
12    1  0.8691829E-002  0.2088867E+03  0.7818608E-02  0.1143025E+00
         21   -1    0    0  501  502  0.00000000000E+00  0.00000000000E+00  0.26564321275E+03  0.26564321275E+03  0.00000000000E+00 0.  1.
         21   -1    0    0  502  503 -0.00000000000E+00 -0.00000000000E+00 -0.17594467193E+03  0.17594467193E+03  0.00000000000E+00 0. -1.
         -6    2    1    2    0  503 -0.40539511226E+02 -0.10767870311E+03 -0.16986656028E+02  0.20957623529E+03  0.17434304358E+03 0.  0.
        -24    2    3    3    0    0  0.40777781395E+02 -0.82677921094E+02  0.93370747792E+01  0.12039905220E+03  0.76878376112E+02 0.  0.
          6    2    1    2  501    0  0.40539511226E+02  0.10767870311E+03  0.10668519685E+03  0.23201164938E+03  0.17090792594E+03 0.  0.
         24    2    5    5    0    0 -0.23498552315E+02  0.10191971723E+03  0.10367760828E+03  0.16747348168E+03  0.79740265155E+02 0.  0.
          5    1    5    5  501    0  0.64038063541E+02  0.57589858734E+01  0.30075885698E+01  0.64538167695E+02  0.47000000000E+01 0. -1.
        -13    1    6    6    0    0  0.27968626428E+02  0.53666076166E+02  0.40948997714E+02  0.73069228880E+02  0.00000000000E+00 0.  1.
         14    1    6    6    0    0 -0.51467178743E+02  0.48253641067E+02  0.62728610566E+02  0.94404252804E+02  0.00000000000E+00 0. -1.
         -5    1    3    3    0  503 -0.81317292622E+02 -0.25000782013E+02 -0.26323730807E+02  0.89177183092E+02  0.47000000000E+01 0.  1.
         13    1    4    4    0    0  0.24326526650E+02 -0.43864210493E+02 -0.33485114668E+02  0.60308388848E+02  0.00000000000E+00 0. -1.
        -14    1    4    4    0    0  0.16451254745E+02 -0.38813710600E+02  0.42822189447E+02  0.60090663354E+02  0.00000000000E+00 0.  1.
</event>
<event>
12    1  0.8691829E-002  0.3075732E+03  0.7818608E-02  0.1081628E+00
         21   -1    0    0  501  502  0.00000000000E+00  0.00000000000E+00  0.12058863588E+04  0.12058863588E+04  0.00000000000E+00 0. -1.
         21   -1    0    0  502  503 -0.00000000000E+00 -0.00000000000E+00 -0.10246631861E+03  0.10246631861E+03  0.00000000000E+00 0.  1.
         -6    2    1    2    0  503 -0.14654611375E+03 -0.20848058356E+03  0.23407873223E+03  0.38651536362E+03  0.17222472601E+03 0.  0.
        -24    2    3    3    0    0 -0.87230553561E+02 -0.27863272573E+02  0.83176471878E+02  0.14375101102E+03  0.73215410009E+02 0.  0.
          6    2    1    2  501    0  0.14654611375E+03  0.20848058356E+03  0.86934130792E+03  0.92183731376E+03  0.17055733992E+03 0.  0.
         24    2    5    5    0    0  0.44143961164E+02  0.26762085414E+02  0.33305775897E+03  0.34639839580E+03  0.79996745439E+02 0.  0.
          5    1    5    5  501    0  0.10240215259E+03  0.18171849815E+03  0.53628354895E+03  0.57543891796E+03  0.47000000000E+01 0. -1.
        -13    1    6    6    0    0 -0.22864119078E+02  0.44772877694E+01  0.10956387786E+03  0.11201364818E+03  0.00000000000E+00 0.  1.
         14    1    6    6    0    0  0.67008080242E+02  0.22284797644E+02  0.22349388111E+03  0.23438474762E+03  0.00000000000E+00 0. -1.
         -5    1    3    3    0  503 -0.59315560192E+02 -0.18061731099E+03  0.15090226036E+03  0.24276435259E+03  0.47000000000E+01 0.  1.
         13    1    4    4    0    0 -0.68931642886E+01  0.20839039014E+02  0.24917467402E+02  0.33206346422E+02  0.00000000000E+00 0. -1.
        -14    1    4    4    0    0 -0.80337389273E+02 -0.48702311588E+02  0.58259004476E+02  0.11054466460E+03  0.00000000000E+00 0.  1.
</event>
<event>
12    1  0.8691829E-002  0.1729493E+03  0.7818608E-02  0.1174814E+00
         21   -1    0    0  503  502  0.00000000000E+00  0.00000000000E+00  0.51591202641E+03  0.51591202641E+03  0.00000000000E+00 0.  1.
         21   -1    0    0  501  503 -0.00000000000E+00 -0.00000000000E+00 -0.58110737748E+02  0.58110737748E+02  0.00000000000E+00 0.  1.
          6    2    1    2  501    0 -0.10312684015E+02  0.57331090806E+01  0.24315922156E+03  0.29839213812E+03  0.17254634470E+03 0.  0.
         24    2    3    3    0    0  0.53648830609E+02 -0.21590908341E+02  0.17124086411E+03  0.19823217896E+03  0.81413751198E+02 0.  0.
         -6    2    1    2    0  502  0.10312684015E+02 -0.57331090806E+01  0.21464206710E+03  0.27563062603E+03  0.17251610084E+03 0.  0.
        -24    2    5    5    0    0  0.24817195144E+02  0.58507244118E+02  0.96351926775E+02  0.14016162176E+03  0.79514751031E+02 0.  0.
          5    1    3    3  501    0 -0.63961514624E+02  0.27324017422E+02  0.71918357452E+02  0.10015995916E+03  0.47000000000E+01 0. -1.
        -11    1    4    4    0    0  0.32163669320E+02  0.26237608486E+02  0.43386343140E+02  0.60044054612E+02  0.00000000000E+00 0.  1.
         12    1    4    4    0    0  0.21485161289E+02 -0.47828516827E+02  0.12785452097E+03  0.13818812435E+03  0.00000000000E+00 0. -1.
         -5    1    5    5    0  502 -0.14504511129E+02 -0.64240353199E+02  0.11829014032E+03  0.13546900428E+03  0.47000000000E+01 0.  1.
         13    1    6    6    0    0  0.50130759104E+02  0.50004505856E+02  0.50044096446E+02  0.86706142824E+02  0.00000000000E+00 0. -1.
        -14    1    6    6    0    0 -0.25313563960E+02  0.85027382622E+01  0.46307830329E+02  0.53455478934E+02  0.00000000000E+00 0.  1.
</event>
<event>
12    1  0.8691829E-002  0.2464840E+03  0.7818608E-02  0.1117853E+00
         21   -1    0    0  501  502  0.00000000000E+00  0.00000000000E+00  0.82900584727E+03  0.82900584727E+03  0.00000000000E+00 0. -1.
         21   -1    0    0  502  503 -0.00000000000E+00 -0.00000000000E+00 -0.73384990626E+02  0.73384990626E+02  0.00000000000E+00 0.  1.
         -6    2    1    2    0  503 -0.33771901231E+02  0.15229560943E+03  0.25994328202E+03  0.34881101588E+03  0.17252281288E+03 0.  0.
        -24    2    3    3    0    0  0.41560854266E+01  0.15118915514E+03  0.25931013063E+03  0.31057167366E+03  0.79608962779E+02 0.  0.
          6    2    1    2  501    0  0.33771901231E+02 -0.15229560943E+03  0.49567757462E+03  0.55357982201E+03  0.19083989991E+03 0.  0.
         24    2    5    5    0    0  0.43032434343E+02 -0.98178775685E+02  0.13794098864E+03  0.19162410080E+03  0.78747807979E+02 0.  0.
          5    1    5    5  501    0 -0.92605331115E+01 -0.54116833748E+02  0.35773658598E+03  0.36195572121E+03  0.47000000000E+01 0. -1.
        -13    1    6    6    0    0 -0.83829311856E+01 -0.44907150640E+02  0.14946957291E+02  0.48065967650E+02  0.00000000000E+00 0.  1.
         14    1    6    6    0    0  0.51415365529E+02 -0.53271625045E+02  0.12299403135E+03  0.14355813315E+03  0.00000000000E+00 0. -1.
         -5    1    3    3    0  503 -0.37927986658E+02  0.11064542963E+01  0.63315139613E+00  0.38239342224E+02  0.47000000000E+01 0.  1.
         11    1    4    4    0    0  0.18809549707E+02  0.90378428755E+02  0.21480979475E+03  0.23380613222E+03  0.00000000000E+00 0. -1.
        -12    1    4    4    0    0 -0.14653464280E+02  0.60810726381E+02  0.44500335878E+02  0.76765541434E+02  0.00000000000E+00 0.  1.
</event>
<event>
12    1  0.8691829E-002  0.2171919E+03  0.7818608E-02  0.1136222E+00
         21   -1    0    0  503  502  0.00000000000E+00  0.00000000000E+00  0.35922515147E+03  0.35922515147E+03  0.00000000000E+00 0. -1.
         21   -1    0    0  501  503 -0.00000000000E+00 -0.00000000000E+00 -0.16230878814E+03  0.16230878814E+03  0.00000000000E+00 0.  1.
          6    2    1    2  501    0  0.12818278555E+03 -0.29711363170E+02  0.21351097944E+03  0.30370901097E+03  0.17128523985E+03 0.  0.
         24    2    3    3    0    0  0.98202435477E+02 -0.83423565254E+02  0.13299984984E+03  0.20227945890E+03  0.81392934966E+02 0.  0.
         -6    2    1    2    0  502 -0.12818278555E+03  0.29711363170E+02 -0.16594616108E+02  0.21782492864E+03  0.17279677844E+03 0.  0.
        -24    2    5    5    0    0 -0.66485689353E+02 -0.36083964303E+02 -0.46811791909E+02  0.12258457737E+03  0.84339998685E+02 0.  0.
          5    1    3    3  501    0  0.29980350078E+02  0.53712202084E+02  0.80511129604E+02  0.10142955207E+03  0.47000000000E+01 0. -1.
        -13    1    4    4    0    0 -0.10910077297E+02 -0.61297102693E+01  0.33040894247E+02  0.35331343411E+02  0.00000000000E+00 0.  1.
         14    1    4    4    0    0  0.10911251277E+03 -0.77293854985E+02  0.99958955590E+02  0.16694811549E+03  0.00000000000E+00 0. -1.
         -5    1    5    5    0  502 -0.61697096201E+02  0.65795327473E+02  0.30217175801E+02  0.95240351271E+02  0.47000000000E+01 0.  1.
         11    1    6    6    0    0 -0.59095659383E+00 -0.64224492058E+01  0.21923575528E+02  0.22852576385E+02  0.00000000000E+00 0. -1.
        -12    1    6    6    0    0 -0.65894732760E+02 -0.29661515097E+02 -0.68735367437E+02  0.99732000983E+02  0.00000000000E+00 0.  1.
</event>
<event>
12    1  0.8691829E-002  0.2872067E+03  0.7818608E-02  0.1091887E+00
         21   -1    0    0  503  502  0.00000000000E+00  0.00000000000E+00  0.53901875822E+03  0.53901875822E+03  0.00000000000E+00 0.  1.
         21   -1    0    0  501  503 -0.00000000000E+00 -0.00000000000E+00 -0.16083514994E+03  0.16083514994E+03  0.00000000000E+00 0. -1.
          6    2    1    2  501    0 -0.19565929826E+03  0.11972950300E+03  0.11079610843E+03  0.30783675443E+03  0.17282932289E+03 0.  0.
         24    2    3    3    0    0 -0.10184429731E+03  0.21839597886E+02  0.11272715958E+03  0.17215511644E+03  0.77979116951E+02 0.  0.
         -6    2    1    2    0  502  0.19565929826E+03 -0.11972950300E+03  0.26738749985E+03  0.39201715373E+03  0.17194085861E+03 0.  0.
        -24    2    5    5    0    0  0.12173090099E+03 -0.14866050839E+03  0.18977427309E+03  0.28089418597E+03  0.77258721034E+02 0.  0.
          5    1    3    3  501    0 -0.93815000951E+02  0.97889905117E+02 -0.19310511556E+01  0.13568163798E+03  0.47000000000E+01 0. -1.
        -11    1    4    4    0    0 -0.64228673994E+02 -0.11676351001E+02  0.22932237880E+02  0.69192104101E+02  0.00000000000E+00 0.  1.
         12    1    4    4    0    0 -0.37615623312E+02  0.33515948887E+02  0.89794921702E+02  0.10296301234E+03  0.00000000000E+00 0. -1.
         -5    1    5    5    0  502  0.73928397266E+02  0.28931005386E+02  0.77613226762E+02  0.11112296776E+03  0.47000000000E+01 0.  1.
         13    1    6    6    0    0  0.25644365148E+02 -0.87676544023E+02  0.10374633553E+03  0.13823209458E+03  0.00000000000E+00 0. -1.
        -14    1    6    6    0    0  0.96086535843E+02 -0.60983964365E+02  0.86027937562E+02  0.14266209140E+03  0.00000000000E+00 0.  1.
</event>
<event>
12    1  0.8691829E-002  0.1846809E+03  0.7818608E-02  0.1164459E+00
         21   -1    0    0  501  502  0.00000000000E+00  0.00000000000E+00  0.35061462206E+03  0.35061462206E+03  0.00000000000E+00 0. -1.
         21   -1    0    0  502  503 -0.00000000000E+00 -0.00000000000E+00 -0.15200700078E+03  0.15200700078E+03  0.00000000000E+00 0. -1.
         -6    2    1    2    0  503  0.17394388218E+02 -0.51106042400E+02 -0.54027464798E+02  0.19242144442E+03  0.17661441903E+03 0.  0.
        -24    2    3    3    0    0  0.32410663496E+01  0.79270664119E+01  0.32467370727E+02  0.86644929876E+02  0.79874093537E+02 0.  0.
          6    2    1    2  501    0 -0.17394388218E+02  0.51106042400E+02  0.25263508608E+03  0.31020017842E+03  0.17171275917E+03 0.  0.
         24    2    5    5    0    0  0.36258384122E+02 -0.14201682882E+02  0.16511739174E+03  0.18844158207E+03  0.82037299958E+02 0.  0.
          5    1    5    5  501    0 -0.53652772340E+02  0.65307725283E+02  0.87517694342E+02  0.12175859635E+03  0.47000000000E+01 0. -1.
        -13    1    6    6    0    0  0.17914896407E+02 -0.45751586976E+02  0.62328397888E+02  0.79366116242E+02  0.00000000000E+00 0.  1.
         14    1    6    6    0    0  0.18343487715E+02  0.31549904093E+02  0.10278899385E+03  0.10907546583E+03  0.00000000000E+00 0. -1.
         -5    1    3    3    0  503  0.14153321868E+02 -0.59033108812E+02 -0.86494835525E+02  0.10577651454E+03  0.47000000000E+01 0.  1.
         13    1    4    4    0    0 -0.19304794011E+02 -0.30118877485E+02  0.18450456401E+02  0.40252219742E+02  0.00000000000E+00 0. -1.
        -14    1    4    4    0    0  0.22545860360E+02  0.38045943897E+02  0.14016914325E+02  0.46392710134E+02  0.00000000000E+00 0.  1.
</event>
<event>
12    1  0.8691829E-002  0.2107266E+03  0.7818608E-02  0.1141012E+00
         21   -1    0    0  503  502  0.00000000000E+00  0.00000000000E+00  0.34772488629E+03  0.34772488629E+03  0.00000000000E+00 0.  1.
         21   -1    0    0  501  503 -0.00000000000E+00 -0.00000000000E+00 -0.39945888341E+03  0.39945888341E+03  0.00000000000E+00 0.  1.
          6    2    1    2  501    0  0.70688983266E+02  0.98795852968E+02 -0.33404094185E+03  0.39490132783E+03  0.17206439193E+03 0.  0.
         24    2    3    3    0    0  0.23263609977E+02 -0.33109764803E+01 -0.70208087216E+02  0.10801313386E+03  0.78647971762E+02 0.  0.
         -6    2    1    2    0  502 -0.70688983266E+02 -0.98795852968E+02  0.28230694473E+03  0.35228244187E+03  0.17218639577E+03 0.  0.
        -24    2    5    5    0    0 -0.99956151091E+02 -0.39978270315E+02  0.23889012043E+03  0.27339527071E+03  0.78019165399E+02 0.  0.
          5    1    3    3  501    0  0.47425373289E+02  0.10210682945E+03 -0.26383285464E+03  0.28688819397E+03  0.47000000000E+01 0. -1.
        -13    1    4    4    0    0  0.20715927240E+02  0.31025483217E+01 -0.87196145582E+02  0.89676882483E+02  0.00000000000E+00 0.  1.
         14    1    4    4    0    0  0.25476827369E+01 -0.64135248020E+01  0.16988058366E+02  0.18336251382E+02  0.00000000000E+00 0. -1.
         -5    1    5    5    0  502  0.29267167825E+02 -0.58817582653E+02  0.43416824303E+02  0.78887171164E+02  0.47000000000E+01 0.  1.
         11    1    6    6    0    0 -0.35398455333E+02  0.92255339691E+01  0.24169635519E+02  0.43844411253E+02  0.00000000000E+00 0. -1.
        -12    1    6    6    0    0 -0.64557695758E+02 -0.49203804284E+02  0.21472048491E+03  0.22955085945E+03  0.00000000000E+00 0.  1.
</event>
<event>
12    1  0.8691829E-002  0.1915879E+03  0.7818608E-02  0.1157374E+00
         21   -1    0    0  501  502  0.00000000000E+00  0.00000000000E+00  0.11159558717E+04  0.11159558717E+04  0.00000000000E+00 0. -1.
         21   -1    0    0  502  503 -0.00000000000E+00 -0.00000000000E+00 -0.39964718333E+02  0.39964718333E+02  0.00000000000E+00 0. -1.
         -6    2    1    2    0  503 -0.76701929368E+02  0.29883365569E+02  0.28873585301E+03  0.34568800764E+03  0.17133477261E+03 0.  0.
        -24    2    3    3    0    0  0.20822820756E+02 -0.11472132227E+02  0.10875063694E+03  0.13679061156E+03  0.79496985443E+02 0.  0.
          6    2    1    2  501    0  0.76701929368E+02 -0.29883365569E+02  0.78725530032E+03  0.81023258235E+03  0.17300210438E+03 0.  0.
         24    2    5    5    0    0  0.11694508926E+03 -0.53881399884E+01  0.62813619580E+03  0.64421900635E+03  0.82206214587E+02 0.  0.
          5    1    5    5  501    0 -0.40243159889E+02 -0.24495225581E+02  0.15911910452E+03  0.16601357600E+03  0.47000000000E+01 0. -1.
        -13    1    6    6    0    0  0.63653086192E+02  0.34065275334E+02  0.24608694770E+03  0.25645846485E+03  0.00000000000E+00 0.  1.
         14    1    6    6    0    0  0.53292003065E+02 -0.39453415322E+02  0.38204924809E+03  0.38776054149E+03  0.00000000000E+00 0. -1.
         -5    1    3    3    0  503 -0.97524750124E+02  0.41355497796E+02  0.17998521607E+03  0.20889739608E+03  0.47000000000E+01 0.  1.
         13    1    4    4    0    0 -0.10028811658E+02  0.47285674795E+01 -0.88179211558E+01  0.14166585587E+02  0.00000000000E+00 0. -1.
        -14    1    4    4    0    0  0.30851632414E+02 -0.16200699706E+02  0.11756855809E+03  0.12262402597E+03  0.00000000000E+00 0.  1.
</event>
<event>
12    1  0.8691829E-002  0.2169615E+03  0.7818608E-02  0.1137074E+00
         21   -1    0    0  503  502  0.00000000000E+00  0.00000000000E+00  0.10269171488E+03  0.10269171488E+03  0.00000000000E+00 0.  1.
         21   -1    0    0  501  503 -0.00000000000E+00 -0.00000000000E+00 -0.46782124059E+03  0.46782124059E+03  0.00000000000E+00 0. -1.
          6    2    1    2  501    0 -0.12161410226E+03 -0.25839749021E+02 -0.24248095498E+03  0.32537564872E+03  0.17780499643E+03 0.  0.
         24    2    3    3    0    0 -0.11098935841E+03  0.42831999077E+02 -0.14003973791E+03  0.20150076376E+03  0.82693480875E+02 0.  0.
         -6    2    1    2    0  502  0.12161410226E+03  0.25839749021E+02 -0.12264857073E+03  0.24513730675E+03  0.17202309369E+03 0.  0.
        -24    2    5    5    0    0  0.19956897756E+02  0.47536262297E+02 -0.10194549858E+03  0.13904473815E+03  0.79262731008E+02 0.  0.
          5    1    3    3  501    0 -0.10624743851E+02 -0.68671748098E+02 -0.10244121707E+03  0.12387488496E+03  0.47000000000E+01 0. -1.
        -13    1    4    4    0    0 -0.49318000868E+02  0.44487749816E+02 -0.11906806726E+03  0.13634012518E+03  0.00000000000E+00 0.  1.
         14    1    4    4    0    0 -0.61671357537E+02 -0.16557507387E+01 -0.20971670655E+02  0.65160638586E+02  0.00000000000E+00 0. -1.
         -5    1    5    5    0  502  0.10165720450E+03 -0.21696513276E+02 -0.20703072152E+02  0.10609256860E+03  0.47000000000E+01 0.  1.
         13    1    6    6    0    0  0.32439560001E+02  0.49392172493E+02 -0.10943475560E+03  0.12436992196E+03  0.00000000000E+00 0. -1.
        -14    1    6    6    0    0 -0.12482662246E+02 -0.18559101963E+01  0.74892570225E+01  0.14674816188E+02  0.00000000000E+00 0.  1.
</event>
<event>
12    1  0.8691829E-002  0.1762725E+03  0.7818608E-02  0.1171462E+00
         21   -1    0    0  501  502  0.00000000000E+00  0.00000000000E+00  0.15893877992E+03  0.15893877992E+03  0.00000000000E+00 0. -1.
         21   -1    0    0  502  503 -0.00000000000E+00 -0.00000000000E+00 -0.19552093185E+03  0.19552093185E+03  0.00000000000E+00 0. -1.
         -6    2    1    2    0  503 -0.25495672898E+02 -0.29062721577E+02 -0.20521052573E+02  0.17746300016E+03  0.17198061433E+03 0.  0.
        -24    2    3    3    0    0 -0.69384405673E+02 -0.49353633816E+02  0.13226974881E+02  0.11831098125E+03  0.81071317365E+02 0.  0.
          6    2    1    2  501    0  0.25495672898E+02  0.29062721577E+02 -0.16061099353E+02  0.17699671160E+03  0.17197443381E+03 0.  0.
         24    2    5    5    0    0  0.38310260949E+02  0.25535597498E+02 -0.75004536818E+02  0.11639082830E+03  0.76166932029E+02 0.  0.
          5    1    5    5  501    0 -0.12814588051E+02  0.35271240796E+01  0.58943437465E+02  0.60605883306E+02  0.47000000000E+01 0. -1.
        -11    1    6    6    0    0 -0.20993556551E+02  0.69963736564E+00 -0.55090170608E+01  0.21715620601E+02  0.00000000000E+00 0.  1.
         12    1    6    6    0    0  0.59303817501E+02  0.24835960132E+02 -0.69495519757E+02  0.94675207695E+02  0.00000000000E+00 0. -1.
         -5    1    3    3    0  503  0.43888732774E+02  0.20290912239E+02 -0.33748027455E+02  0.59152018910E+02  0.47000000000E+01 0.  1.
         13    1    4    4    0    0 -0.33510593986E+02 -0.49774291726E+02 -0.25786129719E+02  0.65309758168E+02  0.00000000000E+00 0. -1.
        -14    1    4    4    0    0 -0.35873811687E+02  0.42065790992E+00  0.39013104600E+02  0.53001223085E+02  0.00000000000E+00 0.  1.
</event>
<event>
12    1  0.8691829E-002  0.2628465E+03  0.7818608E-02  0.1105615E+00
         21   -1    0    0  503  502  0.00000000000E+00  0.00000000000E+00  0.10689588047E+04  0.10689588047E+04  0.00000000000E+00 0. -1.
         21   -1    0    0  501  503 -0.00000000000E+00 -0.00000000000E+00 -0.69934863008E+02  0.69934863008E+02  0.00000000000E+00 0.  1.
          6    2    1    2  501    0 -0.18945588646E+02 -0.19725836894E+03  0.33958806120E+03  0.42942791712E+03  0.17268029778E+03 0.  0.
         24    2    3    3    0    0  0.10268608003E+02 -0.18013317083E+03  0.18180450864E+03  0.26798293839E+03  0.78794494498E+02 0.  0.
         -6    2    1    2    0  502  0.18945588646E+02  0.19725836894E+03  0.65943588049E+03  0.70946575059E+03  0.17092738615E+03 0.  0.
        -24    2    5    5    0    0  0.37524503847E+02  0.13826833031E+03  0.60543187222E+03  0.62722510579E+03  0.79607549145E+02 0.  0.
          5    1    3    3  501    0 -0.29214196649E+02 -0.17125198111E+02  0.15778355256E+03  0.16144497873E+03  0.47000000000E+01 0. -1.
        -11    1    4    4    0    0 -0.14849462830E+02 -0.34954180113E+00  0.90747053915E+01  0.17406292074E+02  0.00000000000E+00 0.  1.
         12    1    4    4    0    0  0.25118070833E+02 -0.17978362903E+03  0.17272980324E+03  0.25057664632E+03  0.00000000000E+00 0. -1.
         -5    1    5    5    0  502 -0.18578915201E+02  0.58990038629E+02  0.54004008271E+02  0.82240644798E+02  0.47000000000E+01 0.  1.
         11    1    6    6    0    0 -0.23111219185E+02  0.28827974312E+02  0.18117567945E+03  0.18490486035E+03  0.00000000000E+00 0. -1.
        -12    1    6    6    0    0  0.60635723032E+02  0.10944035600E+03  0.42425619276E+03  0.44232024544E+03  0.00000000000E+00 0.  1.
</event>
<event>
12    1  0.8691829E-002  0.2015566E+03  0.7818608E-02  0.1149095E+00
         21   -1    0    0  501  502  0.00000000000E+00  0.00000000000E+00  0.20481151547E+03  0.20481151547E+03  0.00000000000E+00 0.  1.
         21   -1    0    0  502  503 -0.00000000000E+00 -0.00000000000E+00 -0.23728623845E+03  0.23728623845E+03  0.00000000000E+00 0.  1.
         -6    2    1    2    0  503  0.96458707176E+02  0.38979071348E+02 -0.10914630518E+03  0.22645078874E+03  0.16894790202E+03 0.  0.
        -24    2    3    3    0    0  0.53010883359E+02 -0.38638412806E+02 -0.87670699605E+02  0.13482394292E+03  0.78665515424E+02 0.  0.
          6    2    1    2  501    0 -0.96458707176E+02 -0.38979071348E+02  0.76671582202E+02  0.21564696518E+03  0.17263091229E+03 0.  0.
         24    2    5    5    0    0 -0.11507242539E+03 -0.42805505953E+02  0.10559821816E+03  0.18071914854E+03  0.80215039410E+02 0.  0.
          5    1    5    5  501    0  0.18613718211E+02  0.38264346044E+01 -0.28926635953E+02  0.34927816636E+02  0.47000000000E+01 0. -1.
        -11    1    6    6    0    0 -0.50591970426E+02 -0.40710790589E+02  0.10467806505E+02  0.65776066430E+02  0.00000000000E+00 0.  1.
         12    1    6    6    0    0 -0.64480454961E+02 -0.20947153642E+01  0.95130411651E+02  0.11494308211E+03  0.00000000000E+00 0. -1.
         -5    1    3    3    0  503  0.43447823817E+02  0.77617484155E+02 -0.21475605573E+02  0.91626845824E+02  0.47000000000E+01 0.  1.
         13    1    4    4    0    0  0.64946262218E+02 -0.35371438392E+01 -0.50728336722E+02  0.82485710939E+02  0.00000000000E+00 0. -1.
        -14    1    4    4    0    0 -0.11935378859E+02 -0.35101268967E+02 -0.36942362884E+02  0.52338231982E+02  0.00000000000E+00 0.  1.
</event>
<event>
12    1  0.8691829E-002  0.1847590E+03  0.7818608E-02  0.1163600E+00
         21   -1    0    0  503  502  0.00000000000E+00  0.00000000000E+00  0.14852985211E+04  0.14852985211E+04  0.00000000000E+00 0. -1.
         21   -1    0    0  501  503 -0.00000000000E+00 -0.00000000000E+00 -0.22878089741E+02  0.22878089741E+02  0.00000000000E+00 0. -1.
          6    2    1    2  501    0 -0.62117535978E+02 -0.19870621759E+02  0.69300280237E+03  0.71720900422E+03  0.17286538623E+03 0.  0.
         24    2    3    3    0    0 -0.53173548636E+02 -0.64305161763E+02  0.29811925818E+03  0.31970488258E+03  0.79834452083E+02 0.  0.
         -6    2    1    2    0  502  0.62117535978E+02  0.19870621759E+02  0.76941762894E+03  0.79096760657E+03  0.17138505488E+03 0.  0.
        -24    2    5    5    0    0  0.67771782429E+02  0.71909188689E+02  0.47408189719E+03  0.49099216191E+03  0.80967350842E+02 0.  0.
          5    1    3    3  501    0 -0.89439873420E+01  0.44434540003E+02  0.39488354419E+03  0.39750412164E+03  0.47000000000E+01 0. -1.
        -11    1    4    4    0    0 -0.60422400728E+02 -0.10986593866E+02  0.14815665502E+03  0.16038069142E+03  0.00000000000E+00 0.  1.
         12    1    4    4    0    0  0.72488520923E+01 -0.53318567897E+02  0.14996260316E+03  0.15932419115E+03  0.00000000000E+00 0. -1.
         -5    1    5    5    0  502 -0.56542464509E+01 -0.52038566929E+02  0.29533573175E+03  0.29997544466E+03  0.47000000000E+01 0.  1.
         13    1    6    6    0    0  0.19632192472E+02 -0.65599579060E+01  0.24461285351E+02  0.32043884128E+02  0.00000000000E+00 0. -1.
        -14    1    6    6    0    0  0.48139589956E+02  0.78469146595E+02  0.44962061184E+03  0.45894827779E+03  0.00000000000E+00 0.  1.
</event>
<event>
12    1  0.8691829E-002  0.1761961E+03  0.7818608E-02  0.1171597E+00
         21   -1    0    0  503  502  0.00000000000E+00  0.00000000000E+00  0.17454356513E+03  0.17454356513E+03  0.00000000000E+00 0. -1.
         21   -1    0    0  501  503 -0.00000000000E+00 -0.00000000000E+00 -0.32409007132E+03  0.32409007132E+03  0.00000000000E+00 0. -1.
          6    2    1    2  501    0  0.21101231347E+02  0.28527124241E+02  0.92806255185E+02  0.19914332435E+03  0.17258622149E+03 0.  0.
         24    2    3    3    0    0 -0.57394932363E+02  0.14204007018E+02  0.55971946568E+02  0.11113391749E+03  0.75643616636E+02 0.  0.
         -6    2    1    2    0  502 -0.21101231347E+02 -0.28527124241E+02 -0.24235276137E+03  0.29949031210E+03  0.17233840928E+03 0.  0.
        -24    2    5    5    0    0  0.16851020740E+02 -0.77101844452E+02 -0.17839320398E+03  0.21053643717E+03  0.79201040605E+02 0.  0.
          5    1    3    3  501    0  0.78496163709E+02  0.14323117223E+02  0.36834308617E+02  0.88009406857E+02  0.47000000000E+01 0. -1.
        -11    1    4    4    0    0 -0.72276999135E+02  0.16856627041E+02  0.60060132999E+02  0.95474237650E+02  0.00000000000E+00 0.  1.
         12    1    4    4    0    0  0.14882066772E+02 -0.26526200231E+01 -0.40881864306E+01  0.15659679840E+02  0.00000000000E+00 0. -1.
         -5    1    5    5    0  502 -0.37952252087E+02  0.48574720211E+02 -0.63959557391E+02  0.88953874923E+02  0.47000000000E+01 0.  1.
         11    1    6    6    0    0  0.35735244212E+02 -0.17681717914E+02 -0.31017611432E+02  0.50514780473E+02  0.00000000000E+00 0. -1.
        -12    1    6    6    0    0 -0.18884223471E+02 -0.59420126538E+02 -0.14737559255E+03  0.16002165670E+03  0.00000000000E+00 0.  1.
</event>
<event>
12    1  0.8691829E-002  0.1746651E+03  0.7818608E-02  0.1173362E+00
         21   -1    0    0  501  502  0.00000000000E+00  0.00000000000E+00  0.33632275740E+03  0.33632275740E+03  0.00000000000E+00 0.  1.
         21   -1    0    0  502  503 -0.00000000000E+00 -0.00000000000E+00 -0.67521570531E+03  0.67521570531E+03  0.00000000000E+00 0.  1.
         -6    2    1    2    0  503  0.29532053715E+02 -0.20688749727E+02 -0.64033500478E+03  0.66372947413E+03  0.17090269140E+03 0.  0.
        -24    2    3    3    0    0  0.44715042078E+02  0.21724537064E+02 -0.58479544818E+03  0.59206258932E+03  0.77980785825E+02 0.  0.
          6    2    1    2  501    0 -0.29532053715E+02  0.20688749727E+02  0.30144205687E+03  0.34780898858E+03  0.16971627006E+03 0.  0.
         24    2    5    5    0    0  0.24659049396E+02 -0.20105614015E+02  0.24361046923E+03  0.25854848052E+03  0.80554029262E+02 0.  0.
          5    1    5    5  501    0 -0.54191103111E+02  0.40794363743E+02  0.57831587640E+02  0.89260508057E+02  0.47000000000E+01 0. -1.
        -13    1    6    6    0    0 -0.70927766091E+01 -0.41985340851E+02  0.17226338948E+03  0.17744788441E+03  0.00000000000E+00 0.  1.
         14    1    6    6    0    0  0.31751826005E+02  0.21879726836E+02  0.71347079748E+02  0.81100596112E+02  0.00000000000E+00 0. -1.
         -5    1    3    3    0  503 -0.15182988363E+02 -0.42413286792E+02 -0.55539556592E+02  0.71666884811E+02  0.47000000000E+01 0.  1.
         13    1    4    4    0    0  0.62931997644E+02  0.15034536632E+01 -0.46323013767E+03  0.46748781497E+03  0.00000000000E+00 0. -1.
        -14    1    4    4    0    0 -0.18216955566E+02  0.20221083401E+02 -0.12156531052E+03  0.12457477435E+03  0.00000000000E+00 0.  1.
</event>
<event>
12    1  0.8691829E-002  0.4600287E+03  0.7818608E-02  0.1025170E+00
         21   -1    0    0  501  502  0.00000000000E+00  0.00000000000E+00  0.18787881535E+04  0.18787881535E+04  0.00000000000E+00 0. -1.
         21   -1    0    0  502  503 -0.00000000000E+00 -0.00000000000E+00 -0.13701803429E+03  0.13701803429E+03  0.00000000000E+00 0.  1.
         -6    2    1    2    0  503  0.38063772278E+03 -0.17977109526E+03  0.13116421828E+04  0.13899754172E+04  0.18553630949E+03 0.  0.
        -24    2    3    3    0    0  0.99846641802E+02 -0.36926479587E+02  0.55021020663E+03  0.56593114675E+03  0.78828133394E+02 0.  0.
          6    2    1    2  501    0 -0.38063772278E+03  0.17977109526E+03  0.43012793649E+03  0.62583077063E+03  0.17161406999E+03 0.  0.
         24    2    5    5    0    0 -0.31221686052E+03  0.11558933773E+03  0.40127201644E+03  0.52756853722E+03  0.80430512195E+02 0.  0.
          5    1    5    5  501    0 -0.68420862262E+02  0.64181757532E+02  0.28855920047E+02  0.98262233408E+02  0.47000000000E+01 0. -1.
        -11    1    6    6    0    0 -0.50050876654E+02  0.22700658272E+01  0.27456748405E+02  0.57132446872E+02  0.00000000000E+00 0.  1.
         12    1    6    6    0    0 -0.26216598387E+03  0.11331927190E+03  0.37381526804E+03  0.47043609035E+03  0.00000000000E+00 0. -1.
         -5    1    3    3    0  503  0.28079108098E+03 -0.14284461567E+03  0.76143197614E+03  0.82404427046E+03  0.47000000000E+01 0.  1.
         11    1    4    4    0    0  0.41057481364E+02 -0.55609009231E+02  0.24584748406E+03  0.25538023437E+03  0.00000000000E+00 0. -1.
        -12    1    4    4    0    0  0.58789160438E+02  0.18682529644E+02  0.30436272256E+03  0.31055091239E+03  0.00000000000E+00 0.  1.
</event>
<event>
12    1  0.8691829E-002  0.2190494E+03  0.7818608E-02  0.1134806E+00
         21   -1    0    0  503  502  0.00000000000E+00  0.00000000000E+00  0.39434337447E+02  0.39434337447E+02  0.00000000000E+00 0.  1.
         21   -1    0    0  501  503 -0.00000000000E+00 -0.00000000000E+00 -0.14319164297E+04  0.14319164297E+04  0.00000000000E+00 0.  1.
          6    2    1    2  501    0  0.49051752402E+02 -0.12594367829E+03 -0.98703184103E+03  0.10110462328E+04  0.17237965423E+03 0.  0.
         24    2    3    3    0    0  0.42797701951E+02 -0.12141847175E+03 -0.46505757770E+03  0.48899373334E+03  0.79134266264E+02 0.  0.
         -6    2    1    2    0  502 -0.49051752402E+02  0.12594367829E+03 -0.40545025123E+03  0.46030453432E+03  0.17094582060E+03 0.  0.
        -24    2    5    5    0    0 -0.77570832442E+02  0.14539401496E+03 -0.33580185423E+03  0.38242871826E+03  0.79575031357E+02 0.  0.
          5    1    3    3  501    0  0.62540504502E+01 -0.45252065487E+01 -0.52197426333E+03  0.52205249949E+03  0.47000000000E+01 0. -1.
        -13    1    4    4    0    0 -0.55896371438E+01 -0.27791900353E+02 -0.22554078660E+03  0.22731537605E+03  0.00000000000E+00 0.  1.
         14    1    4    4    0    0  0.48387339095E+02 -0.93626571393E+02 -0.23951679110E+03  0.26167835729E+03  0.00000000000E+00 0. -1.
         -5    1    5    5    0  502  0.28519080040E+02 -0.19450336667E+02 -0.69648396994E+02  0.77875816058E+02  0.47000000000E+01 0.  1.
         11    1    6    6    0    0 -0.40245351109E+02  0.60276021143E+02 -0.23219290808E+03  0.24324151285E+03  0.00000000000E+00 0. -1.
        -12    1    6    6    0    0 -0.37325481332E+02  0.85117993819E+02 -0.10360894615E+03  0.13918720541E+03  0.00000000000E+00 0.  1.
</event>
<event>
12    1  0.8691829E-002  0.1869366E+03  0.7818608E-02  0.1161387E+00
         21   -1    0    0  501  502  0.00000000000E+00  0.00000000000E+00  0.49048207645E+02  0.49048207645E+02  0.00000000000E+00 0. -1.
         21   -1    0    0  502  503 -0.00000000000E+00 -0.00000000000E+00 -0.92936794490E+03  0.92936794490E+03  0.00000000000E+00 0. -1.
         -6    2    1    2    0  503  0.51530784685E+02  0.52133540330E+02 -0.67717035872E+03  0.70234555757E+03  0.17133668526E+03 0.  0.
        -24    2    3    3    0    0 -0.28177213238E+02  0.47237345133E+02 -0.47615948922E+03  0.48600139353E+03  0.80275607837E+02 0.  0.
          6    2    1    2  501    0 -0.51530784685E+02 -0.52133540330E+02 -0.20314937853E+03  0.27607059497E+03  0.17196504183E+03 0.  0.
         24    2    5    5    0    0 -0.93673817565E+02 -0.54318463963E+02 -0.18739312228E+03  0.23078087513E+03  0.80114608060E+02 0.  0.
          5    1    5    5  501    0  0.42143032881E+02  0.21849236336E+01 -0.15756256253E+02  0.45289719835E+02  0.47000000000E+01 0. -1.
        -13    1    6    6    0    0 -0.27861704545E+02  0.14413857726E+02 -0.17160153750E+02  0.35756184800E+02  0.00000000000E+00 0.  1.
         14    1    6    6    0    0 -0.65812113021E+02 -0.68732321690E+02 -0.17023296853E+03  0.19502469033E+03  0.00000000000E+00 0. -1.
         -5    1    3    3    0  503  0.79707997923E+02  0.48961951966E+01 -0.20101086950E+03  0.21634416405E+03  0.47000000000E+01 0.  1.
         11    1    4    4    0    0 -0.31217390271E+02 -0.12315823818E+02 -0.24440928689E+03  0.24670246146E+03  0.00000000000E+00 0. -1.
        -12    1    4    4    0    0  0.30401770326E+01  0.59553168951E+02 -0.23175020233E+03  0.23929893207E+03  0.00000000000E+00 0.  1.
</event>
<event>
12    1  0.8691829E-002  0.1835269E+03  0.7818608E-02  0.1167946E+00
         21   -1    0    0  503  502  0.00000000000E+00  0.00000000000E+00  0.12930225093E+03  0.12930225093E+03  0.00000000000E+00 0. -1.
         21   -1    0    0  501  503 -0.00000000000E+00 -0.00000000000E+00 -0.30899314947E+03  0.30899314947E+03  0.00000000000E+00 0.  1.
          6    2    1    2  501    0  0.28822355464E+02 -0.19619549708E+01 -0.19568006509E+03  0.26827749452E+03  0.18123892725E+03 0.  0.
         24    2    3    3    0    0 -0.28585255259E+02  0.55469885955E+02 -0.94038882572E+02  0.13809658154E+03  0.79582217435E+02 0.  0.
         -6    2    1    2    0  502 -0.28822355464E+02  0.19619549708E+01  0.15989166553E+02  0.17001790588E+03  0.16678086650E+03 0.  0.
        -24    2    5    5    0    0  0.37992782437E+01 -0.95154632373E+01  0.69532276772E+02  0.10610502168E+03  0.79489367571E+02 0.  0.
          5    1    3    3  501    0  0.57407610724E+02 -0.57431840926E+02 -0.10164118252E+03  0.13018091298E+03  0.47000000000E+01 0. -1.
        -11    1    4    4    0    0 -0.11776560229E+02 -0.61880119668E+01 -0.67665084485E+02  0.68960441713E+02  0.00000000000E+00 0.  1.
         12    1    4    4    0    0 -0.16808695031E+02  0.61657897921E+02 -0.26373798087E+02  0.69136139828E+02  0.00000000000E+00 0. -1.
         -5    1    5    5    0  502 -0.32621633708E+02  0.11477418208E+02 -0.53543110219E+02  0.63912884197E+02  0.47000000000E+01 0.  1.
         13    1    6    6    0    0  0.19695906169E+02 -0.19780491701E+02 -0.57336096381E+01  0.28496856866E+02  0.00000000000E+00 0. -1.
        -14    1    6    6    0    0 -0.15896627925E+02  0.10265028464E+02  0.75265886410E+02  0.77608164814E+02  0.00000000000E+00 0.  1.
</event>
<event>
12    1  0.8691829E-002  0.1833425E+03  0.7818608E-02  0.1164913E+00
         21   -1    0    0  503  502  0.00000000000E+00  0.00000000000E+00  0.29368675892E+03  0.29368675892E+03  0.00000000000E+00 0.  1.
         21   -1    0    0  501  503 -0.00000000000E+00 -0.00000000000E+00 -0.26941071709E+03  0.26941071709E+03  0.00000000000E+00 0.  1.
          6    2    1    2  501    0 -0.44446556001E+02  0.37009136464E+02 -0.20192101809E+03  0.27273902592E+03  0.17398076384E+03 0.  0.
         24    2    3    3    0    0 -0.71773275070E+02 -0.30125401428E+02 -0.11118793672E+03  0.15651347877E+03  0.77940804076E+02 0.  0.
         -6    2    1    2    0  502  0.44446556001E+02 -0.37009136464E+02  0.22619705993E+03  0.29035845010E+03  0.17262023955E+03 0.  0.
        -24    2    5    5    0    0 -0.12475488245E+02  0.21405349763E+02  0.20623836661E+02  0.69146308826E+02  0.61172237005E+02 0.  0.
          5    1    3    3  501    0  0.27326719069E+02  0.67134537892E+02 -0.90733081378E+02  0.11622554715E+03  0.47000000000E+01 0. -1.
        -11    1    4    4    0    0 -0.43741891223E+02  0.10115977070E+02 -0.94649414965E+02  0.10475780540E+03  0.00000000000E+00 0.  1.
         12    1    4    4    0    0 -0.28031383847E+02 -0.40241378499E+02 -0.16538521751E+02  0.51755673366E+02  0.00000000000E+00 0. -1.
         -5    1    5    5    0  502  0.56922044246E+02 -0.58414486227E+02  0.20557322327E+03  0.22121214127E+03  0.47000000000E+01 0.  1.
         13    1    6    6    0    0 -0.10288282819E+02 -0.17272414068E+02  0.22735263615E+02  0.30349254731E+02  0.00000000000E+00 0. -1.
        -14    1    6    6    0    0 -0.21872054262E+01  0.38677763832E+02 -0.21114269547E+01  0.38797054094E+02  0.00000000000E+00 0.  1.
</event>
<event>
12    1  0.8691829E-002  0.2009351E+03  0.7818608E-02  0.1149131E+00
         21   -1    0    0  501  502  0.00000000000E+00  0.00000000000E+00  0.17812000374E+03  0.17812000374E+03  0.00000000000E+00 0. -1.
         21   -1    0    0  502  503 -0.00000000000E+00 -0.00000000000E+00 -0.26554890935E+03  0.26554890935E+03  0.00000000000E+00 0. -1.
         -6    2    1    2    0  503  0.63337913063E+02 -0.80571466308E+02 -0.12955287437E+03  0.23836588864E+03  0.17184556205E+03 0.  0.
        -24    2    3    3    0    0  0.10811953307E+03 -0.90486046368E+02 -0.84873618973E+02  0.17416294283E+03  0.57023165807E+02 0.  0.
          6    2    1    2  501    0 -0.63337913063E+02  0.80571466308E+02  0.42123968749E+02  0.20530302445E+03  0.17283359248E+03 0.  0.
         24    2    5    5    0    0 -0.59511130129E+02  0.12230657773E+03  0.53246449890E+02  0.16168808000E+03  0.69335252381E+02 0.  0.
          5    1    5    5  501    0 -0.38267829344E+01 -0.41735111419E+02 -0.11122481140E+02  0.43614944451E+02  0.47000000000E+01 0. -1.
        -11    1    6    6    0    0 -0.27291021968E+02  0.26344099092E+01  0.17260491647E+01  0.27472153926E+02  0.00000000000E+00 0.  1.
         12    1    6    6    0    0 -0.32220108161E+02  0.11967216782E+03  0.51520400725E+02  0.13421592607E+03  0.00000000000E+00 0. -1.
         -5    1    3    3    0  503 -0.44781620007E+02  0.99145800602E+01 -0.44679255395E+02  0.64202945812E+02  0.47000000000E+01 0.  1.
         13    1    4    4    0    0  0.11290917639E+02 -0.24167911352E+02  0.39652750111E+01  0.26968429063E+02  0.00000000000E+00 0. -1.
        -14    1    4    4    0    0  0.96828615432E+02 -0.66318135016E+02 -0.88838893984E+02  0.14719451377E+03  0.00000000000E+00 0.  1.
</event>
<event>
12    1  0.8691829E-002  0.3550522E+03  0.7818608E-02  0.1061197E+00
         21   -1    0    0  501  502  0.00000000000E+00  0.00000000000E+00  0.34948845015E+03  0.34948845015E+03  0.00000000000E+00 0.  1.
         21   -1    0    0  502  503 -0.00000000000E+00 -0.00000000000E+00 -0.35897800225E+03  0.35897800225E+03  0.00000000000E+00 0. -1.
         -6    2    1    2    0  503  0.30481851254E+03  0.20893477365E+02 -0.44823659140E+02  0.35166037343E+03  0.16824088338E+03 0.  0.
        -24    2    3    3    0    0  0.28866902658E+03  0.56823068403E+02 -0.21915852987E+02  0.30584990529E+03  0.80654770109E+02 0.  0.
          6    2    1    2  501    0 -0.30481851254E+03 -0.20893477365E+02  0.35334107044E+02  0.35680607897E+03  0.18086242253E+03 0.  0.
         24    2    5    5    0    0 -0.19138243274E+03  0.33308746664E+02 -0.33929372472E+02  0.21319150838E+03  0.81010547231E+02 0.  0.
          5    1    5    5  501    0 -0.11343607980E+03 -0.54202224029E+02  0.69263479517E+02  0.14361457059E+03  0.47000000000E+01 0. -1.
        -13    1    6    6    0    0 -0.16240985440E+03  0.59439521235E+01 -0.26678294296E+01  0.16254048322E+03  0.00000000000E+00 0.  1.
         14    1    6    6    0    0 -0.28972578345E+02  0.27364794540E+02 -0.31261543043E+02  0.50651025159E+02  0.00000000000E+00 0. -1.
         -5    1    3    3    0  503  0.16149485958E+02 -0.35929591037E+02 -0.22907806152E+02  0.45810468144E+02  0.47000000000E+01 0.  1.
         11    1    4    4    0    0  0.11316990625E+03  0.59049829893E+02 -0.26085065241E+02  0.13028714718E+03  0.00000000000E+00 0. -1.
        -12    1    4    4    0    0  0.17549912034E+03 -0.22267614900E+01  0.41692122536E+01  0.17556275811E+03  0.00000000000E+00 0.  1.
</event>
<event>
12    1  0.8691829E-002  0.2004444E+03  0.7818608E-02  0.1149551E+00
         21   -1    0    0  501  502  0.00000000000E+00  0.00000000000E+00  0.69988744070E+02  0.69988744070E+02  0.00000000000E+00 0.  1.
         21   -1    0    0  502  503 -0.00000000000E+00 -0.00000000000E+00 -0.57510733747E+03  0.57510733747E+03  0.00000000000E+00 0.  1.
         -6    2    1    2    0  503  0.96360135024E+02 -0.37253523255E+02 -0.27855377096E+03  0.34317660205E+03  0.17176983512E+03 0.  0.
        -24    2    3    3    0    0  0.33774064737E+02 -0.67857915064E+02 -0.24180141300E+03  0.26426861254E+03  0.74997281019E+02 0.  0.
          6    2    1    2  501    0 -0.96360135024E+02  0.37253523255E+02 -0.22656482244E+03  0.30191947949E+03  0.17073562228E+03 0.  0.
         24    2    5    5    0    0 -0.93869197877E+02 -0.18652964674E+02 -0.85562387571E+02  0.15014492036E+03  0.77866652317E+02 0.  0.
          5    1    5    5  501    0 -0.24909371476E+01  0.55906487929E+02 -0.14100243487E+03  0.15177455913E+03  0.47000000000E+01 0. -1.
        -13    1    6    6    0    0 -0.97244578741E+02 -0.53360348547E+01 -0.92879920208E+02  0.13457957104E+03  0.00000000000E+00 0.  1.
         14    1    6    6    0    0  0.33753808643E+01 -0.13316929819E+02  0.73175326373E+01  0.15565349327E+02  0.00000000000E+00 0. -1.
         -5    1    3    3    0  503  0.62586070287E+02  0.30604391809E+02 -0.36752357965E+02  0.78907989507E+02  0.47000000000E+01 0.  1.
         11    1    4    4    0    0 -0.74691173632E+01 -0.23847568901E+02 -0.14055868424E+02  0.28671618263E+02  0.00000000000E+00 0. -1.
        -12    1    4    4    0    0  0.41243182100E+02 -0.44010346163E+02 -0.22774554457E+03  0.23559699428E+03  0.00000000000E+00 0.  1.
</event>
<event>
12    1  0.8691829E-002  0.2249767E+03  0.7818608E-02  0.1132198E+00
         21   -1    0    0  501  502  0.00000000000E+00  0.00000000000E+00  0.11312288892E+03  0.11312288892E+03  0.00000000000E+00 0.  1.
         21   -1    0    0  502  503 -0.00000000000E+00 -0.00000000000E+00 -0.46396891117E+03  0.46396891117E+03  0.00000000000E+00 0.  1.
         -6    2    1    2    0  503 -0.17022003447E+02  0.12655186186E+03 -0.25342213164E+03  0.33192666084E+03  0.17218422991E+03 0.  0.
        -24    2    3    3    0    0 -0.72541992609E+02  0.46741649578E+02 -0.15118137533E+03  0.19076221265E+03  0.78021093507E+02 0.  0.
          6    2    1    2  501    0  0.17022003447E+02 -0.12655186186E+03 -0.97423890605E+02  0.24516513925E+03  0.18522799114E+03 0.  0.
         24    2    5    5    0    0 -0.14347373785E+02 -0.45982282246E+01 -0.87933923264E+02  0.11879712088E+03  0.78443548063E+02 0.  0.
          5    1    5    5  501    0  0.31369377232E+02 -0.12195363364E+03 -0.94899673419E+01  0.12636801837E+03  0.47000000000E+01 0. -1.
        -11    1    6    6    0    0 -0.38448396366E+02 -0.21115496616E+02 -0.74909777067E+02  0.86807937890E+02  0.00000000000E+00 0.  1.
         12    1    6    6    0    0  0.24101022581E+02  0.16517268391E+02 -0.13024146197E+02  0.31989182995E+02  0.00000000000E+00 0. -1.
         -5    1    3    3    0  503  0.55519989161E+02  0.79810212287E+02 -0.10224075631E+03  0.14116444819E+03  0.47000000000E+01 0.  1.
         13    1    4    4    0    0 -0.28283231610E+02 -0.19425701011E+02 -0.64602514838E+02  0.73149053128E+02  0.00000000000E+00 0. -1.
        -14    1    4    4    0    0 -0.44258760999E+02  0.66167350588E+02 -0.86578860491E+02  0.11761315952E+03  0.00000000000E+00 0.  1.
</event>
<event>
12    1  0.8691829E-002  0.1806688E+03  0.7818608E-02  0.1167166E+00
         21   -1    0    0  503  502  0.00000000000E+00  0.00000000000E+00  0.57725159867E+03  0.57725159867E+03  0.00000000000E+00 0.  1.
         21   -1    0    0  501  503 -0.00000000000E+00 -0.00000000000E+00 -0.30865453866E+03  0.30865453866E+03  0.00000000000E+00 0.  1.
          6    2    1    2  501    0  0.89286709699E+01 -0.54592021353E+02 -0.26603993576E+03  0.32156764000E+03  0.17195490605E+03 0.  0.
         24    2    3    3    0    0  0.41846690974E+02 -0.64906022589E+02 -0.26499614276E+03  0.28673727729E+03  0.77661916008E+02 0.  0.
         -6    2    1    2    0  502 -0.89286709699E+01  0.54592021353E+02  0.53463699577E+03  0.56433849733E+03  0.17199189620E+03 0.  0.
        -24    2    5    5    0    0 -0.17245570519E+02  0.91594164667E+02  0.26832627984E+03  0.29529980708E+03  0.80722257826E+02 0.  0.
          5    1    3    3  501    0 -0.32918020004E+02  0.10314001237E+02 -0.10437930029E+01  0.34830362707E+02  0.47000000000E+01 0. -1.
        -13    1    4    4    0    0  0.17941419352E+02 -0.54885450178E+01 -0.17651331593E+03  0.17750765999E+03  0.00000000000E+00 0.  1.
         14    1    4    4    0    0  0.23905271622E+02 -0.59417477571E+02 -0.88482826830E+02  0.10922961730E+03  0.00000000000E+00 0. -1.
         -5    1    5    5    0  502  0.83168995493E+01 -0.37002143314E+02  0.26631071594E+03  0.26903869025E+03  0.47000000000E+01 0.  1.
         13    1    6    6    0    0  0.29351172232E+02  0.13816589779E+02  0.78170358180E+02  0.84634475024E+02  0.00000000000E+00 0. -1.
        -14    1    6    6    0    0 -0.46596742751E+02  0.77777574888E+02  0.19015592166E+03  0.21066533206E+03  0.00000000000E+00 0.  1.
</event>
<event>
12    1  0.8691829E-002  0.2222577E+03  0.7818608E-02  0.1132727E+00
         21   -1    0    0  503  502  0.00000000000E+00  0.00000000000E+00  0.69204395355E+03  0.69204395355E+03  0.00000000000E+00 0. -1.
         21   -1    0    0  501  503 -0.00000000000E+00 -0.00000000000E+00 -0.13292046020E+03  0.13292046020E+03  0.00000000000E+00 0. -1.
          6    2    1    2  501    0 -0.13811328881E+03  0.26932209340E+02 -0.40621903524E+01  0.21950870205E+03  0.16842489258E+03 0.  0.
         24    2    3    3    0    0 -0.15563480436E+03  0.57706089166E+02  0.14648712469E+01  0.18336076163E+03  0.77889909487E+02 0.  0.
         -6    2    1    2    0  502  0.13811328881E+03 -0.26932209340E+02  0.56318568371E+03  0.60545571169E+03  0.17204034424E+03 0.  0.
        -24    2    5    5    0    0  0.15855798167E+03 -0.36163836135E+02  0.54755176751E+03  0.57771192436E+03  0.86542896047E+02 0.  0.
          5    1    3    3  501    0  0.17521515557E+02 -0.30773879827E+02 -0.55270615993E+01  0.36147940424E+02  0.47000000000E+01 0. -1.
        -13    1    4    4    0    0  0.63545586513E+01  0.63602159257E+01 -0.94940734106E+01  0.13075557051E+02  0.00000000000E+00 0.  1.
         14    1    4    4    0    0 -0.16198936302E+03  0.51345873240E+02  0.10958944658E+02  0.17028520457E+03  0.00000000000E+00 0. -1.
         -5    1    5    5    0  502 -0.20444692866E+02  0.92316267958E+01  0.15633916202E+02  0.27743787332E+02  0.47000000000E+01 0.  1.
         11    1    6    6    0    0  0.19176157617E+02 -0.35847910707E+02  0.18208358355E+03  0.18656695614E+03  0.00000000000E+00 0. -1.
        -12    1    6    6    0    0  0.13938182406E+03 -0.31592542847E+00  0.36546818395E+03  0.39114496823E+03  0.00000000000E+00 0.  1.
</event>
<event>
12    1  0.8691829E-002  0.2279445E+03  0.7818608E-02  0.1128190E+00
         21   -1    0    0  503  502  0.00000000000E+00  0.00000000000E+00  0.26552331302E+03  0.26552331302E+03  0.00000000000E+00 0. -1.
         21   -1    0    0  501  503 -0.00000000000E+00 -0.00000000000E+00 -0.19973585795E+03  0.19973585795E+03  0.00000000000E+00 0. -1.
          6    2    1    2  501    0  0.10275823482E+03 -0.10919251184E+03 -0.20224380748E+01  0.22795346739E+03  0.17168702215E+03 0.  0.
         24    2    3    3    0    0  0.61160071032E+02 -0.38991588869E+02  0.61218359094E+02  0.12460906627E+03  0.80739294116E+02 0.  0.
         -6    2    1    2    0  502 -0.10275823482E+03  0.10919251184E+03  0.67809893141E+02  0.23730570358E+03  0.17097823217E+03 0.  0.
        -24    2    5    5    0    0 -0.68522707446E+02  0.68884837079E+02 -0.26776174018E+02  0.12883730228E+03  0.80259608445E+02 0.  0.
          5    1    3    3  501    0  0.41598163789E+02 -0.70200922975E+02 -0.63240797169E+02  0.10334440112E+03  0.47000000000E+01 0. -1.
        -11    1    4    4    0    0 -0.77538899215E+01 -0.37721356290E+02  0.30606808639E+02  0.49191465361E+02  0.00000000000E+00 0.  1.
         12    1    4    4    0    0  0.68913960953E+02 -0.12702325792E+01  0.30611550455E+02  0.75417600906E+02  0.00000000000E+00 0. -1.
         -5    1    5    5    0  502 -0.34235527375E+02  0.40307674765E+02  0.94586067160E+02  0.10846840130E+03  0.47000000000E+01 0.  1.
         13    1    6    6    0    0 -0.21575900789E+02  0.66181645674E+02  0.83959172518E+01  0.70114343365E+02  0.00000000000E+00 0. -1.
        -14    1    6    6    0    0 -0.46946806657E+02  0.27031914053E+01 -0.35172091270E+02  0.58722958912E+02  0.00000000000E+00 0.  1.
</event>
<event>
12    1  0.8691829E-002  0.2607338E+03  0.7818608E-02  0.1106820E+00
         21   -1    0    0  503  502  0.00000000000E+00  0.00000000000E+00  0.39894456974E+03  0.39894456974E+03  0.00000000000E+00 0.  1.
         21   -1    0    0  501  503 -0.00000000000E+00 -0.00000000000E+00 -0.17295799662E+03  0.17295799662E+03  0.00000000000E+00 0. -1.
          6    2    1    2  501    0 -0.13101198973E+03 -0.14515223736E+03  0.15121802206E+03  0.30141170431E+03  0.17247843876E+03 0.  0.
         24    2    3    3    0    0 -0.10811130790E+03 -0.30477281066E+02  0.50839181584E+02  0.14722743649E+03  0.80463507961E+02 0.  0.
         -6    2    1    2    0  502  0.13101198973E+03  0.14515223736E+03  0.74768551067E+02  0.27049086205E+03  0.17129406517E+03 0.  0.
        -24    2    5    5    0    0  0.94155429191E+02  0.14585008572E+02  0.35971656244E+02  0.12930482756E+03  0.79673151412E+02 0.  0.
          5    1    3    3  501    0 -0.22900681830E+02 -0.11467495629E+03  0.10037884048E+03  0.15418426782E+03  0.47000000000E+01 0. -1.
        -11    1    4    4    0    0 -0.35179596688E+02 -0.72716419567E+01  0.60219302794E+02  0.70120219829E+02  0.00000000000E+00 0.  1.
         12    1    4    4    0    0 -0.72931711212E+02 -0.23205639109E+02 -0.93801212100E+01  0.77107216658E+02  0.00000000000E+00 0. -1.
         -5    1    5    5    0  502  0.36856560538E+02  0.13056722879E+03  0.38796894823E+02  0.14118603449E+03  0.47000000000E+01 0.  1.
         13    1    6    6    0    0  0.60030481920E+02  0.30971555323E+02 -0.11569869629E+02  0.68532896348E+02  0.00000000000E+00 0. -1.
        -14    1    6    6    0    0  0.34124947271E+02 -0.16386546751E+02  0.47541525874E+02  0.60771931211E+02  0.00000000000E+00 0.  1.
</event>
<event>
12    1  0.8691829E-002  0.2102729E+03  0.7818608E-02  0.1141735E+00
         21   -1    0    0  503  502  0.00000000000E+00  0.00000000000E+00  0.80721071848E+03  0.80721071848E+03  0.00000000000E+00 0.  1.
         21   -1    0    0  501  503 -0.00000000000E+00 -0.00000000000E+00 -0.16872506705E+03  0.16872506705E+03  0.00000000000E+00 0.  1.
          6    2    1    2  501    0 -0.11875180137E+03  0.17933634875E+02 -0.83130573978E+02  0.22430776931E+03  0.17023418415E+03 0.  0.
         24    2    3    3    0    0 -0.72988369830E+02 -0.32008625756E+02  0.54669673768E+01  0.11268279272E+03  0.79471188431E+02 0.  0.
         -6    2    1    2    0  502  0.11875180137E+03 -0.17933634875E+02  0.72161622541E+03  0.75162801622E+03  0.17260096294E+03 0.  0.
        -24    2    5    5    0    0 -0.66549234283E+01 -0.11777667581E+02  0.35607699797E+03  0.36509760428E+03  0.79513713964E+02 0.  0.
          5    1    3    3  501    0 -0.45763431544E+02  0.49942260631E+02 -0.88597541355E+02  0.11162497659E+03  0.47000000000E+01 0. -1.
        -13    1    4    4    0    0 -0.33663613281E+01  0.15264196199E+02 -0.19416729158E+02  0.24926641278E+02  0.00000000000E+00 0.  1.
         14    1    4    4    0    0 -0.69622008502E+02 -0.47272821956E+02  0.24883696535E+02  0.87756151447E+02  0.00000000000E+00 0. -1.
         -5    1    5    5    0  502  0.12540672480E+03 -0.61559672936E+01  0.36553922744E+03  0.38653041194E+03  0.47000000000E+01 0.  1.
         13    1    6    6    0    0 -0.75067971760E+01  0.16383734081E+02  0.16752286986E+02  0.24605240611E+02  0.00000000000E+00 0. -1.
        -14    1    6    6    0    0  0.85187374762E+00 -0.28161401662E+02  0.33932471098E+03  0.34049236367E+03  0.00000000000E+00 0.  1.
</event>
<event>
12    1  0.8691829E-002  0.1761037E+03  0.7818608E-02  0.1171653E+00
         21   -1    0    0  503  502  0.00000000000E+00  0.00000000000E+00  0.76111382718E+02  0.76111382718E+02  0.00000000000E+00 0.  1.
         21   -1    0    0  501  503 -0.00000000000E+00 -0.00000000000E+00 -0.68418497931E+03  0.68418497931E+03  0.00000000000E+00 0.  1.
          6    2    1    2  501    0 -0.20817397463E+02 -0.22041466765E+02 -0.54595034045E+03  0.57364997157E+03  0.17347427863E+03 0.  0.
         24    2    3    3    0    0 -0.51764173647E+02 -0.56411106828E+02 -0.24216086247E+03  0.26632422900E+03  0.80155904287E+02 0.  0.
         -6    2    1    2    0  502  0.20817397463E+02  0.22041466765E+02 -0.62123256142E+02  0.18664639046E+03  0.17337354419E+03 0.  0.
        -24    2    5    5    0    0  0.76166891435E+02 -0.31801687116E+01 -0.30578871758E+02  0.11796716824E+03  0.84673942626E+02 0.  0.
          5    1    3    3  501    0  0.30946776185E+02  0.34369640063E+02 -0.30378947798E+03  0.30732574257E+03  0.47000000000E+01 0. -1.
        -13    1    4    4    0    0  0.82829344448E+01 -0.43403555857E+02 -0.63235415781E+02  0.77143978852E+02  0.00000000000E+00 0.  1.
         14    1    4    4    0    0 -0.60047108092E+02 -0.13007550971E+02 -0.17892544669E+03  0.18918025014E+03  0.00000000000E+00 0. -1.
         -5    1    5    5    0  502 -0.55349493972E+02  0.25221635477E+02 -0.31544384384E+02  0.68679222224E+02  0.47000000000E+01 0.  1.
         11    1    6    6    0    0  0.96253793626E+01  0.12419392860E+02 -0.45392098990E+02  0.48034694727E+02  0.00000000000E+00 0. -1.
        -12    1    6    6    0    0  0.66541512072E+02 -0.15599561572E+02  0.14813227231E+02  0.69932473509E+02  0.00000000000E+00 0.  1.
</event>
<event>
12    1  0.8691829E-002  0.1827810E+03  0.7818608E-02  0.1167008E+00
         21   -1    0    0  501  502  0.00000000000E+00  0.00000000000E+00  0.68774949273E+02  0.68774949273E+02  0.00000000000E+00 0. -1.
         21   -1    0    0  502  503 -0.00000000000E+00 -0.00000000000E+00 -0.85057435088E+03  0.85057435088E+03  0.00000000000E+00 0. -1.
         -6    2    1    2    0  503  0.44324307583E+02 -0.33744185893E+02 -0.70474770071E+03  0.72806470271E+03  0.17408496589E+03 0.  0.
        -24    2    3    3    0    0  0.21783467753E+02 -0.27926274340E+01 -0.67419147769E+03  0.67885229374E+03  0.76314938847E+02 0.  0.
          6    2    1    2  501    0 -0.44324307583E+02  0.33744185893E+02 -0.77051700899E+02  0.19128459745E+03  0.16598047561E+03 0.  0.
         24    2    5    5    0    0 -0.98634713837E+01  0.73819577147E+02 -0.83606903095E+02  0.13781828196E+03  0.80356372243E+02 0.  0.
          5    1    5    5  501    0 -0.34460836199E+02 -0.40075391254E+02  0.65552021965E+01  0.53466315485E+02  0.47000000000E+01 0. -1.
        -11    1    6    6    0    0 -0.44066747498E+02  0.55149036784E+02 -0.53480810972E+02  0.88563489291E+02  0.00000000000E+00 0.  1.
         12    1    6    6    0    0  0.34203276115E+02  0.18670540363E+02 -0.30126092123E+02  0.49254792671E+02  0.00000000000E+00 0. -1.
         -5    1    3    3    0  503  0.22540839830E+02 -0.30951558459E+02 -0.30556223027E+02  0.49212408973E+02  0.47000000000E+01 0.  1.
         13    1    4    4    0    0 -0.16931724151E+02  0.22988278151E+02 -0.15712088542E+03  0.15969382221E+03  0.00000000000E+00 0. -1.
        -14    1    4    4    0    0  0.38715191904E+02 -0.25780905585E+02 -0.51707059226E+03  0.51915847153E+03  0.00000000000E+00 0.  1.
</event>
<event>
12    1  0.8691829E-002  0.3425440E+03  0.7818608E-02  0.1065772E+00
         21   -1    0    0  503  502  0.00000000000E+00  0.00000000000E+00  0.12972470155E+03  0.12972470155E+03  0.00000000000E+00 0. -1.
         21   -1    0    0  501  503 -0.00000000000E+00 -0.00000000000E+00 -0.97817854835E+03  0.97817854835E+03  0.00000000000E+00 0.  1.
          6    2    1    2  501    0  0.22117932353E+03  0.19729846864E+03 -0.57736419362E+03  0.67106693479E+03  0.17068813668E+03 0.  0.
         24    2    3    3    0    0  0.31644910034E+02  0.65471101287E+02 -0.21070430423E+03  0.23775029171E+03  0.82710531074E+02 0.  0.
         -6    2    1    2    0  502 -0.22117932353E+03 -0.19729846864E+03 -0.27108965317E+03  0.43683631511E+03  0.17172474271E+03 0.  0.
        -24    2    5    5    0    0 -0.22814989453E+03 -0.21214457571E+03 -0.26945819902E+03  0.41969725452E+03  0.80500739449E+02 0.  0.
          5    1    3    3  501    0  0.18953441349E+03  0.13182736735E+03 -0.36665988939E+03  0.43331664308E+03  0.47000000000E+01 0. -1.
        -13    1    4    4    0    0 -0.71413557976E+01  0.65807493081E+02 -0.16513861062E+03  0.17791117397E+03  0.00000000000E+00 0.  1.
         14    1    4    4    0    0  0.38786265832E+02 -0.33639179415E+00 -0.45565693617E+02  0.59839117736E+02  0.00000000000E+00 0. -1.
         -5    1    5    5    0  502  0.69705710049E+01  0.14846107074E+02 -0.16314541552E+01  0.17139060594E+02  0.47000000000E+01 0.  1.
         11    1    6    6    0    0 -0.82321638634E+01  0.40106960394E+01 -0.23619470445E+02  0.25332461166E+02  0.00000000000E+00 0. -1.
        -12    1    6    6    0    0 -0.21991773067E+03 -0.21615527175E+03 -0.24583872857E+03  0.39436479335E+03  0.00000000000E+00 0.  1.
</event>
<event>
12    1  0.8691829E-002  0.2308885E+03  0.7818608E-02  0.1126208E+00
         21   -1    0    0  501  502  0.00000000000E+00  0.00000000000E+00  0.16299421629E+03  0.16299421629E+03  0.00000000000E+00 0.  1.
         21   -1    0    0  502  503 -0.00000000000E+00 -0.00000000000E+00 -0.62435366555E+03  0.62435366555E+03  0.00000000000E+00 0.  1.
         -6    2    1    2    0  503  0.13353009316E+03  0.76636996666E+02 -0.50275047174E+03  0.55277863662E+03  0.17059504457E+03 0.  0.
        -24    2    3    3    0    0  0.36904170622E+02 -0.25118340159E+02 -0.18603744249E+03  0.20633968042E+03  0.77287029213E+02 0.  0.
          6    2    1    2  501    0 -0.13353009316E+03 -0.76636996666E+02  0.41391022484E+02  0.23456924522E+03  0.17206393877E+03 0.  0.
         24    2    5    5    0    0 -0.53807511191E+02  0.93511817469E+01  0.63358685973E+02  0.11517776671E+03  0.79176397964E+02 0.  0.
          5    1    5    5  501    0 -0.79722581971E+02 -0.85988178413E+02 -0.21967663489E+02  0.11939147852E+03  0.47000000000E+01 0. -1.
        -13    1    6    6    0    0 -0.39087845011E+02 -0.25866627217E+02  0.74173171205E+01  0.47454806126E+02  0.00000000000E+00 0.  1.
         14    1    6    6    0    0 -0.14719666180E+02  0.35217808964E+02  0.55941368853E+02  0.67722960580E+02  0.00000000000E+00 0. -1.
         -5    1    3    3    0  503  0.96625922540E+02  0.10175533682E+03 -0.31671302925E+03  0.34643895621E+03  0.47000000000E+01 0.  1.
         11    1    4    4    0    0 -0.19618177613E+02 -0.66005535602E+01 -0.15886490922E+02  0.26092542880E+02  0.00000000000E+00 0. -1.
        -12    1    4    4    0    0  0.56522348235E+02 -0.18517786599E+02 -0.17015095157E+03  0.18024713754E+03  0.00000000000E+00 0.  1.
</event>
<event>
12    1  0.8691829E-002  0.2213731E+03  0.7818608E-02  0.1132981E+00
         21   -1    0    0  501  502  0.00000000000E+00  0.00000000000E+00  0.12198900787E+04  0.12198900787E+04  0.00000000000E+00 0. -1.
         21   -1    0    0  502  503 -0.00000000000E+00 -0.00000000000E+00 -0.44150439310E+02  0.44150439310E+02  0.00000000000E+00 0. -1.
         -6    2    1    2    0  503 -0.13677015822E+03 -0.26733217749E+02  0.39466166836E+03  0.45219763626E+03  0.17118448720E+03 0.  0.
        -24    2    3    3    0    0 -0.11774326653E+02 -0.44030708725E+02  0.20080011507E+03  0.22083741292E+03  0.79819412747E+02 0.  0.
          6    2    1    2  501    0  0.13677015822E+03  0.26733217749E+02  0.78107797099E+03  0.81184288171E+03  0.17200385665E+03 0.  0.
         24    2    5    5    0    0  0.13751300350E+03 -0.28944289106E+02  0.50887937784E+03  0.53396754869E+03  0.80096965331E+02 0.  0.
          5    1    5    5  501    0 -0.74284527970E+00  0.55677506855E+02  0.27219859315E+03  0.27787533302E+03  0.47000000000E+01 0. -1.
        -11    1    6    6    0    0 -0.10617938631E+02  0.83589221056E+00  0.34521111882E+02  0.36126811403E+02  0.00000000000E+00 0.  1.
         12    1    6    6    0    0  0.14813094213E+03 -0.29780181317E+02  0.47435826596E+03  0.49784073728E+03  0.00000000000E+00 0. -1.
         -5    1    3    3    0  503 -0.12499583157E+03  0.17297490977E+02  0.19386155329E+03  0.23136022335E+03  0.47000000000E+01 0.  1.
         11    1    4    4    0    0 -0.23723963568E+02  0.16963329458E+02  0.52869960118E+02  0.60380573669E+02  0.00000000000E+00 0. -1.
        -12    1    4    4    0    0  0.11949636916E+02 -0.60994038184E+02  0.14793015495E+03  0.16045683925E+03  0.00000000000E+00 0.  1.
</event>
<event>
12    1  0.8691829E-002  0.1835107E+03  0.7818608E-02  0.1164471E+00
         21   -1    0    0  501  502  0.00000000000E+00  0.00000000000E+00  0.10025575055E+03  0.10025575055E+03  0.00000000000E+00 0. -1.
         21   -1    0    0  502  503 -0.00000000000E+00 -0.00000000000E+00 -0.36569031169E+03  0.36569031169E+03  0.00000000000E+00 0.  1.
         -6    2    1    2    0  503 -0.52038537665E+02  0.35525403765E+02 -0.19943831077E+03  0.27101998627E+03  0.17235466178E+03 0.  0.
        -24    2    3    3    0    0 -0.37411169256E+02  0.78498276205E+02 -0.19184846969E+03  0.22475635736E+03  0.78409246256E+02 0.  0.
          6    2    1    2  501    0  0.52038537665E+02 -0.35525403765E+02 -0.65996250375E+02  0.19492607597E+03  0.17225157856E+03 0.  0.
         24    2    5    5    0    0  0.64901079193E+02  0.29387014074E+02 -0.70124679739E+02  0.12845652736E+03  0.80671321023E+02 0.  0.
          5    1    5    5  501    0 -0.12862541528E+02 -0.64912417839E+02  0.41284293647E+01  0.66469548616E+02  0.47000000000E+01 0. -1.
        -11    1    6    6    0    0  0.19824896039E+02 -0.28058363358E+02 -0.18394240986E+02  0.38969813429E+02  0.00000000000E+00 0.  1.
         12    1    6    6    0    0  0.45076183155E+02  0.57445377432E+02 -0.51730438754E+02  0.89486713928E+02  0.00000000000E+00 0. -1.
         -5    1    3    3    0  503 -0.14627368410E+02 -0.42972872440E+02 -0.75898410828E+01  0.46263628911E+02  0.47000000000E+01 0.  1.
         11    1    4    4    0    0  0.15514097849E+02 -0.57950481036E+01 -0.18210117025E+02  0.24614592758E+02  0.00000000000E+00 0. -1.
        -12    1    4    4    0    0 -0.52925267104E+02  0.84293324309E+02 -0.17363835266E+03  0.20014176460E+03  0.00000000000E+00 0.  1.
</event>
<event>
12    1  0.8691829E-002  0.2294560E+03  0.7818608E-02  0.1128378E+00
         21   -1    0    0  503  502  0.00000000000E+00  0.00000000000E+00  0.26492265025E+03  0.26492265025E+03  0.00000000000E+00 0. -1.
         21   -1    0    0  501  503 -0.00000000000E+00 -0.00000000000E+00 -0.20877296443E+03  0.20877296443E+03  0.00000000000E+00 0. -1.
          6    2    1    2  501    0 -0.13381110564E+03  0.39370399708E+02 -0.38956112707E+02  0.22531044862E+03  0.17260295240E+03 0.  0.
         24    2    3    3    0    0 -0.36120732713E+02  0.73647696472E+02 -0.41112378636E+02  0.12165196359E+03  0.79876667693E+02 0.  0.
         -6    2    1    2    0  502  0.13381110564E+03 -0.39370399708E+02  0.95105798521E+02  0.24838516605E+03  0.18219395555E+03 0.  0.
        -24    2    5    5    0    0  0.10541497762E+03 -0.85306742856E+02  0.22270284516E+02  0.15759094923E+03  0.77132248923E+02 0.  0.
          5    1    3    3  501    0 -0.97690372926E+02 -0.34277296764E+02  0.21562659293E+01  0.10365848503E+03  0.47000000000E+01 0. -1.
        -11    1    4    4    0    0 -0.83798746895E+01  0.55643371202E+02  0.13444010366E+02  0.57854545831E+02  0.00000000000E+00 0.  1.
         12    1    4    4    0    0 -0.27740858024E+02  0.18004325270E+02 -0.54556389002E+02  0.63797417764E+02  0.00000000000E+00 0. -1.
         -5    1    5    5    0  502  0.28396128021E+02  0.45936343148E+02  0.72835514005E+02  0.90794216824E+02  0.47000000000E+01 0.  1.
         13    1    6    6    0    0  0.57499370141E+02 -0.11912623123E+01  0.19561715333E+02  0.60747488666E+02  0.00000000000E+00 0. -1.
        -14    1    6    6    0    0  0.47915607478E+02 -0.84115480544E+02  0.27085691830E+01  0.96843460564E+02  0.00000000000E+00 0.  1.
</event>
<event>
12    1  0.8691829E-002  0.1843970E+03  0.7818608E-02  0.1164367E+00
         21   -1    0    0  501  502  0.00000000000E+00  0.00000000000E+00  0.17549591083E+03  0.17549591083E+03  0.00000000000E+00 0.  1.
         21   -1    0    0  502  503 -0.00000000000E+00 -0.00000000000E+00 -0.20800219174E+03  0.20800219174E+03  0.00000000000E+00 0.  1.
         -6    2    1    2    0  503 -0.67350685620E+02 -0.11789499110E+02  0.39623779333E+02  0.18549554586E+03  0.16781968449E+03 0.  0.
        -24    2    3    3    0    0 -0.61036972860E+02  0.53535270759E+02  0.22867070541E+02  0.11759808039E+03  0.81944300141E+02 0.  0.
          6    2    1    2  501    0  0.67350685620E+02  0.11789499110E+02 -0.72130060247E+02  0.19800255671E+03  0.17125174373E+03 0.  0.
         24    2    5    5    0    0  0.89620028072E+02  0.23981448804E+02 -0.15317278933E+01  0.12283087466E+03  0.80487379518E+02 0.  0.
          5    1    5    5  501    0 -0.22269342452E+02 -0.12191949695E+02 -0.70598332354E+02  0.75171682047E+02  0.47000000000E+01 0. -1.
        -13    1    6    6    0    0  0.65160546455E+02  0.97269793057E+01 -0.38469879111E+02  0.76291824854E+02  0.00000000000E+00 0.  1.
         14    1    6    6    0    0  0.24459481616E+02  0.14254469499E+02  0.36938151218E+02  0.46539049808E+02  0.00000000000E+00 0. -1.
         -5    1    3    3    0  503 -0.63137127598E+01 -0.65324769868E+02  0.16756708793E+02  0.67897465466E+02  0.47000000000E+01 0.  1.
         13    1    4    4    0    0 -0.75552342553E+01  0.10108700081E+02  0.43810999136E+02  0.45592444849E+02  0.00000000000E+00 0. -1.
        -14    1    4    4    0    0 -0.53481738605E+02  0.43426570677E+02 -0.20943928595E+02  0.72005635543E+02  0.00000000000E+00 0.  1.
</event>
<event>
12    1  0.8691829E-002  0.1928049E+03  0.7818608E-02  0.1156087E+00
         21   -1    0    0  501  502  0.00000000000E+00  0.00000000000E+00  0.14324521704E+04  0.14324521704E+04  0.00000000000E+00 0.  1.
         21   -1    0    0  502  503 -0.00000000000E+00 -0.00000000000E+00 -0.30144482972E+02  0.30144482972E+02  0.00000000000E+00 0. -1.
         -6    2    1    2    0  503  0.72922187396E+01 -0.87175602646E+02  0.42674999440E+03  0.46828335449E+03  0.17181670532E+03 0.  0.
        -24    2    3    3    0    0 -0.46709725895E+00  0.23186210850E+02  0.16500093385E+03  0.18407463267E+03  0.78232625340E+02 0.  0.
          6    2    1    2  501    0 -0.72922187396E+01  0.87175602646E+02  0.97555769307E+03  0.99431329892E+03  0.17115303605E+03 0.  0.
         24    2    5    5    0    0  0.16568440779E+02  0.18829904734E+01  0.23626307003E+03  0.24971757612E+03  0.79123768093E+02 0.  0.
          5    1    5    5  501    0 -0.23860659519E+02  0.85292612172E+02  0.73929462304E+03  0.74459572281E+03  0.47000000000E+01 0. -1.
        -13    1    6    6    0    0 -0.57608416486E+01 -0.14828459008E+01  0.22388887764E+03  0.22396788980E+03  0.00000000000E+00 0.  1.
         14    1    6    6    0    0  0.22329282428E+02  0.33658363742E+01  0.12374192392E+02  0.25749686321E+02  0.00000000000E+00 0. -1.
         -5    1    3    3    0  503  0.77593159986E+01 -0.11036181350E+03  0.26174906055E+03  0.28420872183E+03  0.47000000000E+01 0.  1.
         11    1    4    4    0    0 -0.38341295070E+02  0.14199792901E+02  0.65296214484E+02  0.77040798620E+02  0.00000000000E+00 0. -1.
        -12    1    4    4    0    0  0.37874197811E+02  0.89864179486E+01  0.99704719362E+02  0.10703383405E+03  0.00000000000E+00 0.  1.
</event>
<event>
12    1  0.8691829E-002  0.3387936E+03  0.7818608E-02  0.1067747E+00
         21   -1    0    0  501  502  0.00000000000E+00  0.00000000000E+00  0.26241069050E+03  0.26241069050E+03  0.00000000000E+00 0.  1.
         21   -1    0    0  502  503 -0.00000000000E+00 -0.00000000000E+00 -0.44356102028E+03  0.44356102028E+03  0.00000000000E+00 0.  1.
         -6    2    1    2    0  503 -0.26895389223E+03 -0.10232492767E+03 -0.14653230097E+03  0.36541410601E+03  0.17102387750E+03 0.  0.
        -24    2    3    3    0    0 -0.10580059238E+03 -0.20932455782E+02 -0.12161718352E+03  0.18133100845E+03  0.80363314043E+02 0.  0.
          6    2    1    2  501    0  0.26895389223E+03  0.10232492767E+03 -0.34618028802E+02  0.34055760478E+03  0.17881411378E+03 0.  0.
         24    2    5    5    0    0  0.22152627026E+03  0.14158760167E+03 -0.13497630518E+02  0.27529583865E+03  0.80527482163E+02 0.  0.
          5    1    5    5  501    0  0.47427621965E+02 -0.39262674002E+02 -0.21120398284E+02  0.65261766132E+02  0.47000000000E+01 0. -1.
        -11    1    6    6    0    0  0.93690967213E+02  0.37074444197E+02  0.28893242233E+02  0.10482047127E+03  0.00000000000E+00 0.  1.
         12    1    6    6    0    0  0.12783530305E+03  0.10451315747E+03 -0.42390872751E+02  0.17047536738E+03  0.00000000000E+00 0. -1.
         -5    1    3    3    0  503 -0.16315329985E+03 -0.81392471887E+02 -0.24915117455E+02  0.18408309756E+03  0.47000000000E+01 0.  1.
         11    1    4    4    0    0 -0.17822570823E+00 -0.21418374503E+02 -0.16357258081E+01  0.21481483415E+02  0.00000000000E+00 0. -1.
        -12    1    4    4    0    0 -0.10562236667E+03  0.48591872111E+00 -0.11998145771E+03  0.15984952503E+03  0.00000000000E+00 0.  1.
</event>
<event>
12    1  0.8691829E-002  0.2557397E+03  0.7818608E-02  0.1110019E+00
         21   -1    0    0  501  502  0.00000000000E+00  0.00000000000E+00  0.26305718315E+04  0.26305718315E+04  0.00000000000E+00 0.  1.
         21   -1    0    0  502  503 -0.00000000000E+00 -0.00000000000E+00 -0.36435620240E+02  0.36435620240E+02  0.00000000000E+00 0.  1.
         -6    2    1    2    0  503 -0.18976140062E+03  0.43244902199E+00  0.20512641197E+04  0.20669133868E+04  0.16863239194E+03 0.  0.
        -24    2    3    3    0    0 -0.71477019349E+02  0.53321563024E+02  0.11673850413E+04  0.11735753945E+04  0.80865435065E+02 0.  0.
          6    2    1    2  501    0  0.18976140062E+03 -0.43244902199E+00  0.54287209157E+03  0.60009406494E+03  0.17144445980E+03 0.  0.
         24    2    5    5    0    0  0.13148715474E+03  0.55546211260E+02  0.43786531589E+03  0.46751197310E+03  0.80418633919E+02 0.  0.
          5    1    5    5  501    0  0.58274245884E+02 -0.55978660282E+02  0.10500677568E+03  0.13258209185E+03  0.47000000000E+01 0. -1.
        -11    1    6    6    0    0  0.49399166102E+02  0.60896603078E+02  0.25955003616E+03  0.27113630364E+03  0.00000000000E+00 0.  1.
         12    1    6    6    0    0  0.82087988635E+02 -0.53503918180E+01  0.17831527973E+03  0.19637566946E+03  0.00000000000E+00 0. -1.
         -5    1    3    3    0  503 -0.11828438127E+03 -0.52889114002E+02  0.88387907835E+03  0.89333799224E+03  0.47000000000E+01 0.  1.
         13    1    4    4    0    0  0.53419535424E+01 -0.33345262067E+01  0.76037982881E+01  0.98728557712E+01  0.00000000000E+00 0. -1.
        -14    1    4    4    0    0 -0.76818972891E+02  0.56656089230E+02  0.11597812430E+04  0.11637025388E+04  0.00000000000E+00 0.  1.
</event>
<event>
12    1  0.8691829E-002  0.2187433E+03  0.7818608E-02  0.1134925E+00
         21   -1    0    0  503  502  0.00000000000E+00  0.00000000000E+00  0.10073228576E+03  0.10073228576E+03  0.00000000000E+00 0. -1.
         21   -1    0    0  501  503 -0.00000000000E+00 -0.00000000000E+00 -0.80000462073E+03  0.80000462073E+03  0.00000000000E+00 0. -1.
          6    2    1    2  501    0 -0.92601330784E+02 -0.10182446207E+03 -0.63695077471E+03  0.67328886285E+03  0.16931738214E+03 0.  0.
         24    2    3    3    0    0 -0.10552993589E+03 -0.29170647095E+02 -0.49673053296E+03  0.51476589336E+03  0.79089876522E+02 0.  0.
         -6    2    1    2    0  502  0.92601330784E+02  0.10182446207E+03 -0.62321560263E+02  0.22744804363E+03  0.17001590555E+03 0.  0.
        -24    2    5    5    0    0  0.78179402177E+02  0.13736733397E+03 -0.37908463026E+02  0.18173833915E+03  0.81301715721E+02 0.  0.
          5    1    3    3  501    0  0.12928605104E+02 -0.72653814977E+02 -0.14022024175E+03  0.15852296950E+03  0.47000000000E+01 0. -1.
        -11    1    4    4    0    0 -0.30958155313E+01  0.19148792893E+02 -0.11365045723E+03  0.11529391472E+03  0.00000000000E+00 0.  1.
         12    1    4    4    0    0 -0.10243412036E+03 -0.48319439988E+02 -0.38308007573E+03  0.39947197863E+03  0.00000000000E+00 0. -1.
         -5    1    5    5    0  502  0.14421928607E+02 -0.35542871901E+02 -0.24413097236E+02  0.45709704488E+02  0.47000000000E+01 0.  1.
         13    1    6    6    0    0  0.56812754095E+02  0.38602533051E+02  0.10853429605E+02  0.69538777096E+02  0.00000000000E+00 0. -1.
        -14    1    6    6    0    0  0.21366648082E+02  0.98764800922E+02 -0.48761892631E+02  0.11219956205E+03  0.00000000000E+00 0.  1.
</event>
<event>
12    1  0.8691829E-002  0.2561671E+03  0.7818608E-02  0.1111345E+00
         21   -1    0    0  501  502  0.00000000000E+00  0.00000000000E+00  0.45610443838E+03  0.45610443838E+03  0.00000000000E+00 0. -1.
         21   -1    0    0  502  503 -0.00000000000E+00 -0.00000000000E+00 -0.17316767587E+03  0.17316767587E+03  0.00000000000E+00 0. -1.
         -6    2    1    2    0  503 -0.31954410961E+02  0.17100930259E+03  0.28206895144E+03  0.37310353468E+03  0.17140037419E+03 0.  0.
        -24    2    3    3    0    0 -0.79102237979E+02  0.15105537343E+03  0.24699471740E+03  0.31086714039E+03  0.80975914018E+02 0.  0.
          6    2    1    2  501    0  0.31954410961E+02 -0.17100930259E+03  0.86781106157E+00  0.25616857957E+03  0.18803276871E+03 0.  0.
         24    2    5    5    0    0  0.32089032631E+02 -0.11650331880E+01  0.10680616560E+02  0.85976114625E+02  0.79036405526E+02 0.  0.
          5    1    5    5  501    0 -0.13462166934E+00 -0.16984426940E+03 -0.98128054980E+01  0.17019246494E+03  0.47000000000E+01 0. -1.
        -13    1    6    6    0    0 -0.23586710752E+02 -0.42968725215E+00  0.18193044463E+02  0.29791012437E+02  0.00000000000E+00 0.  1.
         14    1    6    6    0    0  0.55675743383E+02 -0.73534593589E+00 -0.75124279032E+01  0.56185102188E+02  0.00000000000E+00 0. -1.
         -5    1    3    3    0  503  0.47147827017E+02  0.19953929160E+02  0.35074234036E+02  0.62236394293E+02  0.47000000000E+01 0.  1.
         11    1    4    4    0    0 -0.18188349624E+02  0.43834087393E+02  0.17956340694E+02  0.50741240138E+02  0.00000000000E+00 0. -1.
        -12    1    4    4    0    0 -0.60913888355E+02  0.10722128604E+03  0.22903837671E+03  0.26012590025E+03  0.00000000000E+00 0.  1.
</event>
<event>
12    1  0.8691829E-002  0.1848419E+03  0.7818608E-02  0.1163559E+00
         21   -1    0    0  501  502  0.00000000000E+00  0.00000000000E+00  0.66612502219E+02  0.66612502219E+02  0.00000000000E+00 0.  1.
         21   -1    0    0  502  503 -0.00000000000E+00 -0.00000000000E+00 -0.73277908816E+03  0.73277908816E+03  0.00000000000E+00 0.  1.
         -6    2    1    2    0  503  0.49295255676E+02 -0.41260752671E+02 -0.55509844963E+03  0.58506478938E+03  0.17330333824E+03 0.  0.
        -24    2    3    3    0    0  0.32075447963E+02  0.45502822009E+02 -0.28134171628E+03  0.29733352809E+03  0.78452051810E+02 0.  0.
          6    2    1    2  501    0 -0.49295255676E+02  0.41260752671E+02 -0.11106813631E+03  0.21432680101E+03  0.17166063842E+03 0.  0.
         24    2    5    5    0    0 -0.68363286964E+02  0.53922889729E+02 -0.13672629112E+02  0.11416745618E+03  0.72567556270E+02 0.  0.
          5    1    5    5  501    0  0.19068031288E+02 -0.12662137058E+02 -0.97395507203E+02  0.10015934482E+03  0.47000000000E+01 0. -1.
        -13    1    6    6    0    0  0.88337216075E+01  0.22695811315E+02  0.11830896574E+02  0.27075904461E+02  0.00000000000E+00 0.  1.
         14    1    6    6    0    0 -0.77197008572E+02  0.31227078415E+02 -0.25503525685E+02  0.87091551721E+02  0.00000000000E+00 0. -1.
         -5    1    3    3    0  503  0.17219807713E+02 -0.86763574680E+02 -0.27375673334E+03  0.28773126128E+03  0.47000000000E+01 0.  1.
         13    1    4    4    0    0 -0.11122510458E+02 -0.94439820036E+01 -0.11475498746E+02  0.18563030637E+02  0.00000000000E+00 0. -1.
        -14    1    4    4    0    0  0.43197958420E+02  0.54946804012E+02 -0.26986621754E+03  0.27877049745E+03  0.00000000000E+00 0.  1.
</event>
<event>
12    1  0.8691829E-002  0.1891236E+03  0.7818608E-02  0.1159798E+00
         21   -1    0    0  501  502  0.00000000000E+00  0.00000000000E+00  0.10995475624E+04  0.10995475624E+04  0.00000000000E+00 0.  1.
         21   -1    0    0  502  503 -0.00000000000E+00 -0.00000000000E+00 -0.36250189640E+02  0.36250189640E+02  0.00000000000E+00 0.  1.
         -6    2    1    2    0  503  0.78399569916E+02  0.88330583622E+01  0.33700050373E+03  0.38528134336E+03  0.16925678286E+03 0.  0.
        -24    2    3    3    0    0  0.37519495894E+01  0.28683335823E+02  0.84269774341E+02  0.12096862646E+03  0.81824219159E+02 0.  0.
          6    2    1    2  501    0 -0.78399569916E+02 -0.88330583622E+01  0.72629686900E+03  0.75051640865E+03  0.17188141916E+03 0.  0.
         24    2    5    5    0    0 -0.10124171378E+03 -0.14696835093E+02  0.34197264204E+03  0.36544063839E+03  0.78330649887E+02 0.  0.
          5    1    5    5  501    0  0.22842143868E+02  0.58637767305E+01  0.38432422696E+03  0.38507577026E+03  0.47000000000E+01 0. -1.
        -13    1    6    6    0    0 -0.33138250770E+02  0.29704845702E+02  0.16115202940E+03  0.16718402466E+03  0.00000000000E+00 0.  1.
         14    1    6    6    0    0 -0.68103463013E+02 -0.44401680795E+02  0.18082061265E+03  0.19825661374E+03  0.00000000000E+00 0. -1.
         -5    1    3    3    0  503  0.74647620327E+02 -0.19850277461E+02  0.25273072939E+03  0.26431271690E+03  0.47000000000E+01 0.  1.
         13    1    4    4    0    0 -0.15625338988E+02 -0.16903711845E+02 -0.22989279077E+00  0.23020415794E+02  0.00000000000E+00 0. -1.
        -14    1    4    4    0    0  0.19377288578E+02  0.45587047668E+02  0.84499667132E+02  0.97948210668E+02  0.00000000000E+00 0.  1.
</event>
<event>
12    1  0.8691829E-002  0.2229782E+03  0.7818608E-02  0.1131916E+00
         21   -1    0    0  503  502  0.00000000000E+00  0.00000000000E+00  0.33861605170E+03  0.33861605170E+03  0.00000000000E+00 0.  1.
         21   -1    0    0  501  503 -0.00000000000E+00 -0.00000000000E+00 -0.15529779934E+03  0.15529779934E+03  0.00000000000E+00 0. -1.
          6    2    1    2  501    0 -0.12967328671E+03  0.55990836279E+02  0.30960093925E+02  0.22385405220E+03  0.17088585148E+03 0.  0.
         24    2    3    3    0    0 -0.12354656355E+02  0.49738103333E+02  0.46155369297E+02  0.10529712878E+03  0.79565386674E+02 0.  0.
         -6    2    1    2    0  502  0.12967328671E+03 -0.55990836279E+02  0.15235815843E+03  0.27005979884E+03  0.17253739152E+03 0.  0.
        -24    2    5    5    0    0  0.29190877221E+02  0.27523783986E+02  0.42111536163E+02  0.99039875619E+02  0.80161396487E+02 0.  0.
          5    1    3    3  501    0 -0.11731863036E+03  0.62527329459E+01 -0.15195275372E+02  0.11855692342E+03  0.47000000000E+01 0. -1.
        -13    1    4    4    0    0  0.63870025982E+01 -0.68862265345E+01  0.44655943701E+02  0.45632962055E+02  0.00000000000E+00 0.  1.
         14    1    4    4    0    0 -0.18741658953E+02  0.56624329868E+02  0.14994255958E+01  0.59664166720E+02  0.00000000000E+00 0. -1.
         -5    1    5    5    0  502  0.10048240949E+03 -0.83514620265E+02  0.11024662227E+03  0.17101992322E+03  0.47000000000E+01 0.  1.
         11    1    6    6    0    0  0.34279962392E+02 -0.10762068237E+02 -0.69544619553E+01  0.36596481736E+02  0.00000000000E+00 0. -1.
        -12    1    6    6    0    0 -0.50890851709E+01  0.38285852223E+02  0.49065998119E+02  0.62443393883E+02  0.00000000000E+00 0.  1.
</event>
<event>
12    1  0.8691829E-002  0.1825265E+03  0.7818608E-02  0.1168227E+00
         21   -1    0    0  503  502  0.00000000000E+00  0.00000000000E+00  0.25753110819E+03  0.25753110819E+03  0.00000000000E+00 0. -1.
         21   -1    0    0  501  503 -0.00000000000E+00 -0.00000000000E+00 -0.13238191361E+03  0.13238191361E+03  0.00000000000E+00 0. -1.
          6    2    1    2  501    0  0.39328142337E+02  0.16188931754E+02  0.80657619696E+01  0.18270464881E+03  0.17750252925E+03 0.  0.
         24    2    3    3    0    0  0.56078001337E+02 -0.50205228235E+02  0.22976697946E+02  0.11246813218E+03  0.80348272730E+02 0.  0.
         -6    2    1    2    0  502 -0.39328142337E+02 -0.16188931754E+02  0.11708343261E+03  0.20720837299E+03  0.16558380161E+03 0.  0.
        -24    2    5    5    0    0 -0.75579380199E+02 -0.15221656094E+02  0.32503250437E+02  0.11506183163E+03  0.78986215778E+02 0.  0.
          5    1    3    3  501    0 -0.16749859001E+02  0.66394159989E+02 -0.14910935976E+02  0.70236516634E+02  0.47000000000E+01 0. -1.
        -11    1    4    4    0    0  0.75330636771E+01 -0.29185378757E+02  0.45820919246E+02  0.54846057489E+02  0.00000000000E+00 0.  1.
         12    1    4    4    0    0  0.48544937660E+02 -0.21019849478E+02 -0.22844221300E+02  0.57622074688E+02  0.00000000000E+00 0. -1.
         -5    1    5    5    0  502  0.36251237862E+02 -0.96727565922E+00  0.84580182172E+02  0.92146541362E+02  0.47000000000E+01 0.  1.
         11    1    6    6    0    0 -0.34249454502E+02 -0.16801323027E+02  0.55798382446E+02  0.67592670259E+02  0.00000000000E+00 0. -1.
        -12    1    6    6    0    0 -0.41329925697E+02  0.15796669328E+01 -0.23295132009E+02  0.47469161368E+02  0.00000000000E+00 0.  1.
</event>
<event>
12    1  0.8691829E-002  0.2019580E+03  0.7818608E-02  0.1148252E+00
         21   -1    0    0  501  502  0.00000000000E+00  0.00000000000E+00  0.25313205930E+03  0.25313205930E+03  0.00000000000E+00 0.  1.
         21   -1    0    0  502  503 -0.00000000000E+00 -0.00000000000E+00 -0.18179882829E+03  0.18179882829E+03  0.00000000000E+00 0.  1.
         -6    2    1    2    0  503  0.28737348179E+02  0.10145981473E+03  0.11008950966E+03  0.23001462216E+03  0.17224139189E+03 0.  0.
        -24    2    3    3    0    0 -0.47157071508E+02  0.45594073182E+02  0.10686017561E+03  0.13560348607E+03  0.51639126648E+02 0.  0.
          6    2    1    2  501    0 -0.28737348179E+02 -0.10145981473E+03 -0.38756278652E+02  0.20491626544E+03  0.17137297780E+03 0.  0.
         24    2    5    5    0    0  0.15882908909E+01 -0.12987047615E+03 -0.46022663429E+01  0.15092185254E+03  0.76729143585E+02 0.  0.
          5    1    5    5  501    0 -0.30325639070E+02  0.28410661417E+02 -0.34154012309E+02  0.53994412896E+02  0.47000000000E+01 0. -1.
        -11    1    6    6    0    0  0.35750600694E+02 -0.66624981031E+02  0.13473193641E+02  0.76801826113E+02  0.00000000000E+00 0.  1.
         12    1    6    6    0    0 -0.34162309803E+02 -0.63245495121E+02 -0.18075459984E+02  0.74120026429E+02  0.00000000000E+00 0. -1.
         -5    1    3    3    0  503  0.75894419687E+02  0.55865741552E+02  0.32293340591E+01  0.94411136087E+02  0.47000000000E+01 0.  1.
         11    1    4    4    0    0 -0.52919640758E+01  0.11795612357E+02  0.68035793546E+02  0.69253235001E+02  0.00000000000E+00 0. -1.
        -12    1    4    4    0    0 -0.41865107432E+02  0.33798460825E+02  0.38824382060E+02  0.66350251068E+02  0.00000000000E+00 0.  1.
</event>
<event>
12    1  0.8691829E-002  0.2850118E+03  0.7818608E-02  0.1093577E+00
         21   -1    0    0  501  502  0.00000000000E+00  0.00000000000E+00  0.48597269553E+03  0.48597269553E+03  0.00000000000E+00 0. -1.
         21   -1    0    0  502  503 -0.00000000000E+00 -0.00000000000E+00 -0.17094540608E+03  0.17094540608E+03  0.00000000000E+00 0. -1.
         -6    2    1    2    0  503  0.19437696862E+03 -0.10766768580E+03  0.22211749544E+03  0.36134182417E+03  0.17848528123E+03 0.  0.
        -24    2    3    3    0    0  0.18713494913E+03 -0.78245473910E+02  0.11033596082E+03  0.24543101845E+03  0.83189645968E+02 0.  0.
          6    2    1    2  501    0 -0.19437696862E+03  0.10766768580E+03  0.92909794005E+02  0.29557627744E+03  0.17134284190E+03 0.  0.
         24    2    5    5    0    0 -0.18058570337E+03  0.33391493445E+02  0.37590824984E+02  0.20182431703E+03  0.74791688868E+02 0.  0.
          5    1    5    5  501    0 -0.13791265244E+02  0.74276192352E+02  0.55318969022E+02  0.93751960411E+02  0.47000000000E+01 0. -1.
        -11    1    6    6    0    0 -0.11998923059E+03  0.10960797336E+00  0.52708815465E+02  0.13105589151E+03  0.00000000000E+00 0.  1.
         12    1    6    6    0    0 -0.60596472785E+02  0.33281885472E+02 -0.15117990481E+02  0.70768425521E+02  0.00000000000E+00 0. -1.
         -5    1    3    3    0  503  0.72420194882E+01 -0.29422211887E+02  0.11178153462E+03  0.11591080571E+03  0.47000000000E+01 0.  1.
         13    1    4    4    0    0  0.67325732962E+02 -0.30851817219E+02 -0.25921535714E+01  0.74103361630E+02  0.00000000000E+00 0. -1.
        -14    1    4    4    0    0  0.11980921617E+03 -0.47393656691E+02  0.11292811439E+03  0.17132765682E+03  0.00000000000E+00 0.  1.
</event>
<event>
12    1  0.8691829E-002  0.1830113E+03  0.7818608E-02  0.1166034E+00
         21   -1    0    0  503  502  0.00000000000E+00  0.00000000000E+00  0.70117313508E+02  0.70117313508E+02  0.00000000000E+00 0. -1.
         21   -1    0    0  501  503 -0.00000000000E+00 -0.00000000000E+00 -0.58594470994E+03  0.58594470994E+03  0.00000000000E+00 0. -1.
          6    2    1    2  501    0 -0.43327820887E+02 -0.71204976052E+01 -0.10665577757E+03  0.20782709370E+03  0.17288332608E+03 0.  0.
         24    2    3    3    0    0 -0.76799691282E+02  0.40367546841E+02 -0.88151549191E+02  0.14667174282E+03  0.78830026630E+02 0.  0.
         -6    2    1    2    0  502  0.43327820887E+02  0.71204976052E+01 -0.40917161886E+03  0.44823492975E+03  0.17766580148E+03 0.  0.
        -24    2    5    5    0    0  0.30711815989E+02 -0.36477428381E+01 -0.41967076242E+03  0.42804977190E+03  0.78399851566E+02 0.  0.
          5    1    3    3  501    0  0.33471870395E+02 -0.47488044446E+02 -0.18504228378E+02  0.61155350877E+02  0.47000000000E+01 0. -1.
        -11    1    4    4    0    0 -0.19866335141E+02 -0.10488181936E+02 -0.62053028332E+02  0.65994329737E+02  0.00000000000E+00 0.  1.
         12    1    4    4    0    0 -0.56933356141E+02  0.50855728777E+02 -0.26098520859E+02  0.80677413084E+02  0.00000000000E+00 0. -1.
         -5    1    5    5    0  502  0.12616004898E+02  0.10768240443E+02  0.10499143558E+02  0.20185157847E+02  0.47000000000E+01 0.  1.
         13    1    6    6    0    0  0.54876788432E+01  0.11994791289E+02 -0.82462338296E+01  0.15556028077E+02  0.00000000000E+00 0. -1.
        -14    1    6    6    0    0  0.25224137146E+02 -0.15642534127E+02 -0.41142452859E+03  0.41249374383E+03  0.00000000000E+00 0.  1.
</event>
<event>
12    1  0.8691829E-002  0.2056319E+03  0.7818608E-02  0.1145170E+00
         21   -1    0    0  503  502  0.00000000000E+00  0.00000000000E+00  0.56553589893E+03  0.56553589893E+03  0.00000000000E+00 0.  1.
         21   -1    0    0  501  503 -0.00000000000E+00 -0.00000000000E+00 -0.10443073230E+03  0.10443073230E+03  0.00000000000E+00 0.  1.
          6    2    1    2  501    0  0.77020467990E+02 -0.82444075797E+02  0.51693688268E+02  0.21202996279E+03  0.17191651925E+03 0.  0.
         24    2    3    3    0    0  0.25640068515E+02 -0.11425583199E+03  0.52180734974E+02  0.15141428415E+03  0.80570764467E+02 0.  0.
         -6    2    1    2    0  502 -0.77020467990E+02  0.82444075797E+02  0.40941147836E+03  0.45793666844E+03  0.17134484400E+03 0.  0.
        -24    2    5    5    0    0 -0.23444508477E+02 -0.14433677889E+02  0.14155442785E+03  0.16806571076E+03  0.86315995362E+02 0.  0.
          5    1    3    3  501    0  0.51380399475E+02  0.31811756190E+02 -0.48704670638E+00  0.60615678637E+02  0.47000000000E+01 0. -1.
        -13    1    4    4    0    0 -0.26671973603E+02 -0.24429435948E+02  0.25008321710E+02  0.43972806044E+02  0.00000000000E+00 0.  1.
         14    1    4    4    0    0  0.52312042117E+02 -0.89826396040E+02  0.27172413264E+02  0.10744147811E+03  0.00000000000E+00 0. -1.
         -5    1    5    5    0  502 -0.53575959513E+02  0.96877753686E+02  0.26785705051E+03  0.28987095768E+03  0.47000000000E+01 0.  1.
         13    1    6    6    0    0 -0.52710309936E+02 -0.16599265818E+02  0.11848176263E+03  0.13073576586E+03  0.00000000000E+00 0. -1.
        -14    1    6    6    0    0  0.29265801459E+02  0.21655879287E+01  0.23072665222E+02  0.37329944905E+02  0.00000000000E+00 0.  1.
</event>
<event>
12    1  0.8691829E-002  0.4081203E+03  0.7818608E-02  0.1041014E+00
         21   -1    0    0  501  502  0.00000000000E+00  0.00000000000E+00  0.38146835576E+03  0.38146835576E+03  0.00000000000E+00 0.  1.
         21   -1    0    0  502  503 -0.00000000000E+00 -0.00000000000E+00 -0.64942426581E+03  0.64942426581E+03  0.00000000000E+00 0.  1.
         -6    2    1    2    0  503 -0.25897505361E+03  0.26383151098E+03 -0.42913648655E+03  0.59221644363E+03  0.17287870730E+03 0.  0.
        -24    2    3    3    0    0 -0.26438039336E+03  0.20191284089E+03 -0.33013494120E+03  0.47522697665E+03  0.78649934637E+02 0.  0.
          6    2    1    2  501    0  0.25897505361E+03 -0.26383151098E+03  0.16118057650E+03  0.43867617794E+03  0.17257597245E+03 0.  0.
         24    2    5    5    0    0  0.24384673080E+03 -0.16031224314E+03  0.13033490009E+03  0.32950360483E+03  0.80151082283E+02 0.  0.
          5    1    5    5  501    0  0.15128322808E+02 -0.10351926784E+03  0.30845676415E+02  0.10917257311E+03  0.47000000000E+01 0. -1.
        -11    1    6    6    0    0  0.20731351247E+03 -0.16564474291E+03  0.10911925637E+03  0.28692174093E+03  0.00000000000E+00 0.  1.
         12    1    6    6    0    0  0.36533218331E+02  0.53324997607E+01  0.21215643718E+02  0.42581863905E+02  0.00000000000E+00 0. -1.
         -5    1    3    3    0  503  0.54053397517E+01  0.61918670091E+02 -0.99001545350E+02  0.11698946698E+03  0.47000000000E+01 0.  1.
         13    1    4    4    0    0 -0.12101480201E+03  0.91198735303E+02 -0.96705633832E+02  0.17976031609E+03  0.00000000000E+00 0. -1.
        -14    1    4    4    0    0 -0.14336559135E+03  0.11071410559E+03 -0.23342930737E+03  0.29546666056E+03  0.00000000000E+00 0.  1.
</event>
<event>
12    1  0.8691829E-002  0.1970048E+03  0.7818608E-02  0.1152426E+00
         21   -1    0    0  501  502  0.00000000000E+00  0.00000000000E+00  0.34145436809E+03  0.34145436809E+03  0.00000000000E+00 0. -1.
         21   -1    0    0  502  503 -0.00000000000E+00 -0.00000000000E+00 -0.40985517595E+03  0.40985517595E+03  0.00000000000E+00 0.  1.
         -6    2    1    2    0  503 -0.19412157254E+01  0.96820751613E+02 -0.35372538763E+03  0.40458051707E+03  0.17083828224E+03 0.  0.
        -24    2    3    3    0    0 -0.35608855270E+02  0.11933247966E+03 -0.20480636892E+03  0.25018086686E+03  0.71669980582E+02 0.  0.
          6    2    1    2  501    0  0.19412157254E+01 -0.96820751613E+02  0.28532457977E+03  0.34672902697E+03  0.17156012375E+03 0.  0.
         24    2    5    5    0    0  0.38368963539E+02 -0.31752757332E+00  0.17119103780E+03  0.19281863595E+03  0.80002354718E+02 0.  0.
          5    1    5    5  501    0 -0.36427747813E+02 -0.96503224040E+02  0.11413354197E+03  0.15391039102E+03  0.47000000000E+01 0. -1.
        -13    1    6    6    0    0  0.60383962736E+02  0.10560090958E+02  0.97749915268E+02  0.11538104009E+03  0.00000000000E+00 0.  1.
         14    1    6    6    0    0 -0.22014999197E+02 -0.10877618531E+02  0.73441122529E+02  0.77437595862E+02  0.00000000000E+00 0. -1.
         -5    1    3    3    0  503  0.33667639545E+02 -0.22511728046E+02 -0.14891901871E+03  0.15439965021E+03  0.47000000000E+01 0.  1.
         13    1    4    4    0    0  0.20490665732E+02  0.39868268807E+02 -0.48182000672E+02  0.65809204741E+02  0.00000000000E+00 0. -1.
        -14    1    4    4    0    0 -0.56099521003E+02  0.79464210853E+02 -0.15662436825E+03  0.18437166212E+03  0.00000000000E+00 0.  1.
</event>
<event>
12    1  0.8691829E-002  0.2381589E+03  0.7818608E-02  0.1121842E+00
         21   -1    0    0  501  502  0.00000000000E+00  0.00000000000E+00  0.41761048792E+02  0.41761048792E+02  0.00000000000E+00 0.  1.
         21   -1    0    0  502  503 -0.00000000000E+00 -0.00000000000E+00 -0.14588141496E+04  0.14588141496E+04  0.00000000000E+00 0.  1.
         -6    2    1    2    0  503 -0.16286562311E+03  0.19985076465E+02 -0.92405475668E+03  0.95306534819E+03  0.16592694206E+03 0.  0.
        -24    2    3    3    0    0 -0.31065539943E+02  0.51625293268E+02 -0.42829646014E+03  0.43908991703E+03  0.75709040381E+02 0.  0.
          6    2    1    2  501    0  0.16286562311E+03 -0.19985076465E+02 -0.49299834413E+03  0.54750985020E+03  0.17261243955E+03 0.  0.
         24    2    5    5    0    0  0.36812124347E+02 -0.20041355547E+02 -0.10182401802E+03  0.13650020175E+03  0.80668370513E+02 0.  0.
          5    1    5    5  501    0  0.12605349876E+03  0.56279081800E-01 -0.39117432611E+03  0.41100964845E+03  0.47000000000E+01 0. -1.
        -13    1    6    6    0    0  0.49954832810E+02 -0.39982302162E+02 -0.56912450000E+02  0.85633502627E+02  0.00000000000E+00 0.  1.
         14    1    6    6    0    0 -0.13142708463E+02  0.19940946615E+02 -0.44911568022E+02  0.50866699125E+02  0.00000000000E+00 0. -1.
         -5    1    3    3    0  503 -0.13180008316E+03 -0.31640216803E+02 -0.49575829654E+03  0.51397543115E+03  0.47000000000E+01 0.  1.
         11    1    4    4    0    0 -0.12747214923E+02 -0.17011484023E+02 -0.52544537339E+02  0.56681659125E+02  0.00000000000E+00 0. -1.
        -12    1    4    4    0    0 -0.18318325020E+02  0.68636777291E+02 -0.37575192280E+03  0.38240825791E+03  0.00000000000E+00 0.  1.
</event>
<event>
12    1  0.8691829E-002  0.1893668E+03  0.7818608E-02  0.1159063E+00
         21   -1    0    0  501  502  0.00000000000E+00  0.00000000000E+00  0.67278987309E+03  0.67278987309E+03  0.00000000000E+00 0. -1.
         21   -1    0    0  502  503 -0.00000000000E+00 -0.00000000000E+00 -0.59246713735E+02  0.59246713735E+02  0.00000000000E+00 0. -1.
         -6    2    1    2    0  503  0.48064701271E+02  0.64016716492E+02  0.42299126753E+03  0.46339222494E+03  0.17147124023E+03 0.  0.
        -24    2    3    3    0    0  0.97828857306E+02  0.47679384047E+02  0.28924267685E+03  0.31967668936E+03  0.81780502703E+02 0.  0.
          6    2    1    2  501    0 -0.48064701271E+02 -0.64016716492E+02  0.19055189182E+03  0.26864436189E+03  0.17161414335E+03 0.  0.
         24    2    5    5    0    0 -0.25442221009E+02  0.28474201640E+02  0.13195258470E+03  0.15674121025E+03  0.75486658521E+02 0.  0.
          5    1    5    5  501    0 -0.22622480263E+02 -0.92490918132E+02  0.58599307126E+02  0.11190315163E+03  0.47000000000E+01 0. -1.
        -11    1    6    6    0    0 -0.25119962890E+02 -0.12934102342E+02  0.10144757634E+03  0.10530866196E+03  0.00000000000E+00 0.  1.
         12    1    6    6    0    0 -0.32225811838E+00  0.41408303982E+02  0.30505008360E+02  0.51432548294E+02  0.00000000000E+00 0. -1.
         -5    1    3    3    0  503 -0.49764156035E+02  0.16337332445E+02  0.13374859069E+03  0.14371553558E+03  0.47000000000E+01 0.  1.
         13    1    4    4    0    0  0.64622745482E+02  0.46405879320E+02  0.26955770201E+03  0.28105330381E+03  0.00000000000E+00 0. -1.
        -14    1    4    4    0    0  0.33206111824E+02  0.12735047267E+01  0.19684974839E+02  0.38623385548E+02  0.00000000000E+00 0.  1.
</event>
<event>
12    1  0.8691829E-002  0.1716820E+03  0.7818608E-02  0.1177646E+00
         21   -1    0    0  503  502  0.00000000000E+00  0.00000000000E+00  0.19986906199E+03  0.19986906199E+03  0.00000000000E+00 0. -1.
         21   -1    0    0  501  503 -0.00000000000E+00 -0.00000000000E+00 -0.40152451023E+03  0.40152451023E+03  0.00000000000E+00 0. -1.
          6    2    1    2  501    0  0.88041271048E+01 -0.15532140979E+02 -0.34296879058E+03  0.38353919643E+03  0.17075117519E+03 0.  0.
         24    2    3    3    0    0 -0.51029174674E+02 -0.18465615381E+01 -0.12234321684E+03  0.15448668526E+03  0.79315110526E+02 0.  0.
         -6    2    1    2    0  502 -0.88041271048E+01  0.15532140979E+02  0.14131334234E+03  0.21785437579E+03  0.16484025076E+03 0.  0.
        -24    2    5    5    0    0 -0.68487976333E+01  0.15531075639E+01  0.16877118428E+03  0.18662522639E+03  0.79346986757E+02 0.  0.
          5    1    3    3  501    0  0.59833301779E+02 -0.13685579441E+02 -0.22062557374E+03  0.22905251117E+03  0.47000000000E+01 0. -1.
        -11    1    4    4    0    0  0.97260602356E+01 -0.26425064791E+02 -0.45302520576E+02  0.53340403705E+02  0.00000000000E+00 0.  1.
         12    1    4    4    0    0 -0.60755234910E+02  0.24578503253E+02 -0.77040696265E+02  0.10114628155E+03  0.00000000000E+00 0. -1.
         -5    1    5    5    0  502 -0.19553294715E+01  0.13979033415E+02 -0.27457841943E+02  0.31229149408E+02  0.47000000000E+01 0.  1.
         11    1    6    6    0    0 -0.14472345229E+02  0.30996260538E+02  0.14214330765E+03  0.14620169921E+03  0.00000000000E+00 0. -1.
        -12    1    6    6    0    0  0.76235475958E+01 -0.29443152974E+02  0.26627876634E+02  0.40423527172E+02  0.00000000000E+00 0.  1.
</event>
<event>
12    1  0.8691829E-002  0.1894587E+03  0.7818608E-02  0.1160037E+00
         21   -1    0    0  503  502  0.00000000000E+00  0.00000000000E+00  0.27006401131E+03  0.27006401131E+03  0.00000000000E+00 0. -1.
         21   -1    0    0  501  503 -0.00000000000E+00 -0.00000000000E+00 -0.13569518839E+03  0.13569518839E+03  0.00000000000E+00 0. -1.
          6    2    1    2  501    0 -0.44248313683E+02 -0.64772287237E+02  0.11095883708E+03  0.21955973516E+03  0.17245652009E+03 0.  0.
         24    2    3    3    0    0 -0.58562600663E+02 -0.70589221940E+02  0.14037291653E+03  0.18600360888E+03  0.80500747652E+02 0.  0.
         -6    2    1    2    0  502  0.44248313683E+02  0.64772287237E+02  0.23409985833E+02  0.18619946454E+03  0.16723890307E+03 0.  0.
        -24    2    5    5    0    0 -0.35390725881E+00  0.69973200302E+02  0.67688189187E+02  0.12296136762E+03  0.75109473179E+02 0.  0.
          5    1    3    3  501    0  0.14314286979E+02  0.58169347028E+01 -0.29414079448E+02  0.33556126279E+02  0.47000000000E+01 0. -1.
        -13    1    4    4    0    0  0.79672697027E+01 -0.49058456320E+02  0.40654874229E+02  0.64210811564E+02  0.00000000000E+00 0.  1.
         14    1    4    4    0    0 -0.66529870365E+02 -0.21530765619E+02  0.99718042301E+02  0.12179279732E+03  0.00000000000E+00 0. -1.
         -5    1    5    5    0  502  0.44602220942E+02 -0.52009130650E+01 -0.44278203354E+02  0.63238096919E+02  0.47000000000E+01 0.  1.
         13    1    6    6    0    0  0.27634813801E+02  0.38975641954E+02  0.55603774896E+01  0.48100950068E+02  0.00000000000E+00 0. -1.
        -14    1    6    6    0    0 -0.27988721060E+02  0.30997558348E+02  0.62127811697E+02  0.74860417554E+02  0.00000000000E+00 0.  1.
</event>
<event>
12    1  0.8691829E-002  0.3007833E+03  0.7818608E-02  0.1085104E+00
         21   -1    0    0  501  502  0.00000000000E+00  0.00000000000E+00  0.17180917041E+03  0.17180917041E+03  0.00000000000E+00 0.  1.
         21   -1    0    0  502  503 -0.00000000000E+00 -0.00000000000E+00 -0.54175521599E+03  0.54175521599E+03  0.00000000000E+00 0. -1.
         -6    2    1    2    0  503 -0.10606118717E+03  0.22037448780E+03 -0.25070765417E+03  0.39000854424E+03  0.17157635742E+03 0.  0.
        -24    2    3    3    0    0 -0.11031884394E+02  0.11958459788E+03 -0.19062200926E+03  0.23894052969E+03  0.79584218233E+02 0.  0.
          6    2    1    2  501    0  0.10606118717E+03 -0.22037448780E+03 -0.11923839141E+03  0.32355584216E+03  0.17509054432E+03 0.  0.
         24    2    5    5    0    0  0.29323863011E+02 -0.54494658383E+02  0.77933174378E+01  0.10092637470E+03  0.79346333120E+02 0.  0.
          5    1    5    5  501    0  0.76737324154E+02 -0.16587982942E+03 -0.12703170884E+03  0.22262946745E+03  0.47000000000E+01 0. -1.
        -11    1    6    6    0    0  0.16560876989E+02 -0.72497859377E+02 -0.64758472966E+01  0.74646760540E+02  0.00000000000E+00 0.  1.
         12    1    6    6    0    0  0.12762986022E+02  0.18003200994E+02  0.14269164734E+02  0.26279614161E+02  0.00000000000E+00 0. -1.
         -5    1    3    3    0  503 -0.95029302771E+02  0.10078988993E+03 -0.60085644904E+02  0.15106801455E+03  0.47000000000E+01 0.  1.
         13    1    4    4    0    0 -0.36889754965E+02  0.10643110271E+03 -0.16744796191E+03  0.20180994423E+03  0.00000000000E+00 0. -1.
        -14    1    4    4    0    0  0.25857870571E+02  0.13153495167E+02 -0.23174047358E+02  0.37130585459E+02  0.00000000000E+00 0.  1.
</event>
<event>
12    1  0.8691829E-002  0.2922910E+03  0.7818608E-02  0.1089742E+00
         21   -1    0    0  501  502  0.00000000000E+00  0.00000000000E+00  0.73645505341E+02  0.73645505341E+02  0.00000000000E+00 0.  1.
         21   -1    0    0  502  503 -0.00000000000E+00 -0.00000000000E+00 -0.18559670525E+04  0.18559670525E+04  0.00000000000E+00 0. -1.
         -6    2    1    2    0  503  0.89196574404E+02 -0.21245940890E+03 -0.14851606594E+04  0.15127928828E+04  0.17246765663E+03 0.  0.
        -24    2    3    3    0    0 -0.15943193783E+02 -0.93621152052E+02 -0.51160660979E+03  0.52638197464E+03  0.79483045399E+02 0.  0.
          6    2    1    2  501    0 -0.89196574404E+02  0.21245940890E+03 -0.29716088776E+03  0.41681967508E+03  0.17983052857E+03 0.  0.
         24    2    5    5    0    0 -0.31213279066E+02  0.21726553404E+03 -0.25073772987E+03  0.34223843772E+03  0.77968955387E+02 0.  0.
          5    1    5    5  501    0 -0.57983295337E+02 -0.48061251386E+01 -0.46423157887E+02  0.74581237354E+02  0.47000000000E+01 0. -1.
        -11    1    6    6    0    0  0.12259378806E+02  0.89742076261E+02 -0.59738115134E+02  0.10850149778E+03  0.00000000000E+00 0.  1.
         12    1    6    6    0    0 -0.43472657873E+02  0.12752345778E+03 -0.19099961473E+03  0.23373693995E+03  0.00000000000E+00 0. -1.
         -5    1    3    3    0  503  0.10513976819E+03 -0.11883825685E+03 -0.97355404965E+03  0.98641090816E+03  0.47000000000E+01 0.  1.
         13    1    4    4    0    0  0.85920530919E+01 -0.88936242741E+02 -0.46497225295E+03  0.47347932865E+03  0.00000000000E+00 0. -1.
        -14    1    4    4    0    0 -0.24535246875E+02 -0.46849093118E+01 -0.46634356839E+02  0.52902645985E+02  0.00000000000E+00 0.  1.
</event>
<event>
12    1  0.8691829E-002  0.2004590E+03  0.7818608E-02  0.1150846E+00
         21   -1    0    0  503  502  0.00000000000E+00  0.00000000000E+00  0.16354491071E+03  0.16354491071E+03  0.00000000000E+00 0.  1.
         21   -1    0    0  501  503 -0.00000000000E+00 -0.00000000000E+00 -0.25334800634E+03  0.25334800634E+03  0.00000000000E+00 0. -1.
          6    2    1    2  501    0  0.86033194709E+02  0.56724934913E+02  0.83965175689E+01  0.19367334152E+03  0.16376639728E+03 0.  0.
         24    2    3    3    0    0  0.12710921001E+02 -0.25841415057E+02  0.14303213619E+01  0.82930504921E+02  0.77756521157E+02 0.  0.
         -6    2    1    2    0  502 -0.86033194709E+02 -0.56724934913E+02 -0.98199613198E+02  0.22321957552E+03  0.17194297319E+03 0.  0.
        -24    2    5    5    0    0 -0.64566036441E+01  0.16154814080E+02 -0.68107870317E+01  0.81734950183E+02  0.79571034383E+02 0.  0.
          5    1    3    3  501    0  0.73322273708E+02  0.82566349970E+02  0.69661962070E+01  0.11074283660E+03  0.47000000000E+01 0. -1.
        -11    1    4    4    0    0  0.43905993121E+02 -0.16902850764E+02 -0.10766804550E+02  0.48263512886E+02  0.00000000000E+00 0.  1.
         12    1    4    4    0    0 -0.31195072120E+02 -0.89385642934E+01  0.12197125912E+02  0.34666992035E+02  0.00000000000E+00 0. -1.
         -5    1    5    5    0  502 -0.79576591065E+02 -0.72879748993E+02 -0.91388826166E+02  0.14148462534E+03  0.47000000000E+01 0.  1.
         13    1    6    6    0    0  0.98272226005E+01  0.13617060088E+02 -0.40712449399E+02  0.44039779354E+02  0.00000000000E+00 0. -1.
        -14    1    6    6    0    0 -0.16283826245E+02  0.25377539921E+01  0.33901662368E+02  0.37695170828E+02  0.00000000000E+00 0.  1.
</event>
<event>
12    1  0.8691829E-002  0.2734818E+03  0.7818608E-02  0.1099693E+00
         21   -1    0    0  501  502  0.00000000000E+00  0.00000000000E+00  0.13024491358E+03  0.13024491358E+03  0.00000000000E+00 0. -1.
         21   -1    0    0  502  503 -0.00000000000E+00 -0.00000000000E+00 -0.59956107825E+03  0.59956107825E+03  0.00000000000E+00 0. -1.
         -6    2    1    2    0  503  0.87451877249E+02  0.19266756130E+03 -0.15044301923E+03  0.30971986570E+03  0.16889248996E+03 0.  0.
        -24    2    3    3    0    0  0.44380889085E+02  0.17888143488E+03 -0.16689127667E+03  0.26136903866E+03  0.80578192348E+02 0.  0.
          6    2    1    2  501    0 -0.87451877249E+02 -0.19266756130E+03 -0.31887314544E+03  0.42008612613E+03  0.17327334034E+03 0.  0.
         24    2    5    5    0    0  0.22035117749E+01 -0.13042418192E+03 -0.12486969010E+03  0.19743896639E+03  0.79839734769E+02 0.  0.
          5    1    5    5  501    0 -0.89655389024E+02 -0.62243379375E+02 -0.19400345533E+03  0.22264715974E+03  0.47000000000E+01 0. -1.
        -13    1    6    6    0    0 -0.69691840878E+00  0.11183374250E+02 -0.11033113861E+02  0.15725239469E+02  0.00000000000E+00 0.  1.
         14    1    6    6    0    0  0.29004301837E+01 -0.14160755617E+03 -0.11383657624E+03  0.18171372692E+03  0.00000000000E+00 0. -1.
         -5    1    3    3    0  503  0.43070988164E+02  0.13786126416E+02  0.16448257434E+02  0.48350827042E+02  0.47000000000E+01 0.  1.
         11    1    4    4    0    0  0.47347345604E+02  0.13855730277E+03 -0.83170859184E+02  0.16839622652E+03  0.00000000000E+00 0. -1.
        -12    1    4    4    0    0 -0.29664565186E+01  0.40324132107E+02 -0.83720417483E+02  0.92972812144E+02  0.00000000000E+00 0.  1.
</event>
<event>
12    1  0.8691829E-002  0.2202680E+03  0.7818608E-02  0.1134833E+00
         21   -1    0    0  501  502  0.00000000000E+00  0.00000000000E+00  0.23450469584E+03  0.23450469584E+03  0.00000000000E+00 0.  1.
         21   -1    0    0  502  503 -0.00000000000E+00 -0.00000000000E+00 -0.28971749691E+03  0.28971749691E+03  0.00000000000E+00 0. -1.
         -6    2    1    2    0  503  0.36393200937E+01 -0.13075438070E+03 -0.17272889991E+03  0.27991652682E+03  0.17722312603E+03 0.  0.
        -24    2    3    3    0    0 -0.36539243553E+02 -0.30995394401E+02 -0.13911482260E+03  0.16714166918E+03  0.79294217406E+02 0.  0.
          6    2    1    2  501    0 -0.36393200937E+01  0.13075438070E+03  0.11751609885E+03  0.24430566593E+03  0.16960327884E+03 0.  0.
         24    2    5    5    0    0 -0.43052185840E+01  0.43656467724E+01  0.82537921053E+02  0.11308021715E+03  0.77052146760E+02 0.  0.
          5    1    5    5  501    0  0.66589849030E+00  0.12638873393E+03  0.34978177795E+02  0.13122544878E+03  0.47000000000E+01 0. -1.
        -11    1    6    6    0    0  0.10095700270E+02  0.37428833652E+02  0.56825005926E+02  0.68788967510E+02  0.00000000000E+00 0.  1.
         12    1    6    6    0    0 -0.14400918854E+02 -0.33063186880E+02  0.25712915127E+02  0.44291249642E+02  0.00000000000E+00 0. -1.
         -5    1    3    3    0  503  0.40178563647E+02 -0.99758986298E+02 -0.33614077311E+02  0.11277485765E+03  0.47000000000E+01 0.  1.
         11    1    4    4    0    0 -0.45049653028E+02 -0.51560303897E+02 -0.88856245724E+02  0.11217561491E+03  0.00000000000E+00 0. -1.
        -12    1    4    4    0    0  0.85104094751E+01  0.20564909496E+02 -0.50258576877E+02  0.54966054268E+02  0.00000000000E+00 0.  1.
</event>
<event>
12    1  0.8691829E-002  0.2071931E+03  0.7818608E-02  0.1143914E+00
         21   -1    0    0  501  502  0.00000000000E+00  0.00000000000E+00  0.51573671581E+03  0.51573671581E+03  0.00000000000E+00 0.  1.
         21   -1    0    0  502  503 -0.00000000000E+00 -0.00000000000E+00 -0.22205294497E+03  0.22205294497E+03  0.00000000000E+00 0.  1.
         -6    2    1    2    0  503 -0.67097153393E+02  0.96228732057E+02 -0.14498024661E+03  0.25287995406E+03  0.17078349567E+03 0.  0.
        -24    2    3    3    0    0 -0.98349690022E+02  0.76575640652E+02 -0.59988341800E+02  0.16009698725E+03  0.80597480762E+02 0.  0.
          6    2    1    2  501    0  0.67097153393E+02 -0.96228732057E+02  0.43866401745E+03  0.48490970672E+03  0.17014495761E+03 0.  0.
         24    2    5    5    0    0  0.92326754313E+02 -0.39618340397E+02  0.19402300457E+03  0.23249618809E+03  0.79471433325E+02 0.  0.
          5    1    5    5  501    0 -0.25229600919E+02 -0.56610391660E+02  0.24464101288E+03  0.25241351863E+03  0.47000000000E+01 0. -1.
        -13    1    6    6    0    0  0.24315102965E+02 -0.53253584704E+02  0.82475754748E+02  0.10114058848E+03  0.00000000000E+00 0.  1.
         14    1    6    6    0    0  0.68011651347E+02  0.13635244306E+02  0.11154724982E+03  0.13135559961E+03  0.00000000000E+00 0. -1.
         -5    1    3    3    0  503  0.31252536629E+02  0.19653091405E+02 -0.84991904812E+02  0.92782966816E+02  0.47000000000E+01 0.  1.
         11    1    4    4    0    0 -0.15722062698E+01  0.24789227775E+02  0.13242194163E+02  0.28148416518E+02  0.00000000000E+00 0. -1.
        -12    1    4    4    0    0 -0.96777483752E+02  0.51786412878E+02 -0.73230535963E+02  0.13194857073E+03  0.00000000000E+00 0.  1.
</event>
<event>
12    1  0.8691829E-002  0.2228854E+03  0.7818608E-02  0.1131894E+00
         21   -1    0    0  501  502  0.00000000000E+00  0.00000000000E+00  0.15909005889E+03  0.15909005889E+03  0.00000000000E+00 0.  1.
         21   -1    0    0  502  503 -0.00000000000E+00 -0.00000000000E+00 -0.31235952774E+03  0.31235952774E+03  0.00000000000E+00 0. -1.
         -6    2    1    2    0  503  0.81562761407E+02  0.11382279235E+03 -0.91072095689E+02  0.24004859824E+03  0.17239805914E+03 0.  0.
        -24    2    3    3    0    0  0.95336513335E+02  0.24706108879E+02 -0.77600832967E+02  0.14875202418E+03  0.80036446885E+02 0.  0.
          6    2    1    2  501    0 -0.81562761407E+02 -0.11382279235E+03 -0.62197373158E+02  0.23140098839E+03  0.17340643613E+03 0.  0.
         24    2    5    5    0    0 -0.12306347856E+03 -0.71220267670E+02 -0.52926015479E+02  0.17102439767E+03  0.78938173277E+02 0.  0.
          5    1    5    5  501    0  0.41500717152E+02 -0.42602524685E+02 -0.92713576791E+01  0.60376590719E+02  0.47000000000E+01 0. -1.
        -13    1    6    6    0    0 -0.47896381048E+02 -0.14435955312E+02  0.17936399630E+02  0.53142963363E+02  0.00000000000E+00 0.  1.
         14    1    6    6    0    0 -0.75167097511E+02 -0.56784312359E+02 -0.70862415109E+02  0.11788143430E+03  0.00000000000E+00 0. -1.
         -5    1    3    3    0  503 -0.13773751928E+02  0.89116683476E+02 -0.13471262722E+02  0.91296574061E+02  0.47000000000E+01 0.  1.
         13    1    4    4    0    0  0.10889968683E+03  0.19510693114E+02 -0.75815319384E+02  0.13411849832E+03  0.00000000000E+00 0. -1.
        -14    1    4    4    0    0 -0.13563173500E+02  0.51954157650E+01 -0.17855135829E+01  0.14633525860E+02  0.00000000000E+00 0.  1.
</event>
<event>
12    1  0.8691829E-002  0.1959901E+03  0.7818608E-02  0.1154073E+00
         21   -1    0    0  503  502  0.00000000000E+00  0.00000000000E+00  0.11988386869E+03  0.11988386869E+03  0.00000000000E+00 0.  1.
         21   -1    0    0  501  503 -0.00000000000E+00 -0.00000000000E+00 -0.35750105914E+03  0.35750105914E+03  0.00000000000E+00 0.  1.
          6    2    1    2  501    0 -0.68831280587E+02  0.47124454939E+02 -0.20348210269E+03  0.28251914659E+03  0.17735174833E+03 0.  0.
         24    2    3    3    0    0 -0.84879697852E+02  0.91691043637E+02 -0.15247204081E+03  0.21274917499E+03  0.80016733489E+02 0.  0.
         -6    2    1    2    0  502  0.68831280587E+02 -0.47124454939E+02 -0.34135087758E+02  0.19486578124E+03  0.17276865757E+03 0.  0.
        -24    2    5    5    0    0  0.11032060465E+03 -0.49742098207E+02 -0.74108553857E+01  0.14522214455E+03  0.79935213434E+02 0.  0.
          5    1    3    3  501    0  0.16048417265E+02 -0.44566588699E+02 -0.51010061879E+02  0.69769971606E+02  0.47000000000E+01 0. -1.
        -13    1    4    4    0    0 -0.23449630885E+02  0.28539398213E+02 -0.10783448009E+03  0.11398533912E+03  0.00000000000E+00 0.  1.
         14    1    4    4    0    0 -0.61430066967E+02  0.63151645424E+02 -0.44637560719E+02  0.98763835863E+02  0.00000000000E+00 0. -1.
         -5    1    5    5    0  502 -0.41489324061E+02  0.26176432682E+01 -0.26724232372E+02  0.49643636684E+02  0.47000000000E+01 0.  1.
         13    1    6    6    0    0 -0.51081491788E+01  0.11940858594E+01 -0.17867677136E+02  0.18621839740E+02  0.00000000000E+00 0. -1.
        -14    1    6    6    0    0  0.11542875383E+03 -0.50936184066E+02  0.10456821750E+02  0.12660030481E+03  0.00000000000E+00 0.  1.
</event>
<event>
12    1  0.8691829E-002  0.1764424E+03  0.7818608E-02  0.1172135E+00
         21   -1    0    0  501  502  0.00000000000E+00  0.00000000000E+00  0.62603897333E+02  0.62603897333E+02  0.00000000000E+00 0.  1.
         21   -1    0    0  502  503 -0.00000000000E+00 -0.00000000000E+00 -0.56100413303E+03  0.56100413303E+03  0.00000000000E+00 0.  1.
         -6    2    1    2    0  503 -0.13847764214E+02 -0.19085049268E+02 -0.36387068226E+03  0.40439310074E+03  0.17485967755E+03 0.  0.
        -24    2    3    3    0    0 -0.54658502528E+02  0.39640169234E+02 -0.22241264243E+03  0.24581619610E+03  0.79995773881E+02 0.  0.
          6    2    1    2  501    0  0.13847764214E+02  0.19085049268E+02 -0.13452955344E+03  0.21921492963E+03  0.17146715413E+03 0.  0.
         24    2    5    5    0    0  0.59855237764E+02  0.42752661474E+00 -0.13790991093E+03  0.16923185658E+03  0.77701000525E+02 0.  0.
          5    1    5    5  501    0 -0.46007473549E+02  0.18657522654E+02  0.33803574974E+01  0.49983073042E+02  0.47000000000E+01 0. -1.
        -11    1    6    6    0    0 -0.65203706770E+01 -0.10642974162E+02  0.32110986702E+01  0.12887951251E+02  0.00000000000E+00 0.  1.
         12    1    6    6    0    0  0.66375608441E+02  0.11070500777E+02 -0.14112100960E+03  0.15634390533E+03  0.00000000000E+00 0. -1.
         -5    1    3    3    0  503  0.40810738313E+02 -0.58725218502E+02 -0.14145803983E+03  0.15857690463E+03  0.47000000000E+01 0.  1.
         11    1    4    4    0    0  0.72272165532E+01  0.38457110808E+02 -0.56444615539E+02  0.68681705382E+02  0.00000000000E+00 0. -1.
        -12    1    4    4    0    0 -0.61885719081E+02  0.11830584259E+01 -0.16596802689E+03  0.17713449072E+03  0.00000000000E+00 0.  1.
</event>
<event>
12    1  0.8691829E-002  0.1847302E+03  0.7818608E-02  0.1163389E+00
         21   -1    0    0  503  502  0.00000000000E+00  0.00000000000E+00  0.17853928934E+03  0.17853928934E+03  0.00000000000E+00 0. -1.
         21   -1    0    0  501  503 -0.00000000000E+00 -0.00000000000E+00 -0.19804587109E+03  0.19804587109E+03  0.00000000000E+00 0. -1.
          6    2    1    2  501    0 -0.63664622925E+02 -0.63680177324E+01  0.26368310913E+02  0.18660259357E+03  0.17329600181E+03 0.  0.
         24    2    3    3    0    0 -0.26331657409E+01 -0.90121570514E+01 -0.45200349706E+02  0.92390102774E+02  0.80029412972E+02 0.  0.
         -6    2    1    2    0  502  0.63664622925E+02  0.63680177324E+01 -0.45874892668E+02  0.18998256686E+03  0.17290209389E+03 0.  0.
        -24    2    5    5    0    0 -0.32111666976E+02 -0.12088977438E+01 -0.36626814193E+02  0.93348596066E+02  0.79622963270E+02 0.  0.
          5    1    3    3  501    0 -0.61031457184E+02  0.26441393190E+01  0.71568660620E+02  0.94212490794E+02  0.47000000000E+01 0. -1.
        -13    1    4    4    0    0 -0.95318668775E+01 -0.43206398416E+02 -0.33843065874E+02  0.55704599972E+02  0.00000000000E+00 0.  1.
         14    1    4    4    0    0  0.68987011366E+01  0.34194241364E+02 -0.11357283832E+02  0.36685502803E+02  0.00000000000E+00 0. -1.
         -5    1    5    5    0  502  0.95776289901E+02  0.75769154762E+01 -0.92480784754E+01  0.96633970791E+02  0.47000000000E+01 0.  1.
         13    1    6    6    0    0  0.20257067126E+02 -0.19545073963E+02 -0.22647943201E+02  0.36128769922E+02  0.00000000000E+00 0. -1.
        -14    1    6    6    0    0 -0.52368734102E+02  0.18336176220E+02 -0.13978870992E+02  0.57219826145E+02  0.00000000000E+00 0.  1.
</event>
<event>
12    1  0.8691829E-002  0.2047631E+03  0.7818608E-02  0.1145950E+00
         21   -1    0    0  503  502  0.00000000000E+00  0.00000000000E+00  0.51320863319E+03  0.51320863319E+03  0.00000000000E+00 0.  1.
         21   -1    0    0  501  503 -0.00000000000E+00 -0.00000000000E+00 -0.83739231925E+02  0.83739231925E+02  0.00000000000E+00 0. -1.
          6    2    1    2  501    0  0.53866183756E+02 -0.95956936279E+02  0.26535300482E+03  0.33517179159E+03  0.17268066868E+03 0.  0.
         24    2    3    3    0    0 -0.23503919097E+02 -0.87049620239E+02  0.20454204411E+03  0.23624992324E+03  0.76462460233E+02 0.  0.
         -6    2    1    2    0  502 -0.53866183756E+02  0.95956936279E+02  0.16411639644E+03  0.26177607353E+03  0.17170678996E+03 0.  0.
        -24    2    5    5    0    0 -0.98383746359E+02  0.78209181512E+02  0.92714094040E+02  0.17565305124E+03  0.80386899162E+02 0.  0.
          5    1    3    3  501    0  0.77370102853E+02 -0.89073160399E+01  0.60810960711E+02  0.98921868346E+02  0.47000000000E+01 0. -1.
        -13    1    4    4    0    0 -0.18400818415E+02 -0.92418613267E+02  0.12589925030E+03  0.15725905831E+03  0.00000000000E+00 0.  1.
         14    1    4    4    0    0 -0.51031006823E+01  0.53689930278E+01  0.78642793817E+02  0.78990864928E+02  0.00000000000E+00 0. -1.
         -5    1    5    5    0  502  0.44517562603E+02  0.17747754767E+02  0.71402302404E+02  0.86123022288E+02  0.47000000000E+01 0.  1.
         11    1    6    6    0    0 -0.10057615462E+03  0.40325612594E+02  0.82966836921E+02  0.13647422445E+03  0.00000000000E+00 0. -1.
        -12    1    6    6    0    0  0.21924082606E+01  0.37883568918E+02  0.97472571194E+01  0.39178826798E+02  0.00000000000E+00 0.  1.
</event>
<event>
12    1  0.8691829E-002  0.2635891E+03  0.7818608E-02  0.1105045E+00
         21   -1    0    0  501  502  0.00000000000E+00  0.00000000000E+00  0.13940317304E+04  0.13940317304E+04  0.00000000000E+00 0. -1.
         21   -1    0    0  502  503 -0.00000000000E+00 -0.00000000000E+00 -0.58481861974E+03  0.58481861974E+03  0.00000000000E+00 0.  1.
         -6    2    1    2    0  503  0.18970382854E+03 -0.62979784893E+02 -0.54177967274E+03  0.60238360030E+03  0.17142576309E+03 0.  0.
        -24    2    3    3    0    0  0.15311165299E+03  0.63760557541E+01 -0.44686941189E+03  0.47917943009E+03  0.80229810978E+02 0.  0.
          6    2    1    2  501    0 -0.18970382854E+03  0.62979784893E+02  0.13509927834E+04  0.13764667498E+04  0.17182903351E+03 0.  0.
         24    2    5    5    0    0 -0.14484466598E+03 -0.93079716654E+01  0.10708316363E+04  0.10836353606E+04  0.80737758943E+02 0.  0.
          5    1    5    5  501    0 -0.44859162558E+02  0.72287756559E+02  0.28016114704E+03  0.29283138924E+03  0.47000000000E+01 0. -1.
        -13    1    6    6    0    0 -0.89044008118E+02  0.15915968630E+01  0.37271182983E+03  0.38320422317E+03  0.00000000000E+00 0.  1.
         14    1    6    6    0    0 -0.55800657864E+02 -0.10899568528E+02  0.69811980650E+03  0.70043113740E+03  0.00000000000E+00 0. -1.
         -5    1    3    3    0  503  0.36592175553E+02 -0.69355840647E+02 -0.94910260849E+02  0.12320417021E+03  0.47000000000E+01 0.  1.
         13    1    4    4    0    0  0.12668521919E+03 -0.10453531792E+02 -0.41680416211E+03  0.43575696281E+03  0.00000000000E+00 0. -1.
        -14    1    4    4    0    0  0.26426433792E+02  0.16829587546E+02 -0.30065249786E+02  0.43422467280E+02  0.00000000000E+00 0.  1.
</event>
<event>
12    1  0.8691829E-002  0.1775676E+03  0.7818608E-02  0.1170260E+00
         21   -1    0    0  503  502  0.00000000000E+00  0.00000000000E+00  0.17629632078E+03  0.17629632078E+03  0.00000000000E+00 0.  1.
         21   -1    0    0  501  503 -0.00000000000E+00 -0.00000000000E+00 -0.33661952219E+03  0.33661952219E+03  0.00000000000E+00 0.  1.
          6    2    1    2  501    0  0.33293151989E+02  0.26149921956E+02 -0.25596121753E+03  0.31152272205E+03  0.17244711969E+03 0.  0.
         24    2    3    3    0    0  0.45435904561E+02  0.13270203582E+02 -0.27191246928E+03  0.28723556458E+03  0.79544697403E+02 0.  0.
         -6    2    1    2    0  502 -0.33293151989E+02 -0.26149921956E+02  0.95638016120E+02  0.20139312091E+03  0.17210551018E+03 0.  0.
        -24    2    5    5    0    0 -0.46066879781E+02  0.26986634167E+02  0.49229133403E+01  0.95383774198E+02  0.78888487551E+02 0.  0.
          5    1    3    3  501    0 -0.12142752572E+02  0.12879718374E+02  0.15951251755E+02  0.24287157470E+02  0.47000000000E+01 0. -1.
        -13    1    4    4    0    0  0.40921038407E+02  0.41416279880E+02 -0.22437908094E+03  0.23180986085E+03  0.00000000000E+00 0.  1.
         14    1    4    4    0    0  0.45148661541E+01 -0.28146076297E+02 -0.47533388343E+02  0.55425703737E+02  0.00000000000E+00 0. -1.
         -5    1    5    5    0  502  0.12773727791E+02 -0.53136556123E+02  0.90715102780E+02  0.10600934671E+03  0.47000000000E+01 0.  1.
         11    1    6    6    0    0  0.27391212732E+01  0.52144051615E+01 -0.30633163658E+02  0.31194286692E+02  0.00000000000E+00 0. -1.
        -12    1    6    6    0    0 -0.48806001054E+02  0.21772229006E+02  0.35556076998E+02  0.64189487506E+02  0.00000000000E+00 0.  1.
</event>
<event>
12    1  0.8691829E-002  0.2136400E+03  0.7818608E-02  0.1138957E+00
         21   -1    0    0  501  502  0.00000000000E+00  0.00000000000E+00  0.20770115352E+03  0.20770115352E+03  0.00000000000E+00 0. -1.
         21   -1    0    0  502  503 -0.00000000000E+00 -0.00000000000E+00 -0.33590378806E+03  0.33590378806E+03  0.00000000000E+00 0. -1.
         -6    2    1    2    0  503  0.50218432906E+02  0.11518514981E+03 -0.22468648985E+03  0.30918825365E+03  0.17124207349E+03 0.  0.
        -24    2    3    3    0    0  0.79124759921E+02  0.13313357191E+03 -0.21186942401E+03  0.27252643735E+03  0.73462443610E+02 0.  0.
          6    2    1    2  501    0 -0.50218432906E+02 -0.11518514981E+03  0.96483855309E+02  0.23441668793E+03  0.17277887460E+03 0.  0.
         24    2    5    5    0    0 -0.17364828341E+02 -0.99698210665E+01 -0.87599174819E+01  0.81943849546E+02  0.78975462827E+02 0.  0.
          5    1    5    5  501    0 -0.32853604565E+02 -0.10521532874E+03  0.10524377279E+03  0.15247283839E+03  0.47000000000E+01 0. -1.
        -11    1    6    6    0    0 -0.37882693253E+02 -0.13176144407E+01  0.22108600472E+02  0.43881941282E+02  0.00000000000E+00 0.  1.
         12    1    6    6    0    0  0.20517864912E+02 -0.86522066258E+01 -0.30868517954E+02  0.38061908264E+02  0.00000000000E+00 0. -1.
         -5    1    3    3    0  503 -0.28906327015E+02 -0.17948422106E+02 -0.12817065840E+02  0.36661816299E+02  0.47000000000E+01 0.  1.
         11    1    4    4    0    0  0.95291211262E+01  0.44933081482E+02 -0.11624344920E+03  0.12498930131E+03  0.00000000000E+00 0. -1.
        -12    1    4    4    0    0  0.69595638794E+02  0.88200490430E+02 -0.95625974814E+02  0.14753713604E+03  0.00000000000E+00 0.  1.
</event>
<event>
12    1  0.8691829E-002  0.2245085E+03  0.7818608E-02  0.1130714E+00
         21   -1    0    0  501  502  0.00000000000E+00  0.00000000000E+00  0.20018613130E+03  0.20018613130E+03  0.00000000000E+00 0. -1.
         21   -1    0    0  502  503 -0.00000000000E+00 -0.00000000000E+00 -0.25101571608E+03  0.25101571608E+03  0.00000000000E+00 0. -1.
         -6    2    1    2    0  503  0.30001018980E+02 -0.14144817330E+03 -0.20091000927E+02  0.22540569096E+03  0.17174524835E+03 0.  0.
        -24    2    3    3    0    0  0.18309306813E+02 -0.17188558571E+03 -0.82443823082E+01  0.19039762646E+03  0.79393960903E+02 0.  0.
          6    2    1    2  501    0 -0.30001018980E+02  0.14144817330E+03 -0.30738583854E+02  0.22579615642E+03  0.17067922207E+03 0.  0.
         24    2    5    5    0    0 -0.26260578932E+02  0.11219572698E+03 -0.85121184010E+02  0.16375380228E+03  0.79323342314E+02 0.  0.
          5    1    5    5  501    0 -0.37404400474E+01  0.29252446320E+02  0.54382600156E+02  0.62042354140E+02  0.47000000000E+01 0. -1.
        -13    1    6    6    0    0  0.10815951151E+02 -0.74071487278E+01 -0.15300226701E+01  0.13198167333E+02  0.00000000000E+00 0.  1.
         14    1    6    6    0    0 -0.37076530083E+02  0.11960287571E+03 -0.83591161340E+02  0.15055563495E+03  0.00000000000E+00 0. -1.
         -5    1    3    3    0  503  0.11691712167E+02  0.30437412413E+02 -0.11846618619E+02  0.35008064506E+02  0.47000000000E+01 0.  1.
         13    1    4    4    0    0 -0.19325307249E+02 -0.43171205976E+02 -0.27818021560E+02  0.54873152353E+02  0.00000000000E+00 0. -1.
        -14    1    4    4    0    0  0.37634614062E+02 -0.12871437974E+03  0.19573639252E+02  0.13552447410E+03  0.00000000000E+00 0.  1.
</event>
<event>
12    1  0.8691829E-002  0.1841012E+03  0.7818608E-02  0.1164490E+00
         21   -1    0    0  501  502  0.00000000000E+00  0.00000000000E+00  0.87430485577E+02  0.87430485577E+02  0.00000000000E+00 0. -1.
         21   -1    0    0  502  503 -0.00000000000E+00 -0.00000000000E+00 -0.43413948935E+03  0.43413948935E+03  0.00000000000E+00 0.  1.
         -6    2    1    2    0  503 -0.18829284814E+02  0.54152477320E+02 -0.26447095536E+03  0.32223923733E+03  0.17494629770E+03 0.  0.
        -24    2    3    3    0    0 -0.64649627422E+00  0.90508487812E+02 -0.11437598457E+03  0.16666622053E+03  0.80644645804E+02 0.  0.
          6    2    1    2  501    0  0.18829284814E+02 -0.54152477320E+02 -0.82238048419E+02  0.19933073761E+03  0.17228642889E+03 0.  0.
         24    2    5    5    0    0  0.43905570569E+02  0.28829919378E+01  0.68665876813E+01  0.90502473652E+02  0.78787923828E+02 0.  0.
          5    1    5    5  501    0 -0.25076285755E+02 -0.57035469258E+02 -0.89104636101E+02  0.10882826395E+03  0.47000000000E+01 0. -1.
        -11    1    6    6    0    0  0.46125227023E+02 -0.31087886811E+02 -0.70141209123E+00  0.55628097696E+02  0.00000000000E+00 0.  1.
         12    1    6    6    0    0 -0.22196564545E+01  0.33970878749E+02  0.75679997725E+01  0.34874375956E+02  0.00000000000E+00 0. -1.
         -5    1    3    3    0  503 -0.18182788540E+02 -0.36356010492E+02 -0.15009497079E+03  0.15557301679E+03  0.47000000000E+01 0.  1.
         11    1    4    4    0    0  0.84546746714E+01  0.26066258302E+02  0.75792473522E+01  0.28431959765E+02  0.00000000000E+00 0. -1.
        -12    1    4    4    0    0 -0.91011709456E+01  0.64442229510E+02 -0.12195523192E+03  0.13823426077E+03  0.00000000000E+00 0.  1.
</event>
<event>
12    1  0.8691829E-002  0.2154847E+03  0.7818608E-02  0.1139084E+00
         21   -1    0    0  503  502  0.00000000000E+00  0.00000000000E+00  0.54602976617E+02  0.54602976617E+02  0.00000000000E+00 0.  1.
         21   -1    0    0  501  503 -0.00000000000E+00 -0.00000000000E+00 -0.89016601603E+03  0.89016601603E+03  0.00000000000E+00 0.  1.
          6    2    1    2  501    0  0.11322377941E+03  0.55934242954E+01 -0.56353410014E+03  0.60332773346E+03  0.18325599943E+03 0.  0.
         24    2    3    3    0    0  0.15426960480E+03  0.11305083334E+02 -0.45549468616E+03  0.48751759658E+03  0.79190163419E+02 0.  0.
         -6    2    1    2    0  502 -0.11322377941E+03 -0.55934242954E+01 -0.27202893928E+03  0.34144125919E+03  0.17242818521E+03 0.  0.
        -24    2    5    5    0    0 -0.69369638186E+02  0.56461032160E+02 -0.21670316383E+03  0.24732976841E+03  0.78814708477E+02 0.  0.
          5    1    3    3  501    0 -0.41045825393E+02 -0.57116590382E+01 -0.10803941398E+03  0.11581013688E+03  0.47000000000E+01 0. -1.
        -13    1    4    4    0    0  0.12079816018E+02  0.26004784428E+02 -0.10866713879E+03  0.11238646637E+03  0.00000000000E+00 0.  1.
         14    1    4    4    0    0  0.14218978878E+03 -0.14699701094E+02 -0.34682754736E+03  0.37513113022E+03  0.00000000000E+00 0. -1.
         -5    1    5    5    0  502 -0.43854141222E+02 -0.62054456455E+02 -0.55325775450E+02  0.94111490783E+02  0.47000000000E+01 0.  1.
         11    1    6    6    0    0 -0.61482679715E+02  0.62859191236E-01 -0.98303578722E+02  0.11594704587E+03  0.00000000000E+00 0. -1.
        -12    1    6    6    0    0 -0.78869584718E+01  0.56398172969E+02 -0.11839958511E+03  0.13138272254E+03  0.00000000000E+00 0.  1.
</event>
<event>
12    1  0.8691829E-002  0.2928192E+03  0.7818608E-02  0.1088896E+00
         21   -1    0    0  501  502  0.00000000000E+00  0.00000000000E+00  0.31983150693E+03  0.31983150693E+03  0.00000000000E+00 0.  1.
         21   -1    0    0  502  503 -0.00000000000E+00 -0.00000000000E+00 -0.28671283422E+03  0.28671283422E+03  0.00000000000E+00 0. -1.
         -6    2    1    2    0  503  0.15924348056E+03 -0.17573503484E+03  0.94005357377E+02  0.30753878427E+03  0.17176090371E+03 0.  0.
        -24    2    3    3    0    0  0.11585964158E+03 -0.63064675804E+02 -0.15126117011E+01  0.15351755292E+03  0.78515865768E+02 0.  0.
          6    2    1    2  501    0 -0.15924348056E+03  0.17573503484E+03 -0.60886684666E+02  0.29900555687E+03  0.17162705527E+03 0.  0.
         24    2    5    5    0    0 -0.23151517450E+02  0.10477121624E+03 -0.57896359773E+02  0.14542197046E+03  0.79262604708E+02 0.  0.
          5    1    5    5  501    0 -0.13609196311E+03  0.70963818604E+02 -0.29903248932E+01  0.15358358642E+03  0.47000000000E+01 0. -1.
        -11    1    6    6    0    0 -0.25404324124E+02  0.33051605000E+02 -0.60672325551E+02  0.73613309700E+02  0.00000000000E+00 0.  1.
         12    1    6    6    0    0  0.22528066742E+01  0.71719611237E+02  0.27759657782E+01  0.71808660759E+02  0.00000000000E+00 0. -1.
         -5    1    3    3    0  503  0.43383838974E+02 -0.11267035904E+03  0.95517969078E+02  0.15402123135E+03  0.47000000000E+01 0.  1.
         11    1    4    4    0    0  0.81302834068E+01  0.16395648252E+02  0.64826849403E+01  0.19415045555E+02  0.00000000000E+00 0. -1.
        -12    1    4    4    0    0  0.10772935818E+03 -0.79460324056E+02 -0.79952966414E+01  0.13410250736E+03  0.00000000000E+00 0.  1.
</event>
<event>
12    1  0.8691829E-002  0.2007708E+03  0.7818608E-02  0.1149202E+00
         21   -1    0    0  503  502  0.00000000000E+00  0.00000000000E+00  0.19994457217E+03  0.19994457217E+03  0.00000000000E+00 0. -1.
         21   -1    0    0  501  503 -0.00000000000E+00 -0.00000000000E+00 -0.24100517337E+03  0.24100517337E+03  0.00000000000E+00 0. -1.
          6    2    1    2  501    0  0.51673149424E+02  0.89582942389E+02 -0.11026067421E+03  0.22858789060E+03  0.17146366820E+03 0.  0.
         24    2    3    3    0    0  0.32807391055E+02  0.22579354308E+02 -0.12901778236E+03  0.15634305161E+03  0.78812495673E+02 0.  0.
         -6    2    1    2    0  502 -0.51673149424E+02 -0.89582942389E+02  0.69200073010E+02  0.21236185494E+03  0.17208628473E+03 0.  0.
        -24    2    5    5    0    0 -0.92528064509E+01 -0.87859124015E+02  0.10271370768E+03  0.15806903077E+03  0.81430170348E+02 0.  0.
          5    1    3    3  501    0  0.18865758369E+02  0.67003588081E+02  0.18757108148E+02  0.72244838990E+02  0.47000000000E+01 0. -1.
        -13    1    4    4    0    0  0.25187929893E+02  0.14039093029E+02 -0.21025224378E+01  0.28912774788E+02  0.00000000000E+00 0.  1.
         14    1    4    4    0    0  0.76194611627E+01  0.85402612791E+01 -0.12691525992E+03  0.12743027682E+03  0.00000000000E+00 0. -1.
         -5    1    5    5    0  502 -0.42420342974E+02 -0.17238183745E+01 -0.33513634672E+02  0.54292824173E+02  0.47000000000E+01 0.  1.
         11    1    6    6    0    0 -0.28194937126E+02 -0.83010697986E+02  0.47961257095E+02  0.99930038736E+02  0.00000000000E+00 0. -1.
        -12    1    6    6    0    0  0.18942130675E+02 -0.48484260290E+01  0.54752450587E+02  0.58138992035E+02  0.00000000000E+00 0.  1.
</event>
<event>
12    1  0.8691829E-002  0.2137134E+03  0.7818608E-02  0.1139194E+00
         21   -1    0    0  503  502  0.00000000000E+00  0.00000000000E+00  0.39567897034E+03  0.39567897034E+03  0.00000000000E+00 0. -1.
         21   -1    0    0  501  503 -0.00000000000E+00 -0.00000000000E+00 -0.21731220531E+03  0.21731220531E+03  0.00000000000E+00 0. -1.
          6    2    1    2  501    0 -0.71208407846E+02  0.99381781667E+02 -0.12188907194E+03  0.24602914897E+03  0.17528839211E+03 0.  0.
         24    2    3    3    0    0 -0.76892883406E+02  0.78979132360E+02 -0.15554251228E+02  0.13750373509E+03  0.80716315367E+02 0.  0.
         -6    2    1    2    0  502  0.71208407846E+02 -0.99381781667E+02  0.30025583697E+03  0.36696202669E+03  0.17193075793E+03 0.  0.
        -24    2    5    5    0    0  0.22016011761E+02 -0.65077068494E+02  0.65100860430E+02  0.12423448773E+03  0.80475811866E+02 0.  0.
          5    1    3    3  501    0  0.56844755604E+01  0.20402649307E+02 -0.10633482071E+03  0.10852541387E+03  0.47000000000E+01 0. -1.
        -11    1    4    4    0    0 -0.47879589614E+02  0.11104245156E+02  0.22955135599E+02  0.54246636876E+02  0.00000000000E+00 0.  1.
         12    1    4    4    0    0 -0.29013293792E+02  0.67874887205E+02 -0.38509386827E+02  0.83257098217E+02  0.00000000000E+00 0. -1.
         -5    1    5    5    0  502  0.49192396085E+02 -0.34304713173E+02  0.23515497654E+03  0.24272753896E+03  0.47000000000E+01 0.  1.
         11    1    6    6    0    0 -0.10932936942E+02 -0.71246536635E+02  0.48026924949E+02  0.86615146554E+02  0.00000000000E+00 0. -1.
        -12    1    6    6    0    0  0.32948948703E+02  0.61694681406E+01  0.17073935481E+02  0.37619341177E+02  0.00000000000E+00 0.  1.
</event>
<event>
12    1  0.8691829E-002  0.3716732E+03  0.7818608E-02  0.1054066E+00
         21   -1    0    0  501  502  0.00000000000E+00  0.00000000000E+00  0.18237557169E+03  0.18237557169E+03  0.00000000000E+00 0. -1.
         21   -1    0    0  502  503 -0.00000000000E+00 -0.00000000000E+00 -0.81061540802E+03  0.81061540802E+03  0.00000000000E+00 0. -1.
         -6    2    1    2    0  503 -0.20043860269E+03  0.26213630649E+03 -0.44159744581E+03  0.57719086635E+03  0.17102606653E+03 0.  0.
        -24    2    3    3    0    0 -0.23581222450E+02  0.11150560926E+03 -0.17700187387E+03  0.22505304308E+03  0.79558996327E+02 0.  0.
          6    2    1    2  501    0  0.20043860269E+03 -0.26213630649E+03 -0.18664239052E+03  0.41580011336E+03  0.17077258474E+03 0.  0.
         24    2    5    5    0    0  0.55688163942E+02 -0.63324429579E+02 -0.10546243139E+03  0.15678056258E+03  0.79665961266E+02 0.  0.
          5    1    5    5  501    0  0.14475043875E+03 -0.19881187691E+03 -0.81179959132E+02  0.25901955077E+03  0.47000000000E+01 0. -1.
        -11    1    6    6    0    0 -0.16887648205E+02 -0.93504045672E+01 -0.20750502669E+01  0.19414648106E+02  0.00000000000E+00 0.  1.
         12    1    6    6    0    0  0.72575812147E+02 -0.53974025012E+02 -0.10338738112E+03  0.13736591448E+03  0.00000000000E+00 0. -1.
         -5    1    3    3    0  503 -0.17685738024E+03  0.15063069723E+03 -0.26459557194E+03  0.35213782328E+03  0.47000000000E+01 0.  1.
         13    1    4    4    0    0 -0.44333397898E+02  0.65897323244E+02 -0.14578887863E+03  0.16601898841E+03  0.00000000000E+00 0. -1.
        -14    1    4    4    0    0  0.20752175449E+02  0.45608286012E+02 -0.31212995243E+02  0.59034054670E+02  0.00000000000E+00 0.  1.
</event>
<event>
12    1  0.8691829E-002  0.1737549E+03  0.7818608E-02  0.1174066E+00
         21   -1    0    0  501  502  0.00000000000E+00  0.00000000000E+00  0.61547903852E+03  0.61547903852E+03  0.00000000000E+00 0. -1.
         21   -1    0    0  502  503 -0.00000000000E+00 -0.00000000000E+00 -0.50683124218E+02  0.50683124218E+02  0.00000000000E+00 0. -1.
         -6    2    1    2    0  503  0.91568720350E+01  0.26497104069E+02  0.22132406027E+03  0.28138072714E+03  0.17147836343E+03 0.  0.
        -24    2    3    3    0    0 -0.39056568142E+01  0.38957120138E+02  0.34897502894E+02  0.94023226745E+02  0.78036017932E+02 0.  0.
          6    2    1    2  501    0 -0.91568720350E+01 -0.26497104069E+02  0.34347185404E+03  0.38478143560E+03  0.17116627541E+03 0.  0.
         24    2    5    5    0    0  0.39318725544E+02  0.34453255331E+02  0.19653723934E+03  0.21841827601E+03  0.79665976849E+02 0.  0.
          5    1    5    5  501    0 -0.48475597579E+02 -0.60950359400E+02  0.14693461469E+03  0.16636315958E+03  0.47000000000E+01 0. -1.
        -13    1    6    6    0    0 -0.11978697798E+02  0.59160394438E+01  0.12575278296E+03  0.12646047266E+03  0.00000000000E+00 0.  1.
         14    1    6    6    0    0  0.51297423342E+02  0.28537215887E+02  0.70784456384E+02  0.91957803354E+02  0.00000000000E+00 0. -1.
         -5    1    3    3    0  503  0.13062528849E+02 -0.12460016068E+02  0.18642655738E+03  0.18735750040E+03  0.47000000000E+01 0.  1.
         11    1    4    4    0    0 -0.92763152864E+00  0.31184321572E+02  0.59972948718E+02  0.67602344560E+02  0.00000000000E+00 0. -1.
        -12    1    4    4    0    0 -0.29780252856E+01  0.77727985660E+01 -0.25075445824E+02  0.26420882185E+02  0.00000000000E+00 0.  1.
</event>
<event>
12    1  0.8691829E-002  0.1759532E+03  0.7818608E-02  0.1172027E+00
         21   -1    0    0  503  502  0.00000000000E+00  0.00000000000E+00  0.15593127899E+03  0.15593127899E+03  0.00000000000E+00 0. -1.
         21   -1    0    0  501  503 -0.00000000000E+00 -0.00000000000E+00 -0.24928124716E+03  0.24928124716E+03  0.00000000000E+00 0. -1.
          6    2    1    2  501    0 -0.37935678432E+02  0.20380808481E+01 -0.13897915965E+03  0.22343918370E+03  0.17078229570E+03 0.  0.
         24    2    3    3    0    0 -0.47904042001E+02  0.26082570945E+02 -0.19310347218E+02  0.10088217474E+03  0.82639130704E+02 0.  0.
         -6    2    1    2    0  502  0.37935678432E+02 -0.20380808481E+01  0.45629191480E+02  0.18177334245E+03  0.17180295526E+03 0.  0.
        -24    2    5    5    0    0  0.40768084920E+02 -0.56698708326E+02  0.64856239845E+02  0.12357045496E+03  0.78654594389E+02 0.  0.
          5    1    3    3  501    0  0.99683635687E+01 -0.24044490097E+02 -0.11966881243E+03  0.12255700896E+03  0.47000000000E+01 0. -1.
        -13    1    4    4    0    0 -0.32475874162E+02  0.54336266984E+02  0.79969271483E-01  0.63301806510E+02  0.00000000000E+00 0.  1.
         14    1    4    4    0    0 -0.15428167839E+02 -0.28253696039E+02 -0.19390316489E+02  0.37580368230E+02  0.00000000000E+00 0. -1.
         -5    1    5    5    0  502 -0.28324064881E+01  0.54660627478E+02 -0.19227048365E+02  0.58202887486E+02  0.47000000000E+01 0.  1.
         11    1    6    6    0    0  0.26380498257E+01 -0.53745130284E+01  0.59068339673E+02  0.59370981539E+02  0.00000000000E+00 0. -1.
        -12    1    6    6    0    0  0.38130035095E+02 -0.51324195298E+02  0.57879001722E+01  0.64199473422E+02  0.00000000000E+00 0.  1.
</event>
<event>
12    1  0.8691829E-002  0.1810339E+03  0.7818608E-02  0.1168356E+00
         21   -1    0    0  501  502  0.00000000000E+00  0.00000000000E+00  0.17409379618E+03  0.17409379618E+03  0.00000000000E+00 0.  1.
         21   -1    0    0  502  503 -0.00000000000E+00 -0.00000000000E+00 -0.20830101920E+03  0.20830101920E+03  0.00000000000E+00 0.  1.
         -6    2    1    2    0  503  0.17434007532E+02 -0.34857277794E+02  0.51444791246E+02  0.18212112557E+03  0.17030138989E+03 0.  0.
        -24    2    3    3    0    0 -0.30755819439E+02 -0.36166355760E+02 -0.20776875447E+02  0.95161179337E+02  0.79812566561E+02 0.  0.
          6    2    1    2  501    0 -0.17434007532E+02  0.34857277794E+02 -0.85652014264E+02  0.20027368981E+03  0.17678888214E+03 0.  0.
         24    2    5    5    0    0 -0.41831765809E+02  0.55391745427E+02  0.30420500054E+01  0.10590398065E+03  0.79926572290E+02 0.  0.
          5    1    5    5  501    0  0.24397758278E+02 -0.20534467633E+02 -0.88694064270E+02  0.94369709158E+02  0.47000000000E+01 0. -1.
        -13    1    6    6    0    0  0.32161123313E+01  0.37900100035E+01 -0.29607750626E+02  0.30022099385E+02  0.00000000000E+00 0.  1.
         14    1    6    6    0    0 -0.45047878141E+02  0.51601735423E+02  0.32649800631E+02  0.75881881269E+02  0.00000000000E+00 0. -1.
         -5    1    3    3    0  503  0.48189826971E+02  0.13090779657E+01  0.72221666693E+02  0.86959946231E+02  0.47000000000E+01 0.  1.
         11    1    4    4    0    0 -0.24265522760E+02 -0.56994304361E+01  0.27873250741E+02  0.37392742732E+02  0.00000000000E+00 0. -1.
        -12    1    4    4    0    0 -0.64902966793E+01 -0.30466925324E+02 -0.48650126188E+02  0.57768436605E+02  0.00000000000E+00 0.  1.
</event>
<event>
12    1  0.8691829E-002  0.2302060E+03  0.7818608E-02  0.1126907E+00
         21   -1    0    0  503  502  0.00000000000E+00  0.00000000000E+00  0.73494472379E+03  0.73494472379E+03  0.00000000000E+00 0.  1.
         21   -1    0    0  501  503 -0.00000000000E+00 -0.00000000000E+00 -0.21219727334E+03  0.21219727334E+03  0.00000000000E+00 0. -1.
          6    2    1    2  501    0  0.43249768871E+02 -0.14595640441E+03 -0.12396156517E+03  0.26145992671E+03  0.17268760563E+03 0.  0.
         24    2    3    3    0    0  0.65858555527E+02 -0.84858560871E+02 -0.14047921838E+03  0.19408762835E+03  0.79982948119E+02 0.  0.
         -6    2    1    2    0  502 -0.43249768871E+02  0.14595640441E+03  0.64670901562E+03  0.68568207041E+03  0.16956867725E+03 0.  0.
        -24    2    5    5    0    0  0.42643391830E+02  0.63336534556E+02  0.30754129285E+03  0.32615389055E+03  0.77231716499E+02 0.  0.
          5    1    3    3  501    0 -0.22608786656E+02 -0.61097843535E+02  0.16517653211E+02  0.67372298360E+02  0.47000000000E+01 0. -1.
        -11    1    4    4    0    0  0.83181894599E+02 -0.76659893719E+02 -0.10812628610E+03  0.15648405874E+03  0.00000000000E+00 0.  1.
         12    1    4    4    0    0 -0.17323339072E+02 -0.81986671516E+01 -0.32352932286E+02  0.37603569607E+02  0.00000000000E+00 0. -1.
         -5    1    5    5    0  502 -0.85893160701E+02  0.82619869850E+02  0.33916772277E+03  0.35952817987E+03  0.47000000000E+01 0.  1.
         13    1    6    6    0    0 -0.39599611711E+01 -0.15584990345E+02  0.32835483729E+02  0.36561485312E+02  0.00000000000E+00 0. -1.
        -14    1    6    6    0    0  0.46603353001E+02  0.78921524901E+02  0.27470580913E+03  0.28959240524E+03  0.00000000000E+00 0.  1.
</event>
<event>
12    1  0.8691829E-002  0.1905087E+03  0.7818608E-02  0.1158312E+00
         21   -1    0    0  503  502  0.00000000000E+00  0.00000000000E+00  0.10548100235E+04  0.10548100235E+04  0.00000000000E+00 0. -1.
         21   -1    0    0  501  503 -0.00000000000E+00 -0.00000000000E+00 -0.39648353234E+02  0.39648353234E+02  0.00000000000E+00 0. -1.
          6    2    1    2  501    0 -0.62948815858E+02 -0.47376056795E+02  0.30557440120E+03  0.36009620273E+03  0.17345465221E+03 0.  0.
         24    2    3    3    0    0 -0.90366677609E+02 -0.29570256348E+02  0.12577114019E+03  0.17728458290E+03  0.81061132156E+02 0.  0.
         -6    2    1    2    0  502  0.62948815858E+02  0.47376056795E+02  0.70958726908E+03  0.73436217402E+03  0.17194960315E+03 0.  0.
        -24    2    5    5    0    0  0.96676977466E+02  0.63215889346E+02  0.40442214164E+03  0.42689455917E+03  0.73068525107E+02 0.  0.
          5    1    3    3  501    0  0.27417861751E+02 -0.17805800446E+02  0.17980326101E+03  0.18281161983E+03  0.47000000000E+01 0. -1.
        -11    1    4    4    0    0 -0.60294551862E+02  0.17809216394E+02  0.39113662874E+02  0.74043769463E+02  0.00000000000E+00 0.  1.
         12    1    4    4    0    0 -0.30072125747E+02 -0.47379472743E+02  0.86657477316E+02  0.10324081344E+03  0.00000000000E+00 0. -1.
         -5    1    5    5    0  502 -0.33728161608E+02 -0.15839832551E+02  0.30516512743E+03  0.30746761485E+03  0.47000000000E+01 0.  1.
         13    1    6    6    0    0  0.41987161244E+02 -0.87106185972E+01  0.89101741581E+02  0.98883350158E+02  0.00000000000E+00 0. -1.
        -14    1    6    6    0    0  0.54689816222E+02  0.71926507943E+02  0.31532040006E+03  0.32801120901E+03  0.00000000000E+00 0.  1.
</event>
<event>
12    1  0.8691829E-002  0.2128645E+03  0.7818608E-02  0.1139503E+00
         21   -1    0    0  501  502  0.00000000000E+00  0.00000000000E+00  0.69023160425E+03  0.69023160425E+03  0.00000000000E+00 0. -1.
         21   -1    0    0  502  503 -0.00000000000E+00 -0.00000000000E+00 -0.10907389650E+03  0.10907389650E+03  0.00000000000E+00 0. -1.
         -6    2    1    2    0  503  0.12156980519E+03 -0.31139776260E+02  0.37944110097E+02  0.21621992529E+03  0.17193719029E+03 0.  0.
        -24    2    3    3    0    0  0.11866742893E+03 -0.81413172343E+02  0.30689723746E+02  0.16512634191E+03  0.74931877929E+02 0.  0.
          6    2    1    2  501    0 -0.12156980519E+03  0.31139776260E+02  0.54321359765E+03  0.58308557546E+03  0.17075969206E+03 0.  0.
         24    2    5    5    0    0 -0.12228473663E+03 -0.23372982494E+02  0.46222610840E+03  0.48534502395E+03  0.80043512306E+02 0.  0.
          5    1    5    5  501    0  0.71493143974E+00  0.54512758754E+02  0.80987489253E+02  0.97740551510E+02  0.47000000000E+01 0. -1.
        -13    1    6    6    0    0 -0.80163297688E+02 -0.26627879225E+02  0.16737060639E+03  0.18747831376E+03  0.00000000000E+00 0.  1.
         14    1    6    6    0    0 -0.42121438943E+02  0.32548967306E+01  0.29485550201E+03  0.29786671019E+03  0.00000000000E+00 0. -1.
         -5    1    3    3    0  503  0.29023762632E+01  0.50273396083E+02  0.72543863516E+01  0.51093583384E+02  0.47000000000E+01 0.  1.
         13    1    4    4    0    0  0.34223750571E+02 -0.68833165238E+02  0.14947867190E+02  0.78311611358E+02  0.00000000000E+00 0. -1.
        -14    1    4    4    0    0  0.84443678357E+02 -0.12580007104E+02  0.15741856556E+02  0.86814730554E+02  0.00000000000E+00 0.  1.
</event>
<event>
12    1  0.8691829E-002  0.2240570E+03  0.7818608E-02  0.1130963E+00
         21   -1    0    0  501  502  0.00000000000E+00  0.00000000000E+00  0.38977423431E+02  0.38977423431E+02  0.00000000000E+00 0. -1.
         21   -1    0    0  502  503 -0.00000000000E+00 -0.00000000000E+00 -0.15801331898E+04  0.15801331898E+04  0.00000000000E+00 0. -1.
         -6    2    1    2    0  503  0.12142218152E+03 -0.74713531533E+02 -0.11205098615E+04  0.11426915068E+04  0.17284696161E+03 0.  0.
        -24    2    3    3    0    0  0.14845007634E+03 -0.34968979036E+02 -0.78639217244E+03  0.80510173109E+03  0.80721086894E+02 0.  0.
          6    2    1    2  501    0 -0.12142218152E+03  0.74713531533E+02 -0.42064590487E+03  0.47641910639E+03  0.17235640309E+03 0.  0.
         24    2    5    5    0    0  0.28559144941E+00  0.34170388189E+01 -0.10954017430E+03  0.13479820909E+03  0.78484072725E+02 0.  0.
          5    1    5    5  501    0 -0.12170777297E+03  0.71296492714E+02 -0.31110573057E+03  0.34162089730E+03  0.47000000000E+01 0. -1.
        -13    1    6    6    0    0  0.21873427420E+02  0.17353910643E+02 -0.10506986061E+03  0.10871651507E+03  0.00000000000E+00 0.  1.
         14    1    6    6    0    0 -0.21587835971E+02 -0.13936871825E+02 -0.44703136888E+01  0.26081694014E+02  0.00000000000E+00 0. -1.
         -5    1    3    3    0  503 -0.27027894818E+02 -0.39744552497E+02 -0.33411768905E+03  0.33758977574E+03  0.47000000000E+01 0.  1.
         11    1    4    4    0    0  0.32350100634E+02 -0.30439987245E+02 -0.37484644101E+03  0.37746917248E+03  0.00000000000E+00 0. -1.
        -12    1    4    4    0    0  0.11609997571E+03 -0.45289917907E+01 -0.41154573144E+03  0.42763255862E+03  0.00000000000E+00 0.  1.
</event>
<event>
12    1  0.8691829E-002  0.2340652E+03  0.7818608E-02  0.1123846E+00
         21   -1    0    0  503  502  0.00000000000E+00  0.00000000000E+00  0.63689596752E+03  0.63689596752E+03  0.00000000000E+00 0. -1.
         21   -1    0    0  501  503 -0.00000000000E+00 -0.00000000000E+00 -0.86302672742E+02  0.86302672742E+02  0.00000000000E+00 0. -1.
          6    2    1    2  501    0  0.93779418962E+02 -0.12765862244E+03  0.25218566216E+03  0.34406995231E+03  0.17232301234E+03 0.  0.
         24    2    3    3    0    0  0.11102949414E+03 -0.90278842278E+02  0.11444286272E+03  0.20022982628E+03  0.80727916948E+02 0.  0.
         -6    2    1    2    0  502 -0.93779418962E+02  0.12765862244E+03  0.29840763262E+03  0.37912868795E+03  0.17204692243E+03 0.  0.
        -24    2    5    5    0    0 -0.12105185335E+02  0.12920811817E+03  0.17888297186E+03  0.23427940109E+03  0.77758901986E+02 0.  0.
          5    1    3    3  501    0 -0.17250075175E+02 -0.37379780163E+02  0.13774279944E+03  0.14384012603E+03  0.47000000000E+01 0. -1.
        -13    1    4    4    0    0  0.15810831059E+02 -0.61273332323E+01  0.59352258139E+02  0.61726956328E+02  0.00000000000E+00 0.  1.
         14    1    4    4    0    0  0.95218663078E+02 -0.84151509046E+02  0.55090604583E+02  0.13850286996E+03  0.00000000000E+00 0. -1.
         -5    1    5    5    0  502 -0.81674233627E+02 -0.15494957321E+01  0.11952466075E+03  0.14484928686E+03  0.47000000000E+01 0.  1.
         11    1    6    6    0    0  0.44624019227E+00 -0.10195450223E+02  0.20585966630E+02  0.22976691617E+02  0.00000000000E+00 0. -1.
        -12    1    6    6    0    0 -0.12551425527E+02  0.13940356840E+03  0.15829700523E+03  0.21130270947E+03  0.00000000000E+00 0.  1.
</event>
<event>
12    1  0.8691829E-002  0.2418040E+03  0.7818608E-02  0.1118664E+00
         21   -1    0    0  501  502  0.00000000000E+00  0.00000000000E+00  0.25628013397E+03  0.25628013397E+03  0.00000000000E+00 0.  1.
         21   -1    0    0  502  503 -0.00000000000E+00 -0.00000000000E+00 -0.23486169176E+03  0.23486169176E+03  0.00000000000E+00 0.  1.
         -6    2    1    2    0  503 -0.48002875710E+02  0.16150193728E+03  0.53408761225E+02  0.24763212852E+03  0.17344170051E+03 0.  0.
        -24    2    3    3    0    0 -0.71776260960E+02  0.17467686925E+03  0.22265266169E+02  0.20602972519E+03  0.79301105240E+02 0.  0.
          6    2    1    2  501    0  0.48002875710E+02 -0.16150193728E+03 -0.31990319021E+02  0.24350969722E+03  0.17287695134E+03 0.  0.
         24    2    5    5    0    0  0.22298166135E+01 -0.62065322750E+02  0.42511643592E+02  0.11101273241E+03  0.81605824220E+02 0.  0.
          5    1    5    5  501    0  0.45773059097E+02 -0.99436614534E+02 -0.74501962613E+02  0.13249696480E+03  0.47000000000E+01 0. -1.
        -11    1    6    6    0    0 -0.15555598342E+02  0.13709381406E+02 -0.28428253679E+01  0.20928579368E+02  0.00000000000E+00 0.  1.
         12    1    6    6    0    0  0.17785414956E+02 -0.75774704155E+02  0.45354468960E+02  0.90084153044E+02  0.00000000000E+00 0. -1.
         -5    1    3    3    0  503  0.23773385250E+02 -0.13174931971E+02  0.31143495056E+02  0.41602403332E+02  0.47000000000E+01 0.  1.
         13    1    4    4    0    0  0.67094408430E+01 -0.47161704237E+01 -0.26992694485E+01  0.86339397407E+01  0.00000000000E+00 0. -1.
        -14    1    4    4    0    0 -0.78485701803E+02  0.17939303968E+03  0.24964535618E+02  0.19739578544E+03  0.00000000000E+00 0.  1.
</event>
<event>
12    1  0.8691829E-002  0.1856238E+03  0.7818608E-02  0.1162611E+00
         21   -1    0    0  503  502  0.00000000000E+00  0.00000000000E+00  0.47674553679E+02  0.47674553679E+02  0.00000000000E+00 0. -1.
         21   -1    0    0  501  503 -0.00000000000E+00 -0.00000000000E+00 -0.78734318492E+03  0.78734318492E+03  0.00000000000E+00 0.  1.
          6    2    1    2  501    0 -0.14121839801E+02 -0.69121562109E+02 -0.24861054643E+03  0.31026345030E+03  0.17169446144E+03 0.  0.
         24    2    3    3    0    0 -0.38209904266E+02 -0.85638979766E+02 -0.25203206761E+03  0.28048331022E+03  0.79728869131E+02 0.  0.
         -6    2    1    2    0  502  0.14121839801E+02  0.69121562109E+02 -0.49105808482E+03  0.52475428830E+03  0.17103158690E+03 0.  0.
        -24    2    5    5    0    0 -0.35548378796E+02  0.28882791711E+02 -0.13830844851E+03  0.16622857769E+03  0.80030058216E+02 0.  0.
          5    1    3    3  501    0  0.24088064464E+02  0.16517417658E+02  0.34215211807E+01  0.29780140076E+02  0.47000000000E+01 0. -1.
        -11    1    4    4    0    0  0.15650288097E+02  0.20224363846E+01 -0.66364510153E+02  0.68214880886E+02  0.00000000000E+00 0.  1.
         12    1    4    4    0    0 -0.53860192363E+02 -0.87661416151E+02 -0.18566755745E+03  0.21226842934E+03  0.00000000000E+00 0. -1.
         -5    1    5    5    0  502  0.49670218597E+02  0.40238770397E+02 -0.35274963630E+03  0.35852571061E+03  0.47000000000E+01 0.  1.
         11    1    6    6    0    0 -0.21245152138E+02  0.56709332417E+02 -0.98020736754E+02  0.11521879060E+03  0.00000000000E+00 0. -1.
        -12    1    6    6    0    0 -0.14303226657E+02 -0.27826540705E+02 -0.40287711760E+02  0.51009787093E+02  0.00000000000E+00 0.  1.
</event>
<event>
12    1  0.8691829E-002  0.1889540E+03  0.7818608E-02  0.1159491E+00
         21   -1    0    0  501  502  0.00000000000E+00  0.00000000000E+00  0.21976026121E+03  0.21976026121E+03  0.00000000000E+00 0. -1.
         21   -1    0    0  502  503 -0.00000000000E+00 -0.00000000000E+00 -0.25875305484E+03  0.25875305484E+03  0.00000000000E+00 0.  1.
         -6    2    1    2    0  503 -0.34219766840E+02  0.70635068791E+02 -0.16567252569E+03  0.25102401161E+03  0.17147992084E+03 0.  0.
        -24    2    3    3    0    0 -0.64433515910E+02  0.68118070490E+01 -0.46313940757E+02  0.11226219709E+03  0.79118525642E+02 0.  0.
          6    2    1    2  501    0  0.34219766840E+02 -0.70635068791E+02  0.12667973206E+03  0.22748930444E+03  0.17188171436E+03 0.  0.
         24    2    5    5    0    0  0.22181385414E+02 -0.49129308666E+02 -0.10168060013E+01  0.97351238604E+02  0.81058786904E+02 0.  0.
          5    1    5    5  501    0  0.12038381426E+02 -0.21505760125E+02  0.12769653806E+03  0.13013806584E+03  0.47000000000E+01 0. -1.
        -13    1    6    6    0    0  0.44220401764E+02 -0.25346614275E+01 -0.89847119732E+01  0.45195060460E+02  0.00000000000E+00 0.  1.
         14    1    6    6    0    0 -0.22039016350E+02 -0.46594647239E+02  0.79679059719E+01  0.52156178144E+02  0.00000000000E+00 0. -1.
         -5    1    3    3    0  503  0.30213749070E+02  0.63823261742E+02 -0.11935858493E+03  0.13876181452E+03  0.47000000000E+01 0.  1.
         13    1    4    4    0    0 -0.49304371022E+02  0.19180391070E+02 -0.65958232372E+02  0.84553514540E+02  0.00000000000E+00 0. -1.
        -14    1    4    4    0    0 -0.15129144888E+02 -0.12368584021E+02  0.19644291615E+02  0.27708682552E+02  0.00000000000E+00 0.  1.
</event>
<event>
12    1  0.8691829E-002  0.1869810E+03  0.7818608E-02  0.1161266E+00
         21   -1    0    0  503  502  0.00000000000E+00  0.00000000000E+00  0.51523537479E+03  0.51523537479E+03  0.00000000000E+00 0. -1.
         21   -1    0    0  501  503 -0.00000000000E+00 -0.00000000000E+00 -0.11754261843E+03  0.11754261843E+03  0.00000000000E+00 0.  1.
          6    2    1    2  501    0  0.72376465100E+02 -0.63844278628E+00 -0.71019129452E+01  0.18688493090E+03  0.17215336163E+03 0.  0.
         24    2    3    3    0    0  0.78263611662E+02  0.58102630171E+02  0.47263565979E+01  0.12649312594E+03  0.80480208247E+02 0.  0.
         -6    2    1    2    0  502 -0.72376465100E+02  0.63844278628E+00  0.40479466930E+03  0.44589306232E+03  0.17240399770E+03 0.  0.
        -24    2    5    5    0    0  0.68308748092E+00  0.33393100318E+02  0.30969941974E+03  0.32149144536E+03  0.79545289588E+02 0.  0.
          5    1    3    3  501    0 -0.58871465622E+01 -0.58741072957E+02 -0.11828269543E+02  0.60391804967E+02  0.47000000000E+01 0. -1.
        -13    1    4    4    0    0  0.57630757863E+02  0.41767679938E+02 -0.34627415731E+02  0.79151129237E+02  0.00000000000E+00 0.  1.
         14    1    4    4    0    0  0.20632853799E+02  0.16334950232E+02  0.39353772329E+02  0.47341996700E+02  0.00000000000E+00 0. -1.
         -5    1    5    5    0  502 -0.73059552581E+02 -0.32754657532E+02  0.95095249562E+02  0.12440161696E+03  0.47000000000E+01 0.  1.
         11    1    6    6    0    0 -0.31890808184E+02  0.25905586343E+02  0.86020578544E+02  0.95329234674E+02  0.00000000000E+00 0. -1.
        -12    1    6    6    0    0  0.32573895665E+02  0.74875139750E+01  0.22367884119E+03  0.22616221068E+03  0.00000000000E+00 0.  1.
</event>
<event>
12    1  0.8691829E-002  0.1789068E+03  0.7818608E-02  0.1169150E+00
         21   -1    0    0  503  502  0.00000000000E+00  0.00000000000E+00  0.10419464196E+03  0.10419464196E+03  0.00000000000E+00 0.  1.
         21   -1    0    0  501  503 -0.00000000000E+00 -0.00000000000E+00 -0.31381112957E+03  0.31381112957E+03  0.00000000000E+00 0.  1.
          6    2    1    2  501    0 -0.16003117956E+02 -0.45274720156E+02 -0.69841466920E+02  0.19097118583E+03  0.17113229750E+03 0.  0.
         24    2    3    3    0    0 -0.69986210615E+02 -0.47897071814E+02 -0.68958476588E+02  0.13671327679E+03  0.82116072689E+02 0.  0.
         -6    2    1    2    0  502  0.16003117956E+02  0.45274720156E+02 -0.13977502069E+03  0.22703458570E+03  0.17234194679E+03 0.  0.
        -24    2    5    5    0    0 -0.58182455896E+02  0.23762873986E+02 -0.75804543490E+02  0.12663253967E+03  0.79621598417E+02 0.  0.
          5    1    3    3  501    0  0.53983092659E+02  0.26223516579E+01 -0.88299033154E+00  0.54257909038E+02  0.47000000000E+01 0. -1.
        -13    1    4    4    0    0 -0.33495016341E+02 -0.42780006592E+02  0.45124557471E+01  0.54519788523E+02  0.00000000000E+00 0.  1.
         14    1    4    4    0    0 -0.36491194274E+02 -0.51170652217E+01 -0.73470932335E+02  0.82193488272E+02  0.00000000000E+00 0. -1.
         -5    1    5    5    0  502  0.74185573852E+02  0.21511846170E+02 -0.63970477202E+02  0.10040204603E+03  0.47000000000E+01 0.  1.
         13    1    6    6    0    0 -0.38565693181E+02 -0.12098432041E+02 -0.75633531751E+02  0.85756141900E+02  0.00000000000E+00 0. -1.
        -14    1    6    6    0    0 -0.19616762715E+02  0.35861306027E+02 -0.17101173902E+00  0.40876397767E+02  0.00000000000E+00 0.  1.
</event>
<event>
12    1  0.8691829E-002  0.2305618E+03  0.7818608E-02  0.1126412E+00
         21   -1    0    0  503  502  0.00000000000E+00  0.00000000000E+00  0.14413951516E+03  0.14413951516E+03  0.00000000000E+00 0.  1.
         21   -1    0    0  501  503 -0.00000000000E+00 -0.00000000000E+00 -0.72011962024E+03  0.72011962024E+03  0.00000000000E+00 0. -1.
          6    2    1    2  501    0 -0.15181592048E+03 -0.20137236113E+02 -0.59016727838E+03  0.63326127906E+03  0.17108141072E+03 0.  0.
         24    2    3    3    0    0 -0.64066136495E+02 -0.15187954820E+02 -0.13983221474E+03  0.17440587753E+03  0.80803576768E+02 0.  0.
         -6    2    1    2    0  502  0.15181592048E+03  0.20137236113E+02  0.14187173298E+02  0.23099785634E+03  0.17235182552E+03 0.  0.
        -24    2    5    5    0    0  0.70944635007E+02 -0.55336589265E+02  0.41644430254E+01  0.11982677983E+03  0.79030596800E+02 0.  0.
          5    1    3    3  501    0 -0.87749783989E+02 -0.49492812931E+01 -0.45033506364E+03  0.45885540153E+03  0.47000000000E+01 0. -1.
        -11    1    4    4    0    0 -0.24755439072E+02 -0.57821574253E+01  0.33373509490E+01  0.25639871674E+02  0.00000000000E+00 0.  1.
         12    1    4    4    0    0 -0.39310697424E+02 -0.94057973948E+01 -0.14316956569E+03  0.14876600585E+03  0.00000000000E+00 0. -1.
         -5    1    5    5    0  502  0.80871285477E+02  0.75473825378E+02  0.10022730272E+02  0.11117107652E+03  0.47000000000E+01 0.  1.
         13    1    6    6    0    0  0.77950877148E+02 -0.34060905208E+02  0.25586820890E+02  0.88832257176E+02  0.00000000000E+00 0. -1.
        -14    1    6    6    0    0 -0.70062421414E+01 -0.21275684057E+02 -0.21422377865E+02  0.30994522652E+02  0.00000000000E+00 0.  1.
</event>
<event>
12    1  0.8691829E-002  0.2814474E+03  0.7818608E-02  0.1095201E+00
         21   -1    0    0  503  502  0.00000000000E+00  0.00000000000E+00  0.90788833227E+02  0.90788833227E+02  0.00000000000E+00 0.  1.
         21   -1    0    0  501  503 -0.00000000000E+00 -0.00000000000E+00 -0.99412198602E+03  0.99412198602E+03  0.00000000000E+00 0. -1.
          6    2    1    2  501    0  0.19417632419E+03  0.10871042713E+03 -0.64819196728E+03  0.70665795268E+03  0.17230854244E+03 0.  0.
         24    2    3    3    0    0  0.19062736994E+03  0.11142974860E+03 -0.44716308680E+03  0.50552443838E+03  0.82732995635E+02 0.  0.
         -6    2    1    2    0  502 -0.19417632419E+03 -0.10871042713E+03 -0.25514118551E+03  0.37825286657E+03  0.16868848413E+03 0.  0.
        -24    2    5    5    0    0 -0.78192270016E+02  0.99973842695E+01 -0.11378562799E+03  0.16019936636E+03  0.80639252615E+02 0.  0.
          5    1    3    3  501    0  0.35489542548E+01 -0.27193214717E+01 -0.20102888049E+03  0.20113351430E+03  0.47000000000E+01 0. -1.
        -11    1    4    4    0    0  0.16176118122E+02 -0.47676243569E+01 -0.75075411336E+01  0.18459691584E+02  0.00000000000E+00 0.  1.
         12    1    4    4    0    0  0.17445125181E+03  0.11619737296E+03 -0.43965554566E+03  0.48706474680E+03  0.00000000000E+00 0. -1.
         -5    1    5    5    0  502 -0.11598405418E+03 -0.11870781140E+03 -0.14135555752E+03  0.21805350021E+03  0.47000000000E+01 0.  1.
         11    1    6    6    0    0 -0.56960227019E+02  0.29194520195E+02 -0.11493160088E+03  0.13155250036E+03  0.00000000000E+00 0. -1.
        -12    1    6    6    0    0 -0.21232042997E+02 -0.19197135925E+02  0.11459728867E+01  0.28646865996E+02  0.00000000000E+00 0.  1.
</event>
<event>
12    1  0.8691829E-002  0.1859121E+03  0.7818608E-02  0.1166354E+00
         21   -1    0    0  501  502  0.00000000000E+00  0.00000000000E+00  0.12144511330E+03  0.12144511330E+03  0.00000000000E+00 0. -1.
         21   -1    0    0  502  503 -0.00000000000E+00 -0.00000000000E+00 -0.36644397571E+03  0.36644397571E+03  0.00000000000E+00 0.  1.
         -6    2    1    2    0  503  0.43885700950E+02 -0.52683485197E+02 -0.25023419163E+03  0.30190326815E+03  0.15435973664E+03 0.  0.
        -24    2    3    3    0    0  0.10464808978E+02 -0.18008967256E+02 -0.65491762442E+02  0.11092909880E+03  0.87076167145E+02 0.  0.
          6    2    1    2  501    0 -0.43885700950E+02  0.52683485197E+02  0.52353292237E+01  0.18598582086E+03  0.17280570746E+03 0.  0.
         24    2    5    5    0    0 -0.65090188499E+02  0.91837973412E+01  0.55896773910E+02  0.11576812285E+03  0.77179881856E+02 0.  0.
          5    1    5    5  501    0  0.21204487549E+02  0.43499687856E+02 -0.50661444686E+02  0.70217698008E+02  0.47000000000E+01 0. -1.
        -11    1    6    6    0    0  0.16617786147E+02  0.92121397338E+01  0.55506213543E+01  0.19794537941E+02  0.00000000000E+00 0.  1.
         12    1    6    6    0    0 -0.81707974645E+02 -0.28342392576E-01  0.50346152556E+02  0.95973584913E+02  0.00000000000E+00 0. -1.
         -5    1    3    3    0  503  0.33420891972E+02 -0.34674517942E+02 -0.18474242919E+03  0.19097416934E+03  0.47000000000E+01 0.  1.
         13    1    4    4    0    0  0.35716049195E+02 -0.41349733392E+02 -0.45853892699E+02  0.71330330837E+02  0.00000000000E+00 0. -1.
        -14    1    4    4    0    0 -0.25251240217E+02  0.23340766136E+02 -0.19637869743E+02  0.39598767965E+02  0.00000000000E+00 0.  1.
</event>
<event>
12    1  0.8691829E-002  0.2074240E+03  0.7818608E-02  0.1143808E+00
         21   -1    0    0  501  502  0.00000000000E+00  0.00000000000E+00  0.18273958998E+03  0.18273958998E+03  0.00000000000E+00 0.  1.
         21   -1    0    0  502  503 -0.00000000000E+00 -0.00000000000E+00 -0.34407101594E+03  0.34407101594E+03  0.00000000000E+00 0. -1.
         -6    2    1    2    0  503  0.11456729516E+03 -0.43287084999E+01 -0.22925745586E+03  0.30854775915E+03  0.17175079554E+03 0.  0.
        -24    2    3    3    0    0  0.83820118454E+00  0.28131000909E+02 -0.11717011400E+03  0.14553364394E+03  0.81603615790E+02 0.  0.
          6    2    1    2  501    0 -0.11456729516E+03  0.43287084999E+01  0.67926029908E+02  0.21826284677E+03  0.17285925461E+03 0.  0.
         24    2    5    5    0    0 -0.11609144857E+03 -0.17761367639E+02  0.10427674256E+03  0.17544043654E+03  0.78185785943E+02 0.  0.
          5    1    5    5  501    0  0.15241534074E+01  0.22090076139E+02 -0.36350712654E+02  0.42822410230E+02  0.47000000000E+01 0. -1.
        -11    1    6    6    0    0 -0.11200895225E+03  0.35463977984E+01  0.10522635788E+03  0.15372432701E+03  0.00000000000E+00 0.  1.
         12    1    6    6    0    0 -0.40824963224E+01 -0.21307765438E+02 -0.94961531680E+00  0.21716109537E+02  0.00000000000E+00 0. -1.
         -5    1    3    3    0  503  0.11372909398E+03 -0.32459709408E+02 -0.11208734186E+03  0.16301411521E+03  0.47000000000E+01 0.  1.
         11    1    4    4    0    0  0.30537429201E+02  0.25193293144E+02 -0.10686218831E+03  0.11395948356E+03  0.00000000000E+00 0. -1.
        -12    1    4    4    0    0 -0.29699228017E+02  0.29377077650E+01 -0.10307925683E+02  0.31574160378E+02  0.00000000000E+00 0.  1.
</event>
<event>
12    1  0.8691829E-002  0.2275910E+03  0.7818608E-02  0.1128355E+00
         21   -1    0    0  503  502  0.00000000000E+00  0.00000000000E+00  0.63357391801E+03  0.63357391801E+03  0.00000000000E+00 0. -1.
         21   -1    0    0  501  503 -0.00000000000E+00 -0.00000000000E+00 -0.10289833653E+03  0.10289833653E+03  0.00000000000E+00 0. -1.
          6    2    1    2  501    0  0.14611418800E+03 -0.31588338771E+02  0.98371478388E+02  0.24794076355E+03  0.17161146637E+03 0.  0.
         24    2    3    3    0    0  0.67838739901E+02 -0.63680993751E+02  0.10726056679E+03  0.16274633784E+03  0.79524698662E+02 0.  0.
         -6    2    1    2    0  502 -0.14611418800E+03  0.31588338771E+02  0.43230410310E+03  0.48853149099E+03  0.17154882992E+03 0.  0.
        -24    2    5    5    0    0 -0.14362671197E+03  0.71780225687E+02  0.28838921893E+03  0.33901507317E+03  0.77342388450E+02 0.  0.
          5    1    3    3  501    0  0.78275448102E+02  0.32092654980E+02 -0.88890884022E+01  0.85194425709E+02  0.47000000000E+01 0. -1.
        -13    1    4    4    0    0  0.75547492131E+01 -0.23902846356E+02  0.82768582250E+02  0.86481550098E+02  0.00000000000E+00 0.  1.
         14    1    4    4    0    0  0.60283990687E+02 -0.39778147395E+02  0.24491984540E+02  0.76264787747E+02  0.00000000000E+00 0. -1.
         -5    1    5    5    0  502 -0.24874760350E+01 -0.40191886916E+02  0.14391488417E+03  0.14951641782E+03  0.47000000000E+01 0.  1.
         11    1    6    6    0    0 -0.64476845495E+02  0.48820721645E+02  0.21097540685E+03  0.22594545528E+03  0.00000000000E+00 0. -1.
        -12    1    6    6    0    0 -0.79149866472E+02  0.22959504042E+02  0.77413812075E+02  0.11306961788E+03  0.00000000000E+00 0.  1.
</event>
<event>
12    1  0.8691829E-002  0.1974627E+03  0.7818608E-02  0.1152199E+00
         21   -1    0    0  501  502  0.00000000000E+00  0.00000000000E+00  0.40185348488E+03  0.40185348488E+03  0.00000000000E+00 0. -1.
         21   -1    0    0  502  503 -0.00000000000E+00 -0.00000000000E+00 -0.98488811752E+02  0.98488811752E+02  0.00000000000E+00 0. -1.
         -6    2    1    2    0  503 -0.76105670240E+02  0.56509779290E+02  0.11421908653E+03  0.22690572216E+03  0.17162394595E+03 0.  0.
        -24    2    3    3    0    0  0.51472217196E+00  0.42495550492E+01  0.10654600347E+03  0.13372427672E+03  0.80695772327E+02 0.  0.
          6    2    1    2  501    0  0.76105670240E+02 -0.56509779290E+02  0.18914558660E+03  0.27343657447E+03  0.17322262881E+03 0.  0.
         24    2    5    5    0    0  0.72580399878E+02 -0.84250516728E+02  0.20016115258E+03  0.24301604294E+03  0.81401757430E+02 0.  0.
          5    1    5    5  501    0  0.35252703623E+01  0.27740737438E+02 -0.11015565974E+02  0.30420531529E+02  0.47000000000E+01 0. -1.
        -11    1    6    6    0    0  0.45700367492E+02 -0.81662725052E+02  0.90878083504E+02  0.13044596702E+03  0.00000000000E+00 0.  1.
         12    1    6    6    0    0  0.26880032386E+02 -0.25877916764E+01  0.10928306907E+03  0.11257007592E+03  0.00000000000E+00 0. -1.
         -5    1    3    3    0  503 -0.76620392412E+02  0.52260224240E+02  0.76730830580E+01  0.93181445442E+02  0.47000000000E+01 0.  1.
         13    1    4    4    0    0 -0.25318486459E+02  0.33058554137E+02  0.47976176603E+02  0.63526429773E+02  0.00000000000E+00 0. -1.
        -14    1    4    4    0    0  0.25833208631E+02 -0.28808999088E+02  0.58569826865E+02  0.70197846944E+02  0.00000000000E+00 0.  1.
</event>
<event>
12    1  0.8691829E-002  0.2175596E+03  0.7818608E-02  0.1136368E+00
         21   -1    0    0  501  502  0.00000000000E+00  0.00000000000E+00  0.39204637321E+03  0.39204637321E+03  0.00000000000E+00 0. -1.
         21   -1    0    0  502  503 -0.00000000000E+00 -0.00000000000E+00 -0.13780883813E+03  0.13780883813E+03  0.00000000000E+00 0. -1.
         -6    2    1    2    0  503  0.83409273322E+02 -0.10346356767E+03  0.27962772140E+02  0.21595643251E+03  0.16790904503E+03 0.  0.
        -24    2    3    3    0    0  0.10466737678E+03 -0.11296733785E+03  0.52793095020E+02  0.18159273736E+03  0.80448320039E+02 0.  0.
          6    2    1    2  501    0 -0.83409273322E+02  0.10346356767E+03  0.22627476294E+03  0.31389877883E+03  0.17225085862E+03 0.  0.
         24    2    5    5    0    0 -0.47575386698E+02  0.11481869902E+03  0.89530735761E+02  0.17200436242E+03  0.78249581351E+02 0.  0.
          5    1    5    5  501    0 -0.35833886624E+02 -0.11355131346E+02  0.13674402718E+03  0.14189441641E+03  0.47000000000E+01 0. -1.
        -11    1    6    6    0    0  0.11031600179E+02  0.22449464948E+02 -0.71455399596E+01  0.26014100413E+02  0.00000000000E+00 0.  1.
         12    1    6    6    0    0 -0.58606986877E+02  0.92369234071E+02  0.96676275721E+02  0.14599026201E+03  0.00000000000E+00 0. -1.
         -5    1    3    3    0  503 -0.21258103456E+02  0.95037701723E+01 -0.24830322879E+02  0.34363695150E+02  0.47000000000E+01 0.  1.
         11    1    4    4    0    0  0.76842027296E+02 -0.82862251050E+02 -0.21653407541E+01  0.11302892775E+03  0.00000000000E+00 0. -1.
        -12    1    4    4    0    0  0.27825349482E+02 -0.30105086795E+02  0.54958435774E+02  0.68563809604E+02  0.00000000000E+00 0.  1.
</event>
<event>
12    1  0.8691829E-002  0.2279926E+03  0.7818608E-02  0.1128198E+00
         21   -1    0    0  503  502  0.00000000000E+00  0.00000000000E+00  0.43045906334E+02  0.43045906334E+02  0.00000000000E+00 0. -1.
         21   -1    0    0  501  503 -0.00000000000E+00 -0.00000000000E+00 -0.12594819571E+04  0.12594819571E+04  0.00000000000E+00 0. -1.
          6    2    1    2  501    0  0.11717988748E+03 -0.91124315929E+02 -0.74454547105E+03  0.77844644222E+03  0.17203528113E+03 0.  0.
         24    2    3    3    0    0  0.13081850349E+03 -0.11393998598E+03 -0.55958202317E+03  0.59152364078E+03  0.81684611059E+02 0.  0.
         -6    2    1    2    0  502 -0.11717988748E+03  0.91124315929E+02 -0.47189057975E+03  0.52408142125E+03  0.17304869217E+03 0.  0.
        -24    2    5    5    0    0  0.10328974834E+02  0.36624263047E+02 -0.21929234282E+03  0.23588578452E+03  0.78134162524E+02 0.  0.
          5    1    3    3  501    0 -0.13638616006E+02  0.22815670050E+02 -0.18496344788E+03  0.18692280144E+03  0.47000000000E+01 0. -1.
        -11    1    4    4    0    0  0.14005476727E+02 -0.40775697341E+02 -0.23445968272E+03  0.23839075840E+03  0.00000000000E+00 0.  1.
         12    1    4    4    0    0  0.11681302676E+03 -0.73164288638E+02 -0.32512234045E+03  0.35313288238E+03  0.00000000000E+00 0. -1.
         -5    1    5    5    0  502 -0.12750886231E+03  0.54500052882E+02 -0.25259823692E+03  0.28819563673E+03  0.47000000000E+01 0.  1.
         11    1    6    6    0    0 -0.30115673741E+02  0.30310612968E+02 -0.14374718290E+03  0.14996312765E+03  0.00000000000E+00 0. -1.
        -12    1    6    6    0    0  0.40444648575E+02  0.63136500795E+01 -0.75545159927E+02  0.85922656873E+02  0.00000000000E+00 0.  1.
</event>
<event>
12    1  0.8691829E-002  0.2047794E+03  0.7818608E-02  0.1146151E+00
         21   -1    0    0  501  502  0.00000000000E+00  0.00000000000E+00  0.13690505188E+03  0.13690505188E+03  0.00000000000E+00 0.  1.
         21   -1    0    0  502  503 -0.00000000000E+00 -0.00000000000E+00 -0.30353650048E+03  0.30353650048E+03  0.00000000000E+00 0.  1.
         -6    2    1    2    0  503 -0.72538179377E+02  0.84180759927E+02 -0.82205649148E+02  0.22066344475E+03  0.17200697453E+03 0.  0.
        -24    2    3    3    0    0 -0.29711984708E+01  0.55281824421E+01  0.94130923643E+01  0.81229314878E+02  0.80437593612E+02 0.  0.
          6    2    1    2  501    0  0.72538179377E+02 -0.84180759927E+02 -0.84425799453E+02  0.21977810760E+03  0.16978372466E+03 0.  0.
         24    2    5    5    0    0 -0.10290870317E+02 -0.34403368232E+02  0.44554635450E+01  0.88399231412E+02  0.80654071201E+02 0.  0.
          5    1    5    5  501    0  0.82829049694E+02 -0.49777391695E+02 -0.88881262998E+02  0.13137887619E+03  0.47000000000E+01 0. -1.
        -13    1    6    6    0    0  0.21518277939E+02 -0.45800149817E+02  0.15378364513E+02  0.52888411810E+02  0.00000000000E+00 0.  1.
         14    1    6    6    0    0 -0.31809148256E+02  0.11396781585E+02 -0.10922900968E+02  0.35510819602E+02  0.00000000000E+00 0. -1.
         -5    1    3    3    0  503 -0.69566980906E+02  0.78652577485E+02 -0.91618741512E+02  0.13943412987E+03  0.47000000000E+01 0.  1.
         11    1    4    4    0    0 -0.19863076018E+02 -0.28681629908E+02 -0.12704232506E+02  0.37129169215E+02  0.00000000000E+00 0. -1.
        -12    1    4    4    0    0  0.16891877547E+02  0.34209812350E+02  0.22117324870E+02  0.44100145663E+02  0.00000000000E+00 0.  1.
</event>
<event>
12    1  0.8691829E-002  0.1806721E+03  0.7818608E-02  0.1167268E+00
         21   -1    0    0  501  502  0.00000000000E+00  0.00000000000E+00  0.17299273990E+03  0.17299273990E+03  0.00000000000E+00 0.  1.
         21   -1    0    0  502  503 -0.00000000000E+00 -0.00000000000E+00 -0.19228831358E+03  0.19228831358E+03  0.00000000000E+00 0.  1.
         -6    2    1    2    0  503 -0.40304030375E+02  0.39064305491E+02 -0.36263999174E+02  0.18381392490E+03  0.17123681416E+03 0.  0.
        -24    2    3    3    0    0  0.46818012869E+01  0.42586314560E+01 -0.79518073949E+02  0.11220271782E+03  0.78906720853E+02 0.  0.
          6    2    1    2  501    0  0.40304030375E+02 -0.39064305491E+02  0.16968425496E+02  0.18146712858E+03  0.17173222313E+03 0.  0.
         24    2    5    5    0    0 -0.14708160009E+02  0.31294257373E+02 -0.14424913414E+02  0.86681580169E+02  0.78166218396E+02 0.  0.
          5    1    5    5  501    0  0.55012190384E+02 -0.70358562864E+02  0.31393338910E+02  0.94785548408E+02  0.47000000000E+01 0. -1.
        -11    1    6    6    0    0 -0.15752025259E+02 -0.15318735728E+02  0.19214129482E+02  0.29188572008E+02  0.00000000000E+00 0.  1.
         12    1    6    6    0    0  0.10438652497E+01  0.46612993102E+02 -0.33639042896E+02  0.57493008162E+02  0.00000000000E+00 0. -1.
         -5    1    3    3    0  503 -0.44985831662E+02  0.34805674035E+02  0.43254074775E+02  0.71611207083E+02  0.47000000000E+01 0.  1.
         13    1    4    4    0    0  0.14027986029E+02 -0.21457019599E+02  0.24845164261E+01  0.25755793600E+02  0.00000000000E+00 0. -1.
        -14    1    4    4    0    0 -0.93461847421E+01  0.25715651055E+02 -0.82002590375E+02  0.86446924218E+02  0.00000000000E+00 0.  1.
</event>
<event>
12    1  0.8691829E-002  0.2275022E+03  0.7818608E-02  0.1128497E+00
         21   -1    0    0  501  502  0.00000000000E+00  0.00000000000E+00  0.40208950053E+02  0.40208950053E+02  0.00000000000E+00 0. -1.
         21   -1    0    0  502  503 -0.00000000000E+00 -0.00000000000E+00 -0.12851411842E+04  0.12851411842E+04  0.00000000000E+00 0. -1.
         -6    2    1    2    0  503  0.86755224409E+02  0.12034546760E+03 -0.63690393578E+03  0.67615396790E+03  0.17183731947E+03 0.  0.
        -24    2    3    3    0    0  0.10178045975E+03  0.92435854157E+02 -0.31717756171E+03  0.35482586690E+03  0.79975877904E+02 0.  0.
          6    2    1    2  501    0 -0.86755224409E+02 -0.12034546760E+03 -0.60802829834E+03  0.64919616632E+03  0.17247536130E+03 0.  0.
         24    2    5    5    0    0 -0.30353137011E+02 -0.78955110525E+01 -0.13976369254E+03  0.16430440599E+03  0.80488483996E+02 0.  0.
          5    1    5    5  501    0 -0.56402087398E+02 -0.11244995654E+03 -0.46826460580E+03  0.48489176033E+03  0.47000000000E+01 0. -1.
        -11    1    6    6    0    0  0.69642817828E+01 -0.21214838175E+02 -0.37558297590E+01  0.22642368178E+02  0.00000000000E+00 0.  1.
         12    1    6    6    0    0 -0.37317418794E+02  0.13319327122E+02 -0.13600786278E+03  0.14166203781E+03  0.00000000000E+00 0. -1.
         -5    1    3    3    0  503 -0.15025235340E+02  0.27909613440E+02 -0.31972637407E+03  0.32132810100E+03  0.47000000000E+01 0.  1.
         13    1    4    4    0    0  0.10670612057E+03  0.53109487269E+02 -0.22948198995E+03  0.25859001821E+03  0.00000000000E+00 0. -1.
        -14    1    4    4    0    0 -0.49256608165E+01  0.39326366888E+02 -0.87695571759E+02  0.96235848691E+02  0.00000000000E+00 0.  1.
</event>
<event>
12    1  0.8691829E-002  0.1988658E+03  0.7818608E-02  0.1151072E+00
         21   -1    0    0  501  502  0.00000000000E+00  0.00000000000E+00  0.14748796308E+03  0.14748796308E+03  0.00000000000E+00 0. -1.
         21   -1    0    0  502  503 -0.00000000000E+00 -0.00000000000E+00 -0.53218513039E+03  0.53218513039E+03  0.00000000000E+00 0. -1.
         -6    2    1    2    0  503  0.83786608060E+02 -0.54965920907E+02 -0.43235921585E+03  0.47517548249E+03  0.16975217077E+03 0.  0.
        -24    2    3    3    0    0  0.20455157155E+02  0.81843479658E+01 -0.32620528593E+03  0.33628856457E+03  0.78706499641E+02 0.  0.
          6    2    1    2  501    0 -0.83786608060E+02  0.54965920907E+02  0.47662048550E+02  0.20449761097E+03  0.17177355405E+03 0.  0.
         24    2    5    5    0    0 -0.62037752060E+02  0.46034760992E+02 -0.34303210985E+02  0.11909753998E+03  0.83902513942E+02 0.  0.
          5    1    5    5  501    0 -0.21748856000E+02  0.89311599152E+01  0.81965259535E+02  0.85400070992E+02  0.47000000000E+01 0. -1.
        -11    1    6    6    0    0 -0.69634984694E+02  0.31640790678E+02 -0.53939440469E+02  0.93592916217E+02  0.00000000000E+00 0.  1.
         12    1    6    6    0    0  0.75972326339E+01  0.14393970314E+02  0.19636229483E+02  0.25504623765E+02  0.00000000000E+00 0. -1.
         -5    1    3    3    0  503  0.63331450905E+02 -0.63150268873E+02 -0.10615392992E+03  0.13888691792E+03  0.47000000000E+01 0.  1.
         11    1    4    4    0    0  0.30786757013E+02 -0.28773799312E+02 -0.19938279501E+03  0.20378727850E+03  0.00000000000E+00 0. -1.
        -12    1    4    4    0    0 -0.10331599858E+02  0.36958147277E+02 -0.12682249092E+03  0.13250128607E+03  0.00000000000E+00 0.  1.
</event>
<event>
12    1  0.8691829E-002  0.2213686E+03  0.7818608E-02  0.1133179E+00
         21   -1    0    0  501  502  0.00000000000E+00  0.00000000000E+00  0.33862630571E+03  0.33862630571E+03  0.00000000000E+00 0. -1.
         21   -1    0    0  502  503 -0.00000000000E+00 -0.00000000000E+00 -0.22371990660E+03  0.22371990660E+03  0.00000000000E+00 0. -1.
         -6    2    1    2    0  503  0.27884990955E+01 -0.13764792666E+03 -0.11065103336E+03  0.24748275341E+03  0.17334743901E+03 0.  0.
        -24    2    3    3    0    0 -0.79693957079E+01 -0.11652646740E+03 -0.14699494246E+03  0.20383853191E+03  0.79376980969E+02 0.  0.
          6    2    1    2  501    0 -0.27884990955E+01  0.13764792666E+03  0.22555743247E+03  0.31486345890E+03  0.17119613011E+03 0.  0.
         24    2    5    5    0    0 -0.11322489695E+02  0.14957996170E+03  0.11936932523E+03  0.20756384764E+03  0.79569789031E+02 0.  0.
          5    1    5    5  501    0  0.85339905993E+01 -0.11932035041E+02  0.10618810724E+03  0.10729961126E+03  0.47000000000E+01 0. -1.
        -11    1    6    6    0    0 -0.22911871990E+02  0.34798170420E+01  0.14269540553E+02  0.27215488096E+02  0.00000000000E+00 0.  1.
         12    1    6    6    0    0  0.11589382295E+02  0.14610014466E+03  0.10509978467E+03  0.18034835954E+03  0.00000000000E+00 0. -1.
         -5    1    3    3    0  503  0.10757894803E+02 -0.21121459256E+02  0.36343909101E+02  0.43644221501E+02  0.47000000000E+01 0.  1.
         11    1    4    4    0    0 -0.24045313488E+02 -0.56676689701E+02 -0.23934819603E+02  0.66055278711E+02  0.00000000000E+00 0. -1.
        -12    1    4    4    0    0  0.16075917780E+02 -0.59849777704E+02 -0.12306012286E+03  0.13778325320E+03  0.00000000000E+00 0.  1.
</event>
<event>
12    1  0.8691829E-002  0.2200835E+03  0.7818608E-02  0.1133905E+00
         21   -1    0    0  501  502  0.00000000000E+00  0.00000000000E+00  0.12445217654E+04  0.12445217654E+04  0.00000000000E+00 0.  1.
         21   -1    0    0  502  503 -0.00000000000E+00 -0.00000000000E+00 -0.56723230778E+02  0.56723230778E+02  0.00000000000E+00 0.  1.
         -6    2    1    2    0  503 -0.46566712974E+02 -0.12702326457E+03  0.95879598385E+03  0.98363059036E+03  0.17302032005E+03 0.  0.
        -24    2    3    3    0    0 -0.97423361551E+02 -0.79180176861E+02  0.65000741216E+03  0.66701121043E+03  0.81446345437E+02 0.  0.
          6    2    1    2  501    0  0.46566712974E+02  0.12702326457E+03  0.22900255074E+03  0.31761440578E+03  0.17358967139E+03 0.  0.
         24    2    5    5    0    0  0.50802451020E+02  0.13657463796E+01  0.95857911408E+02  0.13442778417E+03  0.79368354425E+02 0.  0.
          5    1    5    5  501    0 -0.42357380460E+01  0.12565751819E+03  0.13314463933E+03  0.18318662161E+03  0.47000000000E+01 0. -1.
        -13    1    6    6    0    0  0.59354296464E+02  0.27380099196E+02  0.56022150723E+02  0.86087651335E+02  0.00000000000E+00 0.  1.
         14    1    6    6    0    0 -0.85518454444E+01 -0.26014352817E+02  0.39835760685E+02  0.48340132833E+02  0.00000000000E+00 0. -1.
         -5    1    3    3    0  503  0.50856648577E+02 -0.47843087714E+02  0.30878857168E+03  0.31661937993E+03  0.47000000000E+01 0.  1.
         13    1    4    4    0    0 -0.58492563397E+02 -0.29486880213E-01  0.19718228320E+03  0.20567506813E+03  0.00000000000E+00 0. -1.
        -14    1    4    4    0    0 -0.38930798154E+02 -0.79150689980E+02  0.45282512897E+03  0.46133614230E+03  0.00000000000E+00 0.  1.
</event>
<event>
12    1  0.8691829E-002  0.2018777E+03  0.7818608E-02  0.1148178E+00
         21   -1    0    0  501  502  0.00000000000E+00  0.00000000000E+00  0.27354176365E+03  0.27354176365E+03  0.00000000000E+00 0.  1.
         21   -1    0    0  502  503 -0.00000000000E+00 -0.00000000000E+00 -0.16248261068E+03  0.16248261068E+03  0.00000000000E+00 0.  1.
         -6    2    1    2    0  503  0.10211283862E+03 -0.22927228677E+02 -0.74031907425E+01  0.20201337288E+03  0.17263228540E+03 0.  0.
        -24    2    3    3    0    0  0.79752897773E+02  0.38230636723E+00  0.59932919671E+02  0.12718327770E+03  0.78885742719E+02 0.  0.
          6    2    1    2  501    0 -0.10211283862E+03  0.22927228677E+02  0.11846234371E+03  0.23401100146E+03  0.17255472263E+03 0.  0.
         24    2    5    5    0    0 -0.12628883403E+03 -0.10566022769E+02  0.41614026138E+02  0.14663806194E+03  0.60913739013E+02 0.  0.
          5    1    5    5  501    0  0.24175995413E+02  0.33493251446E+02  0.76848317571E+02  0.87372939519E+02  0.47000000000E+01 0. -1.
        -11    1    6    6    0    0 -0.56123799768E+02 -0.38761437119E+01 -0.12678686280E+02  0.57668487723E+02  0.00000000000E+00 0.  1.
         12    1    6    6    0    0 -0.70165034262E+02 -0.66898790571E+01  0.54292712418E+02  0.88969574218E+02  0.00000000000E+00 0. -1.
         -5    1    3    3    0  503  0.22359940845E+02 -0.23309535045E+02 -0.67336110414E+02  0.74830095177E+02  0.47000000000E+01 0.  1.
         11    1    4    4    0    0 -0.16064963317E+02  0.88364018007E+00  0.11811081352E+02  0.19959095897E+02  0.00000000000E+00 0. -1.
        -12    1    4    4    0    0  0.95817861090E+02 -0.50133381284E+00  0.48121838320E+02  0.10722418180E+03  0.00000000000E+00 0.  1.
</event>
<event>
12    1  0.8691829E-002  0.1918779E+03  0.7818608E-02  0.1159504E+00
         21   -1    0    0  503  502  0.00000000000E+00  0.00000000000E+00  0.13091286761E+03  0.13091286761E+03  0.00000000000E+00 0. -1.
         21   -1    0    0  501  503 -0.00000000000E+00 -0.00000000000E+00 -0.30731734585E+03  0.30731734585E+03  0.00000000000E+00 0. -1.
          6    2    1    2  501    0 -0.42184982680E+02 -0.36371245543E+02 -0.16786949925E+03  0.24616260024E+03  0.17121161383E+03 0.  0.
         24    2    3    3    0    0  0.24063467113E+02 -0.23624794495E+02 -0.31684267637E+02  0.94110515660E+02  0.81949466000E+02 0.  0.
         -6    2    1    2    0  502  0.42184982680E+02  0.36371245543E+02 -0.85349789859E+01  0.19206761323E+03  0.18361558191E+03 0.  0.
        -24    2    5    5    0    0 -0.30145865946E+02  0.66532917327E+02  0.16745097728E+02  0.10958943195E+03  0.79962759935E+02 0.  0.
          5    1    3    3  501    0 -0.66248449792E+02 -0.12746451048E+02 -0.13618523162E+03  0.15205208458E+03  0.47000000000E+01 0. -1.
        -13    1    4    4    0    0 -0.88978625952E+00  0.28577591154E+02 -0.97923710184E+00  0.28608204087E+02  0.00000000000E+00 0.  1.
         14    1    4    4    0    0  0.24953253372E+02 -0.52202385649E+02 -0.30705030536E+02  0.65502311574E+02  0.00000000000E+00 0. -1.
         -5    1    5    5    0  502  0.72330848626E+02 -0.30161671785E+02 -0.25280076714E+02  0.82478181275E+02  0.47000000000E+01 0.  1.
         13    1    6    6    0    0 -0.20862400192E+02  0.38479347439E+02  0.49095695313E+02  0.65774518010E+02  0.00000000000E+00 0. -1.
        -14    1    6    6    0    0 -0.92834657536E+01  0.28053569888E+02 -0.32350597585E+02  0.43814913945E+02  0.00000000000E+00 0.  1.
</event>
<event>
12    1  0.8691829E-002  0.1865315E+03  0.7818608E-02  0.1162929E+00
         21   -1    0    0  501  502  0.00000000000E+00  0.00000000000E+00  0.32665360157E+03  0.32665360157E+03  0.00000000000E+00 0. -1.
         21   -1    0    0  502  503 -0.00000000000E+00 -0.00000000000E+00 -0.15884514051E+03  0.15884514051E+03  0.00000000000E+00 0.  1.
         -6    2    1    2    0  503  0.45921693796E+01  0.60630663057E+02 -0.58712630717E+02  0.19555350435E+03  0.17634294637E+03 0.  0.
        -24    2    3    3    0    0  0.54240111156E+02  0.37969161419E+02  0.12482083919E+02  0.10572456040E+03  0.81475354403E+02 0.  0.
          6    2    1    2  501    0 -0.45921693796E+01 -0.60630663057E+02  0.22652109177E+03  0.28994523773E+03  0.17046779914E+03 0.  0.
         24    2    5    5    0    0  0.56350688351E+02 -0.47204779330E+02  0.18561236832E+03  0.21517960447E+03  0.80290844043E+02 0.  0.
          5    1    5    5  501    0 -0.60942857731E+02 -0.13425883727E+02  0.40908723450E+02  0.74765633258E+02  0.47000000000E+01 0. -1.
        -13    1    6    6    0    0  0.48772929631E+02 -0.56417737222E+02  0.81836009035E+02  0.11071988129E+03  0.00000000000E+00 0.  1.
         14    1    6    6    0    0  0.75777587204E+01  0.92129578926E+01  0.10377635929E+03  0.10445972318E+03  0.00000000000E+00 0. -1.
         -5    1    3    3    0  503 -0.49647941777E+02  0.22661501638E+02 -0.71194714636E+02  0.89828943950E+02  0.47000000000E+01 0.  1.
         11    1    4    4    0    0  0.28118319692E+02 -0.19810449788E+02 -0.13829635287E+02  0.37072262343E+02  0.00000000000E+00 0. -1.
        -12    1    4    4    0    0  0.26121791465E+02  0.57779611207E+02  0.26311719206E+02  0.68652298054E+02  0.00000000000E+00 0.  1.
</event>
<event>
12    1  0.8691829E-002  0.2267625E+03  0.7818608E-02  0.1129683E+00
         21   -1    0    0  501  502  0.00000000000E+00  0.00000000000E+00  0.79126438431E+03  0.79126438431E+03  0.00000000000E+00 0. -1.
         21   -1    0    0  502  503 -0.00000000000E+00 -0.00000000000E+00 -0.76082357345E+02  0.76082357345E+02  0.00000000000E+00 0.  1.
         -6    2    1    2    0  503  0.14263216960E+03  0.35877445866E+02  0.18618995481E+03  0.29340743313E+03  0.17259807536E+03 0.  0.
        -24    2    3    3    0    0  0.29388583271E+01  0.42100323705E+02  0.84220753458E+02  0.12028102426E+03  0.74788470639E+02 0.  0.
          6    2    1    2  501    0 -0.14263216960E+03 -0.35877445866E+02  0.52899207215E+03  0.57393930852E+03  0.16716037372E+03 0.  0.
         24    2    5    5    0    0 -0.29554983492E+02 -0.40881528418E+02  0.34537740082E+03  0.35818961932E+03  0.80432940888E+02 0.  0.
          5    1    5    5  501    0 -0.11307718611E+03  0.50040825522E+01  0.18361467133E+03  0.21574968919E+03  0.47000000000E+01 0. -1.
        -13    1    6    6    0    0  0.11861162023E+02  0.12053887501E+02  0.21203692095E+02  0.27121576777E+02  0.00000000000E+00 0.  1.
         14    1    6    6    0    0 -0.41416145515E+02 -0.52935415919E+02  0.32417370873E+03  0.33106804255E+03  0.00000000000E+00 0. -1.
         -5    1    3    3    0  503  0.13969331127E+03 -0.62228778387E+01  0.10196920136E+03  0.17312640887E+03  0.47000000000E+01 0.  1.
         11    1    4    4    0    0  0.13446603250E+02  0.57834241704E+02  0.38410868555E+02  0.70717787548E+02  0.00000000000E+00 0. -1.
        -12    1    4    4    0    0 -0.10507744923E+02 -0.15733917999E+02  0.45809884902E+02  0.49563236716E+02  0.00000000000E+00 0.  1.
</event>
<event>
12    1  0.8691829E-002  0.2036800E+03  0.7818608E-02  0.1147182E+00
         21   -1    0    0  503  502  0.00000000000E+00  0.00000000000E+00  0.35485643543E+03  0.35485643543E+03  0.00000000000E+00 0.  1.
         21   -1    0    0  501  503 -0.00000000000E+00 -0.00000000000E+00 -0.28113771471E+03  0.28113771471E+03  0.00000000000E+00 0.  1.
          6    2    1    2  501    0 -0.29078273168E+02  0.10537134326E+03 -0.20713398675E+03  0.29049960437E+03  0.17186292712E+03 0.  0.
         24    2    3    3    0    0  0.10205282185E+02  0.92615226968E+02 -0.59517515456E+02  0.13714175872E+03  0.81140614286E+02 0.  0.
         -6    2    1    2    0  502  0.29078273168E+02 -0.10537134326E+03  0.28085270747E+03  0.34549454577E+03  0.16893659140E+03 0.  0.
        -24    2    5    5    0    0  0.51695123868E+02  0.29008350666E+01  0.13516984455E+03  0.16251921114E+03  0.73897269488E+02 0.  0.
          5    1    3    3  501    0 -0.39283555353E+02  0.12756116294E+02 -0.14761647130E+03  0.15335784565E+03  0.47000000000E+01 0. -1.
        -11    1    4    4    0    0  0.37186279920E+02  0.68076133730E+02 -0.63777308118E+02  0.10042272865E+03  0.00000000000E+00 0.  1.
         12    1    4    4    0    0 -0.26980997735E+02  0.24539093238E+02  0.42597926618E+01  0.36719030070E+02  0.00000000000E+00 0. -1.
         -5    1    5    5    0  502 -0.22616850700E+02 -0.10827217833E+03  0.14568286292E+03  0.18297533463E+03  0.47000000000E+01 0.  1.
         13    1    6    6    0    0  0.83106432383E+01  0.21986505059E+02  0.10198813616E+03  0.10466161241E+03  0.00000000000E+00 0. -1.
        -14    1    6    6    0    0  0.43384480630E+02 -0.19085669992E+02  0.33181708391E+02  0.57857598726E+02  0.00000000000E+00 0.  1.
</event>
<event>
12    1  0.8691829E-002  0.1831958E+03  0.7818608E-02  0.1167172E+00
         21   -1    0    0  501  502  0.00000000000E+00  0.00000000000E+00  0.30299674829E+03  0.30299674829E+03  0.00000000000E+00 0.  1.
         21   -1    0    0  502  503 -0.00000000000E+00 -0.00000000000E+00 -0.10822090361E+03  0.10822090361E+03  0.00000000000E+00 0.  1.
         -6    2    1    2    0  503  0.41791770603E+01  0.31913600867E+02  0.58334779839E+02  0.18279512701E+03  0.17022094019E+03 0.  0.
        -24    2    3    3    0    0 -0.11626984447E+02  0.28442606261E+02  0.10114786965E+03  0.13678498460E+03  0.86804791691E+02 0.  0.
          6    2    1    2  501    0 -0.41791770603E+01 -0.31913600867E+02  0.13644106484E+03  0.22842252489E+03  0.18034617340E+03 0.  0.
         24    2    5    5    0    0  0.43203664397E+02 -0.38812330797E+02  0.14859337847E+03  0.17879899351E+03  0.80722576249E+02 0.  0.
          5    1    5    5  501    0 -0.47382841458E+02  0.68987299296E+01 -0.12152313635E+02  0.49623531373E+02  0.47000000000E+01 0. -1.
        -11    1    6    6    0    0  0.61247617189E+02 -0.60822672924E+01  0.10112576239E+03  0.11838363234E+03  0.00000000000E+00 0.  1.
         12    1    6    6    0    0 -0.18043952792E+02 -0.32730063505E+02  0.47467616085E+02  0.60415361177E+02  0.00000000000E+00 0. -1.
         -5    1    3    3    0  503  0.15806161507E+02  0.34709946061E+01 -0.42813089808E+02  0.46010142404E+02  0.47000000000E+01 0.  1.
         13    1    4    4    0    0  0.21792290842E+02  0.48424954030E+02  0.56295181076E+02  0.77388807494E+02  0.00000000000E+00 0. -1.
        -14    1    4    4    0    0 -0.33419275289E+02 -0.19982347769E+02  0.44852688572E+02  0.59396177110E+02  0.00000000000E+00 0.  1.
</event>
<event>
12    1  0.8691829E-002  0.1786975E+03  0.7818608E-02  0.1169152E+00
         21   -1    0    0  503  502  0.00000000000E+00  0.00000000000E+00  0.37079242015E+02  0.37079242015E+02  0.00000000000E+00 0. -1.
         21   -1    0    0  501  503 -0.00000000000E+00 -0.00000000000E+00 -0.11315922480E+04  0.11315922480E+04  0.00000000000E+00 0. -1.
          6    2    1    2  501    0 -0.32552129722E+02  0.34548473018E+02 -0.26115870984E+03  0.31644377170E+03  0.17227753998E+03 0.  0.
         24    2    3    3    0    0  0.41077676699E+02 -0.78617897918E+01 -0.12478512594E+03  0.15569607134E+03  0.83191079521E+02 0.  0.
         -6    2    1    2    0  502  0.32552129722E+02 -0.34548473018E+02 -0.83335429614E+03  0.85222771832E+03  0.17192865623E+03 0.  0.
        -24    2    5    5    0    0  0.20627223508E+01 -0.14443750313E+02 -0.16619356761E+03  0.18405159518E+03  0.77729087388E+02 0.  0.
          5    1    3    3  501    0 -0.73629806421E+02  0.42410262810E+02 -0.13637358390E+03  0.16074770036E+03  0.47000000000E+01 0. -1.
        -11    1    4    4    0    0 -0.19777039151E+02  0.19502434626E+01 -0.42621504100E+01  0.20324877693E+02  0.00000000000E+00 0.  1.
         12    1    4    4    0    0  0.60854715850E+02 -0.98120332544E+01 -0.12052297553E+03  0.13537119364E+03  0.00000000000E+00 0. -1.
         -5    1    5    5    0  502  0.30489407371E+02 -0.20104722706E+02 -0.66716072853E+03  0.66817612314E+03  0.47000000000E+01 0.  1.
         11    1    6    6    0    0 -0.84627340005E+00 -0.14408704997E+02 -0.17457962057E+03  0.17517525760E+03  0.00000000000E+00 0. -1.
        -12    1    6    6    0    0  0.29089957508E+01 -0.35045315630E-01  0.83860529609E+01  0.88763375733E+01  0.00000000000E+00 0.  1.
</event>
<event>
12    1  0.8691829E-002  0.1974741E+03  0.7818608E-02  0.1152015E+00
         21   -1    0    0  503  502  0.00000000000E+00  0.00000000000E+00  0.15566749179E+03  0.15566749179E+03  0.00000000000E+00 0.  1.
         21   -1    0    0  501  503 -0.00000000000E+00 -0.00000000000E+00 -0.37921151117E+03  0.37921151117E+03  0.00000000000E+00 0.  1.
          6    2    1    2  501    0 -0.71145922250E+02 -0.65432801101E+02 -0.26791997177E+03  0.33248023479E+03  0.17151909964E+03 0.  0.
         24    2    3    3    0    0  0.90206683412E+01 -0.35380668899E+02 -0.21292257337E+03  0.23061455496E+03  0.80708652076E+02 0.  0.
         -6    2    1    2    0  502  0.71145922250E+02  0.65432801101E+02  0.44375952381E+02  0.20239876817E+03  0.17220000724E+03 0.  0.
        -24    2    5    5    0    0  0.81898233202E+02  0.65994854282E+02 -0.22723068139E+02  0.13427904526E+03  0.80323612824E+02 0.  0.
          5    1    3    3  501    0 -0.80166590591E+02 -0.30052132201E+02 -0.54997398393E+02  0.10186567983E+03  0.47000000000E+01 0. -1.
        -13    1    4    4    0    0 -0.18583857764E+02 -0.51255076441E+02 -0.10823354569E+03  0.12118969859E+03  0.00000000000E+00 0.  1.
         14    1    4    4    0    0  0.27604526105E+02  0.15874407541E+02 -0.10468902768E+03  0.10942485638E+03  0.00000000000E+00 0. -1.
         -5    1    5    5    0  502 -0.10752310952E+02 -0.56205318164E+00  0.67099020520E+02  0.68119722910E+02  0.47000000000E+01 0.  1.
         13    1    6    6    0    0 -0.15067631895E+02  0.90583901036E+01 -0.12078417483E+02  0.21330169504E+02  0.00000000000E+00 0. -1.
        -14    1    6    6    0    0  0.96965865097E+02  0.56936464179E+02 -0.10644650656E+02  0.11294887576E+03  0.00000000000E+00 0.  1.
</event>
<event>
12    1  0.8691829E-002  0.1921371E+03  0.7818608E-02  0.1158307E+00
         21   -1    0    0  503  502  0.00000000000E+00  0.00000000000E+00  0.65116601189E+02  0.65116601189E+02  0.00000000000E+00 0.  1.
         21   -1    0    0  501  503 -0.00000000000E+00 -0.00000000000E+00 -0.67503708766E+03  0.67503708766E+03  0.00000000000E+00 0.  1.
          6    2    1    2  501    0  0.37113543440E+02  0.56090755932E+02 -0.46273129293E+03  0.49811793021E+03  0.17169052081E+03 0.  0.
         24    2    3    3    0    0  0.86455950308E+02  0.63183708887E+02 -0.31719759835E+03  0.34421169462E+03  0.80003511802E+02 0.  0.
         -6    2    1    2    0  502 -0.37113543440E+02 -0.56090755932E+02 -0.14718919354E+03  0.24203575864E+03  0.17998072607E+03 0.  0.
        -24    2    5    5    0    0  0.29956448370E+02 -0.61264416436E+02 -0.34874500414E+02  0.11103258747E+03  0.80382132219E+02 0.  0.
          5    1    3    3  501    0 -0.49342406868E+02 -0.70929529544E+01 -0.14553369458E+03  0.15390623559E+03  0.47000000000E+01 0. -1.
        -11    1    4    4    0    0  0.35305466348E+02  0.73451388474E+02 -0.19434425347E+03  0.21073981892E+03  0.00000000000E+00 0.  1.
         12    1    4    4    0    0  0.51150483960E+02 -0.10267679587E+02 -0.12285334488E+03  0.13347187570E+03  0.00000000000E+00 0. -1.
         -5    1    5    5    0  502 -0.67069991810E+02  0.51736605037E+01 -0.11231469313E+03  0.13100317117E+03  0.47000000000E+01 0.  1.
         11    1    6    6    0    0  0.95232124881E+01 -0.29105416674E+01 -0.46985933633E+02  0.48029582429E+02  0.00000000000E+00 0. -1.
        -12    1    6    6    0    0  0.20433235881E+02 -0.58353874769E+02  0.12111433219E+02  0.63003005037E+02  0.00000000000E+00 0.  1.
</event>
<event>
12    1  0.8691829E-002  0.2577513E+03  0.7818608E-02  0.1108997E+00
         21   -1    0    0  501  502  0.00000000000E+00  0.00000000000E+00  0.10453805900E+04  0.10453805900E+04  0.00000000000E+00 0.  1.
         21   -1    0    0  502  503 -0.00000000000E+00 -0.00000000000E+00 -0.62845368148E+02  0.62845368148E+02  0.00000000000E+00 0. -1.
         -6    2    1    2    0  503  0.14481412358E+03  0.11791174472E+03  0.47345409840E+03  0.53906817330E+03  0.17765529049E+03 0.  0.
        -24    2    3    3    0    0  0.14397608169E+03  0.67288869003E+02  0.23477793889E+03  0.29503584557E+03  0.81661285740E+02 0.  0.
          6    2    1    2  501    0 -0.14481412358E+03 -0.11791174472E+03  0.50908112349E+03  0.56915778489E+03  0.17292392511E+03 0.  0.
         24    2    5    5    0    0 -0.12916096818E+03 -0.22537879530E+02  0.35805463060E+03  0.38979143634E+03  0.80893347306E+02 0.  0.
          5    1    5    5  501    0 -0.15653155397E+02 -0.95373865192E+02  0.15102649290E+03  0.17936634855E+03  0.47000000000E+01 0. -1.
        -11    1    6    6    0    0 -0.10148128519E+03 -0.13785700291E+02  0.34116561170E+03  0.35620565883E+03  0.00000000000E+00 0.  1.
         12    1    6    6    0    0 -0.27679682988E+02 -0.87521792388E+01  0.16889018899E+02  0.33585777512E+02  0.00000000000E+00 0. -1.
         -5    1    3    3    0  503  0.83804188854E+00  0.50622875718E+02  0.23867615951E+03  0.24403232773E+03  0.47000000000E+01 0.  1.
         11    1    4    4    0    0  0.50939101379E+02 -0.15085651600E+02  0.87204421302E+02  0.10211258506E+03  0.00000000000E+00 0. -1.
        -12    1    4    4    0    0  0.93036980310E+02  0.82374520603E+02  0.14757351759E+03  0.19292326050E+03  0.00000000000E+00 0.  1.
</event>
<event>
12    1  0.8691829E-002  0.1744755E+03  0.7818608E-02  0.1173458E+00
         21   -1    0    0  501  502  0.00000000000E+00  0.00000000000E+00  0.32342016140E+03  0.32342016140E+03  0.00000000000E+00 0. -1.
         21   -1    0    0  502  503 -0.00000000000E+00 -0.00000000000E+00 -0.13023568424E+03  0.13023568424E+03  0.00000000000E+00 0. -1.
         -6    2    1    2    0  503 -0.20350518855E+02 -0.22035532215E+02 -0.23389858404E+02  0.17603629400E+03  0.17187781425E+03 0.  0.
        -24    2    3    3    0    0 -0.30665757941E+02  0.51798226925E+02 -0.27921368468E+02  0.10120012140E+03  0.76409532987E+02 0.  0.
          6    2    1    2  501    0  0.20350518855E+02  0.22035532215E+02  0.21657433556E+03  0.27761955164E+03  0.17108028621E+03 0.  0.
         24    2    5    5    0    0 -0.49736766878E+02  0.35938703621E+02  0.13420189345E+03  0.16847361715E+03  0.81288837317E+02 0.  0.
          5    1    5    5  501    0  0.70087285733E+02 -0.13903171406E+02  0.82372442113E+02  0.10914593449E+03  0.47000000000E+01 0. -1.
        -13    1    6    6    0    0 -0.39374853155E+02  0.48011029362E+02  0.13867997685E+03  0.15194595743E+03  0.00000000000E+00 0.  1.
         14    1    6    6    0    0 -0.10361913722E+02 -0.12072325741E+02 -0.44780833991E+01  0.16527659717E+02  0.00000000000E+00 0. -1.
         -5    1    3    3    0  503  0.10315239086E+02 -0.73833759140E+02  0.45315100641E+01  0.74836172601E+02  0.47000000000E+01 0.  1.
         11    1    4    4    0    0  0.84717156710E+01  0.82051927796E+01 -0.39725001482E+02  0.41438760813E+02  0.00000000000E+00 0. -1.
        -12    1    4    4    0    0 -0.39137473612E+02  0.43593034145E+02  0.11803633014E+02  0.59761360586E+02  0.00000000000E+00 0.  1.
</event>
<event>
12    1  0.8691829E-002  0.1930866E+03  0.7818608E-02  0.1155751E+00
         21   -1    0    0  503  502  0.00000000000E+00  0.00000000000E+00  0.30732406883E+03  0.30732406883E+03  0.00000000000E+00 0. -1.
         21   -1    0    0  501  503 -0.00000000000E+00 -0.00000000000E+00 -0.12305359122E+03  0.12305359122E+03  0.00000000000E+00 0. -1.
          6    2    1    2  501    0  0.54818610810E+02  0.69543157038E+02  0.65579167388E+02  0.20372799241E+03  0.17135675333E+03 0.  0.
         24    2    3    3    0    0 -0.12705394470E+02  0.53677514040E+02 -0.13786484972E+02  0.98218719397E+02  0.80088370628E+02 0.  0.
         -6    2    1    2    0  502 -0.54818610810E+02 -0.69543157038E+02  0.11869131022E+03  0.22664966764E+03  0.17158413079E+03 0.  0.
        -24    2    5    5    0    0  0.17430715611E+02 -0.19393509487E+02  0.10869558492E+03  0.13801019087E+03  0.80945318248E+02 0.  0.
          5    1    3    3  501    0  0.67524005280E+02  0.15865642998E+02  0.79365652361E+02  0.10550927301E+03  0.47000000000E+01 0. -1.
        -11    1    4    4    0    0 -0.24228410835E+02  0.20979760734E+02  0.28949790324E+02  0.43188616693E+02  0.00000000000E+00 0.  1.
         12    1    4    4    0    0  0.11523016365E+02  0.32697753306E+02 -0.42736275296E+02  0.55030102704E+02  0.00000000000E+00 0. -1.
         -5    1    5    5    0  502 -0.72249326421E+02 -0.50149647550E+02  0.99957253028E+01  0.88639476770E+02  0.47000000000E+01 0.  1.
         13    1    6    6    0    0 -0.29383935080E+02 -0.23135147099E+02  0.39635181517E+02  0.54494020644E+02  0.00000000000E+00 0. -1.
        -14    1    6    6    0    0  0.46814650690E+02  0.37416376113E+01  0.69060403403E+02  0.83516170227E+02  0.00000000000E+00 0.  1.
</event>
<event>
12    1  0.8691829E-002  0.2236784E+03  0.7818608E-02  0.1131370E+00
         21   -1    0    0  501  502  0.00000000000E+00  0.00000000000E+00  0.13644762181E+03  0.13644762181E+03  0.00000000000E+00 0. -1.
         21   -1    0    0  502  503 -0.00000000000E+00 -0.00000000000E+00 -0.36810134394E+03  0.36810134394E+03  0.00000000000E+00 0. -1.
         -6    2    1    2    0  503 -0.10015976580E+03 -0.10127711992E+03 -0.92521043318E+02  0.24205820529E+03  0.17246158294E+03 0.  0.
        -24    2    3    3    0    0 -0.19999222594E+02 -0.61095303982E+02  0.96145336622E+01  0.10606534848E+03  0.83814162393E+02 0.  0.
          6    2    1    2  501    0  0.10015976580E+03  0.10127711992E+03 -0.13913267881E+03  0.26249076046E+03  0.17103936186E+03 0.  0.
         24    2    5    5    0    0  0.15665672381E+02  0.88003265191E+02 -0.23848084166E+02  0.11886598959E+03  0.74635141779E+02 0.  0.
          5    1    5    5  501    0  0.84494093422E+02  0.13273854729E+02 -0.11528459464E+03  0.14362477086E+03  0.47000000000E+01 0. -1.
        -11    1    6    6    0    0  0.33279402342E+02  0.10291509761E+02  0.25413302347E+01  0.34926954530E+02  0.00000000000E+00 0.  1.
         12    1    6    6    0    0 -0.17613729961E+02  0.77711755430E+02 -0.26389414400E+02  0.83939035064E+02  0.00000000000E+00 0. -1.
         -5    1    3    3    0  503 -0.80160543208E+02 -0.40181815937E+02 -0.10213557698E+03  0.13599285681E+03  0.47000000000E+01 0.  1.
         11    1    4    4    0    0 -0.32556926179E+02 -0.32281768577E+02  0.41102358525E+02  0.61574912919E+02  0.00000000000E+00 0. -1.
        -12    1    4    4    0    0  0.12557703585E+02 -0.28813535405E+02 -0.31487824863E+02  0.44490435561E+02  0.00000000000E+00 0.  1.
</event>
<event>
12    1  0.8691829E-002  0.1893166E+03  0.7818608E-02  0.1161911E+00
         21   -1    0    0  503  502  0.00000000000E+00  0.00000000000E+00  0.23651693478E+02  0.23651693478E+02  0.00000000000E+00 0. -1.
         21   -1    0    0  501  503 -0.00000000000E+00 -0.00000000000E+00 -0.16806730088E+04  0.16806730088E+04  0.00000000000E+00 0. -1.
          6    2    1    2  501    0 -0.34585731203E+02 -0.29540523777E+02 -0.11407178172E+04  0.11544064599E+04  0.17131351616E+03 0.  0.
         24    2    3    3    0    0 -0.60543364421E+02 -0.48591850634E+02 -0.46816080939E+03  0.48106273599E+03  0.78867899543E+02 0.  0.
         -6    2    1    2    0  502  0.34585731203E+02  0.29540523777E+02 -0.51630349813E+03  0.54991824239E+03  0.18377147708E+03 0.  0.
        -24    2    5    5    0    0 -0.23244755148E+02  0.44308967635E+02 -0.45338417169E+03  0.46306547200E+03  0.79804893098E+02 0.  0.
          5    1    3    3  501    0  0.25957633218E+02  0.19051326857E+02 -0.67255700779E+03  0.67334372389E+03  0.47000000000E+01 0. -1.
        -13    1    4    4    0    0 -0.20475361316E+02  0.14193085481E+01 -0.30616980642E+03  0.30685697844E+03  0.00000000000E+00 0.  1.
         14    1    4    4    0    0 -0.40068003104E+02 -0.50011159182E+02 -0.16199100298E+03  0.17420575754E+03  0.00000000000E+00 0. -1.
         -5    1    5    5    0  502  0.57830486351E+02 -0.14768443858E+02 -0.62919326436E+02  0.86852770392E+02  0.47000000000E+01 0.  1.
         13    1    6    6    0    0 -0.14308426154E+02 -0.21724345554E+02 -0.92849078070E+02  0.96424216602E+02  0.00000000000E+00 0. -1.
        -14    1    6    6    0    0 -0.89363289935E+01  0.66033313190E+02 -0.36053509362E+03  0.36664125540E+03  0.00000000000E+00 0.  1.
</event>
<event>
12    1  0.8691829E-002  0.1790100E+03  0.7818608E-02  0.1169364E+00
         21   -1    0    0  503  502  0.00000000000E+00  0.00000000000E+00  0.33763675146E+03  0.33763675146E+03  0.00000000000E+00 0. -1.
         21   -1    0    0  501  503 -0.00000000000E+00 -0.00000000000E+00 -0.12629996437E+03  0.12629996437E+03  0.00000000000E+00 0. -1.
          6    2    1    2  501    0  0.37443295504E+02  0.89805953417E+01 -0.12866746537E+02  0.17703636997E+03  0.17231851802E+03 0.  0.
         24    2    3    3    0    0  0.44866702934E+02 -0.34001028722E+02  0.43325863185E+02  0.10574663457E+03  0.78333449537E+02 0.  0.
         -6    2    1    2    0  502 -0.37443295504E+02 -0.89805953417E+01  0.22420353363E+03  0.28690034587E+03  0.17481971426E+03 0.  0.
        -24    2    5    5    0    0 -0.58551641223E+02 -0.42505944623E+02  0.22341473195E+03  0.24699767037E+03  0.76541862384E+02 0.  0.
          5    1    3    3  501    0 -0.74234074298E+01  0.42981624064E+02 -0.56192609722E+02  0.71289735393E+02  0.47000000000E+01 0. -1.
        -11    1    4    4    0    0  0.35696881939E+02  0.14617075826E+02  0.40887422508E+02  0.56211276495E+02  0.00000000000E+00 0.  1.
         12    1    4    4    0    0  0.91698209949E+01 -0.48618104548E+02  0.24384406766E+01  0.49535358077E+02  0.00000000000E+00 0. -1.
         -5    1    5    5    0  502  0.21108345718E+02  0.33525349282E+02  0.78880167638E+00  0.39902675493E+02  0.47000000000E+01 0.  1.
         11    1    6    6    0    0 -0.29720627209E+02  0.20160565755E+02  0.66162088193E+02  0.75280714711E+02  0.00000000000E+00 0. -1.
        -12    1    6    6    0    0 -0.28831014014E+02 -0.62666510379E+02  0.15725264376E+03  0.17171695566E+03  0.00000000000E+00 0.  1.
</event>
<event>
12    1  0.8691829E-002  0.2095621E+03  0.7818608E-02  0.1142220E+00
         21   -1    0    0  503  502  0.00000000000E+00  0.00000000000E+00  0.85744455473E+03  0.85744455473E+03  0.00000000000E+00 0. -1.
         21   -1    0    0  501  503 -0.00000000000E+00 -0.00000000000E+00 -0.78503284875E+02  0.78503284875E+02  0.00000000000E+00 0. -1.
          6    2    1    2  501    0 -0.11733508877E+03  0.13605878179E+02  0.11075466309E+03  0.23566958573E+03  0.17123351093E+03 0.  0.
         24    2    3    3    0    0 -0.14683704835E+02  0.39587886564E+02  0.12618519277E+02  0.91221795493E+02  0.79871002209E+02 0.  0.
         -6    2    1    2    0  502  0.11733508877E+03 -0.13605878179E+02  0.66818660677E+03  0.70027825388E+03  0.17310011094E+03 0.  0.
        -24    2    5    5    0    0  0.10510133098E+03  0.33551587739E+02  0.32792907463E+03  0.35651849824E+03  0.85999783612E+02 0.  0.
          5    1    3    3  501    0 -0.10265138393E+03 -0.25982008385E+02  0.98136143812E+02  0.14444779024E+03  0.47000000000E+01 0. -1.
        -11    1    4    4    0    0 -0.28417423930E+02  0.18471237624E+02 -0.27638344005E+02  0.43733450144E+02  0.00000000000E+00 0.  1.
         12    1    4    4    0    0  0.13733719095E+02  0.21116648939E+02  0.40256863282E+02  0.47488345348E+02  0.00000000000E+00 0. -1.
         -5    1    5    5    0  502  0.12233757787E+02 -0.47157465918E+02  0.34025753214E+03  0.34375975564E+03  0.47000000000E+01 0.  1.
         13    1    6    6    0    0  0.54291566372E+02 -0.27131064004E+02  0.13777495155E+03  0.15055100826E+03  0.00000000000E+00 0. -1.
        -14    1    6    6    0    0  0.50809764608E+02  0.60682651744E+02  0.19015412308E+03  0.20596748998E+03  0.00000000000E+00 0.  1.
</event>
<event>
12    1  0.8691829E-002  0.3349397E+03  0.7818608E-02  0.1069090E+00
         21   -1    0    0  501  502  0.00000000000E+00  0.00000000000E+00  0.13528880352E+04  0.13528880352E+04  0.00000000000E+00 0.  1.
         21   -1    0    0  502  503 -0.00000000000E+00 -0.00000000000E+00 -0.94119943272E+03  0.94119943272E+03  0.00000000000E+00 0.  1.
         -6    2    1    2    0  503 -0.28256097829E+03  0.32118914153E+02 -0.88970578974E+03  0.95028242344E+03  0.17489414200E+03 0.  0.
        -24    2    3    3    0    0 -0.15498156943E+03 -0.67137271969E+01 -0.30587889496E+03  0.35139978663E+03  0.76521569965E+02 0.  0.
          6    2    1    2  501    0  0.28256097829E+03 -0.32118914153E+02  0.13013943922E+04  0.13438050445E+04  0.17695282535E+03 0.  0.
         24    2    5    5    0    0  0.10702689862E+03  0.43794456098E+02  0.65468924611E+03  0.66939812807E+03  0.78122554243E+02 0.  0.
          5    1    5    5  501    0  0.17553407967E+03 -0.75913370251E+02  0.64670514609E+03  0.67440691640E+03  0.47000000000E+01 0. -1.
        -13    1    6    6    0    0 -0.14247900185E+01  0.25052700844E+02  0.20050841026E+03  0.20207248806E+03  0.00000000000E+00 0.  1.
         14    1    6    6    0    0  0.10845168864E+03  0.18741755255E+02  0.45418083585E+03  0.46732564001E+03  0.00000000000E+00 0. -1.
         -5    1    3    3    0  503 -0.12757940887E+03  0.38832641350E+02 -0.58382689478E+03  0.59888263681E+03  0.47000000000E+01 0.  1.
         13    1    4    4    0    0 -0.13013046135E+02  0.20376189365E+02 -0.21294759694E+02  0.32217933720E+02  0.00000000000E+00 0. -1.
        -14    1    4    4    0    0 -0.14196852329E+03 -0.27089916562E+02 -0.28458413526E+03  0.31918185291E+03  0.00000000000E+00 0.  1.
</event>
<event>
12    1  0.8691829E-002  0.2613888E+03  0.7818608E-02  0.1106438E+00
         21   -1    0    0  501  502  0.00000000000E+00  0.00000000000E+00  0.19070794511E+03  0.19070794511E+03  0.00000000000E+00 0. -1.
         21   -1    0    0  502  503 -0.00000000000E+00 -0.00000000000E+00 -0.53694820818E+03  0.53694820818E+03  0.00000000000E+00 0. -1.
         -6    2    1    2    0  503 -0.40208466277E+02 -0.19177260949E+03 -0.38349117053E+03  0.46362636753E+03  0.17172791351E+03 0.  0.
        -24    2    3    3    0    0 -0.29320788584E+02 -0.21444361857E+03 -0.36885936488E+03  0.43415271973E+03  0.74736729920E+02 0.  0.
          6    2    1    2  501    0  0.40208466277E+02  0.19177260949E+03  0.37250907462E+02  0.26402978576E+03  0.17300474893E+03 0.  0.
         24    2    5    5    0    0  0.35337847539E+02  0.39691586880E+02  0.56294981794E+02  0.11061164103E+03  0.79003953187E+02 0.  0.
          5    1    5    5  501    0  0.48706187378E+01  0.15208102261E+03 -0.19044074332E+02  0.15341814473E+03  0.47000000000E+01 0. -1.
        -13    1    6    6    0    0 -0.20484902966E+02  0.57475232569E+01 -0.40685614522E+01  0.21661451138E+02  0.00000000000E+00 0.  1.
         14    1    6    6    0    0  0.55822750505E+02  0.33944063623E+02  0.60363543246E+02  0.88950189895E+02  0.00000000000E+00 0. -1.
         -5    1    3    3    0  503 -0.10887677693E+02  0.22671009076E+02 -0.14631805654E+02  0.29473647802E+02  0.47000000000E+01 0.  1.
         13    1    4    4    0    0  0.12890811455E+02 -0.15066269324E+03 -0.26596215973E+03  0.30594327998E+03  0.00000000000E+00 0. -1.
        -14    1    4    4    0    0 -0.42211600039E+02 -0.63780925323E+02 -0.10289720515E+03  0.12820943975E+03  0.00000000000E+00 0.  1.
</event>
<event>
12    1  0.8691829E-002  0.1921454E+03  0.7818608E-02  0.1156628E+00
         21   -1    0    0  501  502  0.00000000000E+00  0.00000000000E+00  0.26423926113E+02  0.26423926113E+02  0.00000000000E+00 0.  1.
         21   -1    0    0  502  503 -0.00000000000E+00 -0.00000000000E+00 -0.19258228967E+04  0.19258228967E+04  0.00000000000E+00 0. -1.
         -6    2    1    2    0  503  0.75425613786E+02  0.42747088631E+02 -0.14631942122E+04  0.14757564718E+04  0.17147455916E+03 0.  0.
        -24    2    3    3    0    0 -0.24339125643E+02  0.20602974471E+02 -0.82734224850E+03  0.83172760998E+03  0.79112233305E+02 0.  0.
          6    2    1    2  501    0 -0.75425613786E+02 -0.42747088631E+02 -0.43620475835E+03  0.47649035104E+03  0.17103253091E+03 0.  0.
         24    2    5    5    0    0 -0.84650838719E+02 -0.78695787288E+02 -0.25200135725E+03  0.28852653355E+03  0.79900469798E+02 0.  0.
          5    1    5    5  501    0  0.92252249329E+01  0.35948698657E+02 -0.18420340110E+03  0.18796381749E+03  0.47000000000E+01 0. -1.
        -13    1    6    6    0    0 -0.54317443704E+02  0.17167454971E+01 -0.89823843030E+02  0.10498406871E+03  0.00000000000E+00 0.  1.
         14    1    6    6    0    0 -0.30333395015E+02 -0.80412532785E+02 -0.16217751422E+03  0.18354246484E+03  0.00000000000E+00 0. -1.
         -5    1    3    3    0  503  0.99764739429E+02  0.22144114160E+02 -0.63585196374E+03  0.64402886179E+03  0.47000000000E+01 0.  1.
         13    1    4    4    0    0  0.51302109866E+01  0.41312979451E+02 -0.26670325376E+03  0.26993278219E+03  0.00000000000E+00 0. -1.
        -14    1    4    4    0    0 -0.29469336629E+02 -0.20710004980E+02 -0.56063899474E+03  0.56179482779E+03  0.00000000000E+00 0.  1.
</event>
<event>
12    1  0.8691829E-002  0.1863719E+03  0.7818608E-02  0.1162027E+00
         21   -1    0    0  503  502  0.00000000000E+00  0.00000000000E+00  0.12343226922E+03  0.12343226922E+03  0.00000000000E+00 0.  1.
         21   -1    0    0  501  503 -0.00000000000E+00 -0.00000000000E+00 -0.47597812534E+03  0.47597812534E+03  0.00000000000E+00 0. -1.
          6    2    1    2  501    0 -0.70110670501E+02  0.10458541689E+01 -0.36839499896E+03  0.41236575493E+03  0.17150522047E+03 0.  0.
         24    2    3    3    0    0 -0.40422194234E+02  0.52563521171E+02 -0.13380137076E+03  0.17030845587E+03  0.81885809379E+02 0.  0.
         -6    2    1    2    0  502  0.70110670501E+02 -0.10458541689E+01  0.15849142846E+02  0.18704463964E+03  0.17267860886E+03 0.  0.
        -24    2    5    5    0    0  0.22529230837E+02  0.12455648263E+02  0.73126689271E+02  0.11122187727E+03  0.79750134069E+02 0.  0.
          5    1    3    3  501    0 -0.29688476266E+02 -0.51517667002E+02 -0.23459362820E+03  0.24205729906E+03  0.47000000000E+01 0. -1.
        -11    1    4    4    0    0 -0.61031737125E+02  0.26297625850E+02 -0.60961591502E+02  0.90181781421E+02  0.00000000000E+00 0.  1.
         12    1    4    4    0    0  0.20609542891E+02  0.26265895321E+02 -0.72839779262E+02  0.80126674448E+02  0.00000000000E+00 0. -1.
         -5    1    5    5    0  502  0.47581439663E+02 -0.13501502432E+02 -0.57277546425E+02  0.75822762366E+02  0.47000000000E+01 0.  1.
         13    1    6    6    0    0  0.41288298519E+02  0.30186934188E+02  0.25734391092E+02  0.57255859745E+02  0.00000000000E+00 0. -1.
        -14    1    6    6    0    0 -0.18759067682E+02 -0.17731285925E+02  0.47392298179E+02  0.53966017525E+02  0.00000000000E+00 0.  1.
</event>
<event>
12    1  0.8691829E-002  0.1838357E+03  0.7818608E-02  0.1164445E+00
         21   -1    0    0  501  502  0.00000000000E+00  0.00000000000E+00  0.17625803332E+02  0.17625803332E+02  0.00000000000E+00 0.  1.
         21   -1    0    0  502  503 -0.00000000000E+00 -0.00000000000E+00 -0.19387196866E+04  0.19387196866E+04  0.00000000000E+00 0.  1.
         -6    2    1    2    0  503 -0.58942651353E+02 -0.17517806699E+02 -0.10947234338E+04  0.11100517748E+04  0.17324675052E+03 0.  0.
        -24    2    3    3    0    0 -0.63145174758E+02 -0.61470133714E+02 -0.97701768281E+03  0.98424954086E+03  0.80110646736E+02 0.  0.
          6    2    1    2  501    0  0.58942651353E+02  0.17517806699E+02 -0.82637044951E+03  0.84629371515E+03  0.17188316610E+03 0.  0.
         24    2    5    5    0    0  0.99655668674E+02  0.18381498120E+02 -0.47725706625E+03  0.49478192287E+03  0.82253949112E+02 0.  0.
          5    1    5    5  501    0 -0.40713017321E+02 -0.86369142018E+00 -0.34911338326E+03  0.35151179228E+03  0.47000000000E+01 0. -1.
        -11    1    6    6    0    0  0.51876276248E+01  0.29743333377E+02 -0.64745855939E+02  0.71439507431E+02  0.00000000000E+00 0.  1.
         12    1    6    6    0    0  0.94468041049E+02 -0.11361835257E+02 -0.41251121031E+03  0.42334241544E+03  0.00000000000E+00 0. -1.
         -5    1    3    3    0  503  0.42025234051E+01  0.43952327015E+02 -0.11770575095E+03  0.12580223393E+03  0.47000000000E+01 0.  1.
         11    1    4    4    0    0  0.12604143268E+02  0.89797678293E+01 -0.14605375826E+03  0.14687137557E+03  0.00000000000E+00 0. -1.
        -12    1    4    4    0    0 -0.75749318026E+02 -0.70449901543E+02 -0.83096392455E+03  0.83737816529E+03  0.00000000000E+00 0.  1.
</event>
<event>
12    1  0.8691829E-002  0.2238855E+03  0.7818608E-02  0.1131053E+00
         21   -1    0    0  503  502  0.00000000000E+00  0.00000000000E+00  0.42109353288E+03  0.42109353288E+03  0.00000000000E+00 0. -1.
         21   -1    0    0  501  503 -0.00000000000E+00 -0.00000000000E+00 -0.11897047114E+03  0.11897047114E+03  0.00000000000E+00 0.  1.
          6    2    1    2  501    0 -0.88244971057E+02  0.11309873496E+03  0.14632565280E+03  0.26730486051E+03  0.17164554472E+03 0.  0.
         24    2    3    3    0    0 -0.11248332424E+03  0.10572486496E+03  0.16083096235E+03  0.23773518468E+03  0.82590400654E+02 0.  0.
         -6    2    1    2    0  502  0.88244971057E+02 -0.11309873496E+03  0.15579740894E+03  0.27275914351E+03  0.17189013633E+03 0.  0.
        -24    2    5    5    0    0  0.39981975752E+02 -0.44224977658E+02  0.15910194113E+03  0.18846251787E+03  0.81549285322E+02 0.  0.
          5    1    3    3  501    0  0.24238353186E+02  0.73738699938E+01 -0.14505309551E+02  0.29569675836E+02  0.47000000000E+01 0. -1.
        -13    1    4    4    0    0 -0.11112637737E+02  0.49490027746E+02  0.18091271972E+02  0.53852090817E+02  0.00000000000E+00 0.  1.
         14    1    4    4    0    0 -0.10137068651E+03  0.56234837218E+02  0.14273969037E+03  0.18388309386E+03  0.00000000000E+00 0. -1.
         -5    1    5    5    0  502  0.48262995305E+02 -0.68873757301E+02 -0.33045321912E+01  0.84296625636E+02  0.47000000000E+01 0.  1.
         13    1    6    6    0    0  0.40620809468E+01 -0.43780830096E+02  0.14204793227E+03  0.14869726510E+03  0.00000000000E+00 0. -1.
        -14    1    6    6    0    0  0.35919894805E+02 -0.44414756142E+00  0.17054008863E+02  0.39765252773E+02  0.00000000000E+00 0.  1.
</event>
<event>
12    1  0.8691829E-002  0.1889325E+03  0.7818608E-02  0.1160192E+00
         21   -1    0    0  501  502  0.00000000000E+00  0.00000000000E+00  0.11107780044E+04  0.11107780044E+04  0.00000000000E+00 0. -1.
         21   -1    0    0  502  503 -0.00000000000E+00 -0.00000000000E+00 -0.33789737038E+02  0.33789737038E+02  0.00000000000E+00 0. -1.
         -6    2    1    2    0  503 -0.70928002637E+02 -0.12412047705E+01  0.39634459579E+03  0.43907232986E+03  0.17510896633E+03 0.  0.
        -24    2    3    3    0    0 -0.46399754485E+02 -0.60406759500E+02  0.32142388277E+03  0.34039405938E+03  0.82175966334E+02 0.  0.
          6    2    1    2  501    0  0.70928002637E+02  0.12412047705E+01  0.68064367155E+03  0.70549541156E+03  0.17150990047E+03 0.  0.
         24    2    5    5    0    0  0.20246154444E+02  0.21440593464E+01  0.62169429379E+03  0.62760713246E+03  0.83500982141E+02 0.  0.
          5    1    5    5  501    0  0.50681848193E+02 -0.90285457593E+00  0.58949377757E+02  0.77888279097E+02  0.47000000000E+01 0. -1.
        -11    1    6    6    0    0 -0.27746018988E+02 -0.10748826276E+02  0.36061803712E+03  0.36184354013E+03  0.00000000000E+00 0.  1.
         12    1    6    6    0    0  0.47992173432E+02  0.12892885623E+02  0.26107625667E+03  0.26576359233E+03  0.00000000000E+00 0. -1.
         -5    1    3    3    0  503 -0.24528248152E+02  0.59165554730E+02  0.74920713027E+02  0.98678270477E+02  0.47000000000E+01 0.  1.
         13    1    4    4    0    0 -0.47307860452E+02 -0.13607475075E+02  0.76021490039E+02  0.90567455447E+02  0.00000000000E+00 0. -1.
        -14    1    4    4    0    0  0.90810596652E+00 -0.46799284425E+02  0.24540239273E+03  0.24982660394E+03  0.00000000000E+00 0.  1.
</event>
<event>
12    1  0.8691829E-002  0.2327220E+03  0.7818608E-02  0.1124798E+00
         21   -1    0    0  503  502  0.00000000000E+00  0.00000000000E+00  0.11668368907E+04  0.11668368907E+04  0.00000000000E+00 0.  1.
         21   -1    0    0  501  503 -0.00000000000E+00 -0.00000000000E+00 -0.54557197917E+02  0.54557197917E+02  0.00000000000E+00 0. -1.
          6    2    1    2  501    0 -0.79461869627E+01 -0.15698852863E+03  0.79269207947E+03  0.82605145861E+03  0.17114829652E+03 0.  0.
         24    2    3    3    0    0  0.36982672580E+02 -0.16556171138E+03  0.61959498247E+03  0.64695149526E+03  0.76615250213E+02 0.  0.
         -6    2    1    2    0  502  0.79461869627E+01  0.15698852863E+03  0.31958761334E+03  0.39534263004E+03  0.17161297305E+03 0.  0.
        -24    2    5    5    0    0 -0.69510635111E+02  0.73819983614E+02  0.13527856405E+03  0.17875896995E+03  0.58080642849E+02 0.  0.
          5    1    3    3  501    0 -0.44928859543E+02  0.85731827478E+01  0.17309709700E+03  0.17909996335E+03  0.47000000000E+01 0. -1.
        -13    1    4    4    0    0  0.18116421526E+01 -0.12539348311E+03  0.50788666032E+03  0.52314019859E+03  0.00000000000E+00 0.  1.
         14    1    4    4    0    0  0.35171030428E+02 -0.40168228266E+02  0.11170832216E+03  0.12381129667E+03  0.00000000000E+00 0. -1.
         -5    1    5    5    0  502  0.77456822073E+02  0.83168545014E+02  0.18430904929E+03  0.21658366009E+03  0.47000000000E+01 0.  1.
         13    1    6    6    0    0 -0.24395049567E+02  0.85726977953E+01  0.51612361086E+01  0.26367554855E+02  0.00000000000E+00 0. -1.
        -14    1    6    6    0    0 -0.45115585544E+02  0.65247285819E+02  0.13011732794E+03  0.15239141510E+03  0.00000000000E+00 0.  1.
</event>
<event>
12    1  0.8691829E-002  0.2414308E+03  0.7818608E-02  0.1118973E+00
         21   -1    0    0  501  502  0.00000000000E+00  0.00000000000E+00  0.67460016569E+02  0.67460016569E+02  0.00000000000E+00 0. -1.
         21   -1    0    0  502  503 -0.00000000000E+00 -0.00000000000E+00 -0.96406959820E+03  0.96406959820E+03  0.00000000000E+00 0. -1.
         -6    2    1    2    0  503 -0.12823043910E+03  0.10915251434E+03 -0.61609376640E+03  0.66142431123E+03  0.17191065583E+03 0.  0.
        -24    2    3    3    0    0 -0.66854286546E+02  0.11781782828E+02 -0.14878527970E+03  0.18012668688E+03  0.75500051893E+02 0.  0.
          6    2    1    2  501    0  0.12823043910E+03 -0.10915251434E+03 -0.28051581523E+03  0.37010530354E+03  0.17300721435E+03 0.  0.
         24    2    5    5    0    0  0.75461837794E+02  0.43747278524E+01 -0.89725402558E+02  0.14185975250E+03  0.79749070890E+02 0.  0.
          5    1    5    5  501    0  0.52768601308E+02 -0.11352724219E+03 -0.19079041267E+03  0.22824555104E+03  0.47000000000E+01 0. -1.
        -13    1    6    6    0    0  0.87779763166E+02  0.99092242438E+01 -0.92680822592E+02  0.12803598878E+03  0.00000000000E+00 0.  1.
         14    1    6    6    0    0 -0.12317925372E+02 -0.55344963914E+01  0.29554200335E+01  0.13823763719E+02  0.00000000000E+00 0. -1.
         -5    1    3    3    0  503 -0.61376152555E+02  0.97370731510E+02 -0.46730848670E+03  0.48129762434E+03  0.47000000000E+01 0.  1.
         13    1    4    4    0    0 -0.26646015717E+02  0.40538163998E+02 -0.97466720469E+02  0.10887200968E+03  0.00000000000E+00 0. -1.
        -14    1    4    4    0    0 -0.40208270829E+02 -0.28756381170E+02 -0.51318559233E+02  0.71254677200E+02  0.00000000000E+00 0.  1.
</event>
<event>
12    1  0.8691829E-002  0.1992500E+03  0.7818608E-02  0.1151630E+00
         21   -1    0    0  503  502  0.00000000000E+00  0.00000000000E+00  0.60417180736E+02  0.60417180736E+02  0.00000000000E+00 0. -1.
         21   -1    0    0  501  503 -0.00000000000E+00 -0.00000000000E+00 -0.15381183384E+04  0.15381183384E+04  0.00000000000E+00 0. -1.
          6    2    1    2  501    0  0.55372348833E+02  0.70265360690E+02 -0.13456979817E+04  0.13595263028E+04  0.17148000523E+03 0.  0.
         24    2    3    3    0    0 -0.35326135168E+02  0.49069925792E+02 -0.77774613101E+03  0.78396843765E+03  0.77856749800E+02 0.  0.
         -6    2    1    2    0  502 -0.55372348833E+02 -0.70265360690E+02 -0.13200317604E+03  0.23900921638E+03  0.17803721270E+03 0.  0.
        -24    2    5    5    0    0 -0.48614140570E+02 -0.11722331834E+03 -0.84819719963E+02  0.17193394752E+03  0.79134419747E+02 0.  0.
          5    1    3    3  501    0  0.90698484001E+02  0.21195434898E+02 -0.56795185065E+03  0.57555786513E+03  0.47000000000E+01 0. -1.
        -13    1    4    4    0    0  0.11882331194E+02  0.33886535281E+02 -0.14885245015E+03  0.15312262727E+03  0.00000000000E+00 0.  1.
         14    1    4    4    0    0 -0.47208466362E+02  0.15183390510E+02 -0.62889368086E+03  0.63084581037E+03  0.00000000000E+00 0. -1.
         -5    1    5    5    0  502 -0.67582082626E+01  0.46957957654E+02 -0.47183456073E+02  0.67075268862E+02  0.47000000000E+01 0.  1.
         13    1    6    6    0    0 -0.58722884422E+02 -0.11607170630E+03 -0.92133433485E+02  0.15940385103E+03  0.00000000000E+00 0. -1.
        -14    1    6    6    0    0  0.10108743852E+02 -0.11516120450E+01  0.73137135218E+01  0.12530096490E+02  0.00000000000E+00 0.  1.
</event>
<event>
12    1  0.8691829E-002  0.1819725E+03  0.7818608E-02  0.1168155E+00
         21   -1    0    0  503  502  0.00000000000E+00  0.00000000000E+00  0.26548550455E+03  0.26548550455E+03  0.00000000000E+00 0. -1.
         21   -1    0    0  501  503 -0.00000000000E+00 -0.00000000000E+00 -0.24058058617E+03  0.24058058617E+03  0.00000000000E+00 0. -1.
          6    2    1    2  501    0  0.52445534454E+00 -0.20256048461E+02 -0.16758635516E+03  0.24738470397E+03  0.18084087694E+03 0.  0.
         24    2    3    3    0    0  0.13777455136E+02 -0.71084253696E+02 -0.50344879857E+02  0.11882809394E+03  0.79641192790E+02 0.  0.
         -6    2    1    2    0  502 -0.52445534454E+00  0.20256048461E+02  0.19249127354E+03  0.25868138674E+03  0.17161756001E+03 0.  0.
        -24    2    5    5    0    0  0.47703186137E+02  0.20108315990E+02  0.47487201798E+02  0.10579516091E+03  0.79105267823E+02 0.  0.
          5    1    3    3  501    0 -0.13252999791E+02  0.50828205235E+02 -0.11724147530E+03  0.12855661003E+03  0.47000000000E+01 0. -1.
        -11    1    4    4    0    0 -0.87134437696E+01 -0.78199855864E+02 -0.21505494227E+02  0.81569772842E+02  0.00000000000E+00 0.  1.
         12    1    4    4    0    0  0.22490898905E+02  0.71156021684E+01 -0.28839385631E+02  0.37258321102E+02  0.00000000000E+00 0. -1.
         -5    1    5    5    0  502 -0.48227641482E+02  0.14773247073E+00  0.14500407174E+03  0.15288622583E+03  0.47000000000E+01 0.  1.
         11    1    6    6    0    0  0.12916426694E+02  0.47661078983E+02  0.18209739614E+02  0.52630857348E+02  0.00000000000E+00 0. -1.
        -12    1    6    6    0    0  0.34786759443E+02 -0.27552762993E+02  0.29277462184E+02  0.53164303560E+02  0.00000000000E+00 0.  1.
</event>
<event>
12    1  0.8691829E-002  0.1751663E+03  0.7818608E-02  0.1172615E+00
         21   -1    0    0  501  502  0.00000000000E+00  0.00000000000E+00  0.79129617925E+03  0.79129617925E+03  0.00000000000E+00 0.  1.
         21   -1    0    0  502  503 -0.00000000000E+00 -0.00000000000E+00 -0.73084762499E+02  0.73084762499E+02  0.00000000000E+00 0.  1.
         -6    2    1    2    0  503  0.29152863188E+01  0.33880093025E+02  0.62905382303E+02  0.18611913866E+03  0.17183389380E+03 0.  0.
        -24    2    3    3    0    0  0.54864258515E+02  0.56954784665E+02  0.65489202994E+02  0.12902357635E+03  0.78130104229E+02 0.  0.
          6    2    1    2  501    0 -0.29152863188E+01 -0.33880093025E+02  0.65530603445E+03  0.67826180308E+03  0.17162958702E+03 0.  0.
         24    2    5    5    0    0 -0.48224257609E+02  0.28296893417E+02  0.33785827516E+03  0.35159063753E+03  0.79633341705E+02 0.  0.
          5    1    5    5  501    0  0.45308971291E+02 -0.62176986441E+02  0.31744775929E+03  0.32667116555E+03  0.47000000000E+01 0. -1.
        -13    1    6    6    0    0 -0.29581036849E+02 -0.23328725742E+02  0.19384415225E+03  0.19747106762E+03  0.00000000000E+00 0.  1.
         14    1    6    6    0    0 -0.18643220760E+02  0.51625619159E+02  0.14401412291E+03  0.15411956992E+03  0.00000000000E+00 0. -1.
         -5    1    3    3    0  503 -0.51948972197E+02 -0.23074691640E+02 -0.25838206911E+01  0.57095562314E+02  0.47000000000E+01 0.  1.
         11    1    4    4    0    0  0.62725123580E+01  0.82582050538E+01  0.59022976381E+02  0.59927073204E+02  0.00000000000E+00 0. -1.
        -12    1    4    4    0    0  0.48591746157E+02  0.48696579611E+02  0.64662266132E+01  0.69096503146E+02  0.00000000000E+00 0.  1.
</event>
<event>
12    1  0.8691829E-002  0.2151583E+03  0.7818608E-02  0.1137890E+00
         21   -1    0    0  501  502  0.00000000000E+00  0.00000000000E+00  0.43539509641E+03  0.43539509641E+03  0.00000000000E+00 0.  1.
         21   -1    0    0  502  503 -0.00000000000E+00 -0.00000000000E+00 -0.13108347749E+03  0.13108347749E+03  0.00000000000E+00 0. -1.
         -6    2    1    2    0  503 -0.66968159116E+02 -0.10816249214E+03  0.26372830346E+02  0.21499163093E+03  0.17129511419E+03 0.  0.
        -24    2    3    3    0    0 -0.10061329396E+03 -0.82070163014E+02  0.57106949647E+02  0.16227084919E+03  0.78816738199E+02 0.  0.
          6    2    1    2  501    0  0.66968159116E+02  0.10816249214E+03  0.27793878857E+03  0.35148694298E+03  0.17352014825E+03 0.  0.
         24    2    5    5    0    0  0.45669686218E+02  0.23822133259E+02  0.23708006784E+03  0.25526612328E+03  0.79376450256E+02 0.  0.
          5    1    5    5  501    0  0.21298472898E+02  0.84340358880E+02  0.40858720736E+02  0.96220819701E+02  0.47000000000E+01 0. -1.
        -13    1    6    6    0    0  0.42638098646E+02  0.38833557607E+02  0.23210671117E+03  0.23916433267E+03  0.00000000000E+00 0.  1.
         14    1    6    6    0    0  0.30315875719E+01 -0.15011424348E+02  0.49733566678E+01  0.16101790606E+02  0.00000000000E+00 0. -1.
         -5    1    3    3    0  503  0.33645134842E+02 -0.26092329125E+02 -0.30734119301E+02  0.52720781736E+02  0.47000000000E+01 0.  1.
         11    1    4    4    0    0 -0.11919520040E+02 -0.37757268201E+02 -0.12049945157E+02  0.41387044329E+02  0.00000000000E+00 0. -1.
        -12    1    4    4    0    0 -0.88693773919E+02 -0.44312894813E+02  0.69156894804E+02  0.12088380486E+03  0.00000000000E+00 0.  1.
</event>
<event>
12    1  0.8691829E-002  0.2179951E+03  0.7818608E-02  0.1135468E+00
         21   -1    0    0  501  502  0.00000000000E+00  0.00000000000E+00  0.26494557410E+03  0.26494557410E+03  0.00000000000E+00 0.  1.
         21   -1    0    0  502  503 -0.00000000000E+00 -0.00000000000E+00 -0.18056885568E+03  0.18056885568E+03  0.00000000000E+00 0.  1.
         -6    2    1    2    0  503 -0.78334792820E+02  0.10826526121E+03  0.21464767327E+02  0.21862283302E+03  0.17169012881E+03 0.  0.
        -24    2    3    3    0    0 -0.36019180043E+02  0.76187586953E+02  0.78856346048E+02  0.14029358192E+03  0.79762372569E+02 0.  0.
          6    2    1    2  501    0  0.78334792820E+02 -0.10826526121E+03  0.62911951095E+02  0.22689159676E+03  0.17223291364E+03 0.  0.
         24    2    5    5    0    0  0.58558447425E+02 -0.13111554920E+03  0.88644069898E+02  0.18692321631E+03  0.80387428492E+02 0.  0.
          5    1    5    5  501    0  0.19776345395E+02  0.22850287989E+02 -0.25732118802E+02  0.39968380458E+02  0.47000000000E+01 0. -1.
        -13    1    6    6    0    0  0.71553549710E+01 -0.19523289572E+01  0.38394445387E+02  0.39104272524E+02  0.00000000000E+00 0.  1.
         14    1    6    6    0    0  0.51403092454E+02 -0.12916322024E+03  0.50249624511E+02  0.14781894378E+03  0.00000000000E+00 0. -1.
         -5    1    3    3    0  503 -0.42315612777E+02  0.32077674258E+02 -0.57391578722E+02  0.78329251105E+02  0.47000000000E+01 0.  1.
         11    1    4    4    0    0  0.23649546774E+02  0.36474260570E+02  0.21517265500E+02  0.48504282917E+02  0.00000000000E+00 0. -1.
        -12    1    4    4    0    0 -0.59668726817E+02  0.39713326383E+02  0.57339080548E+02  0.91789298998E+02  0.00000000000E+00 0.  1.
</event>
<event>
12    1  0.8691829E-002  0.2105522E+03  0.7818608E-02  0.1141292E+00
         21   -1    0    0  501  502  0.00000000000E+00  0.00000000000E+00  0.75147705180E+02  0.75147705180E+02  0.00000000000E+00 0.  1.
         21   -1    0    0  502  503 -0.00000000000E+00 -0.00000000000E+00 -0.61778168365E+03  0.61778168365E+03  0.00000000000E+00 0.  1.
         -6    2    1    2    0  503 -0.11470324053E+03 -0.38776164513E+02 -0.34836140311E+03  0.40704778631E+03  0.17225506911E+03 0.  0.
        -24    2    3    3    0    0 -0.45426280385E+02 -0.84151357483E+02 -0.13056359991E+03  0.17398947080E+03  0.63878669468E+02 0.  0.
          6    2    1    2  501    0  0.11470324053E+03  0.38776164513E+02 -0.19427257536E+03  0.28588160253E+03  0.17124845343E+03 0.  0.
         24    2    5    5    0    0  0.80432129168E+02 -0.40029917106E+02 -0.88799044593E+02  0.14975055072E+03  0.80425340865E+02 0.  0.
          5    1    5    5  501    0  0.34271111366E+02  0.78806081619E+02 -0.10547353077E+03  0.13613105181E+03  0.47000000000E+01 0. -1.
        -11    1    6    6    0    0  0.52947310180E+02  0.16310691804E+02 -0.56888482156E+02  0.79408788710E+02  0.00000000000E+00 0.  1.
         12    1    6    6    0    0  0.27484818989E+02 -0.56340608910E+02 -0.31910562437E+02  0.70341762007E+02  0.00000000000E+00 0. -1.
         -5    1    3    3    0  503 -0.69276960150E+02  0.45375192970E+02 -0.21779780321E+03  0.23305831550E+03  0.47000000000E+01 0.  1.
         13    1    4    4    0    0 -0.30997271895E+02 -0.17321398317E+02 -0.12662264838E+02  0.37698735462E+02  0.00000000000E+00 0. -1.
        -14    1    4    4    0    0 -0.14429008489E+02 -0.66829959166E+02 -0.11790133507E+03  0.13629073534E+03  0.00000000000E+00 0.  1.
</event>
<event>
12    1  0.8691829E-002  0.1743054E+03  0.7818608E-02  0.1174333E+00
         21   -1    0    0  501  502  0.00000000000E+00  0.00000000000E+00  0.14017044106E+04  0.14017044106E+04  0.00000000000E+00 0. -1.
         21   -1    0    0  502  503 -0.00000000000E+00 -0.00000000000E+00 -0.36633979932E+02  0.36633979932E+02  0.00000000000E+00 0. -1.
         -6    2    1    2    0  503 -0.96400468668E+01 -0.20041854765E+02  0.21227408400E+03  0.27243883181E+03  0.16931634267E+03 0.  0.
        -24    2    3    3    0    0  0.11391457712E+02 -0.68512182504E+02  0.18715924477E+03  0.21374861112E+03  0.76395035108E+02 0.  0.
          6    2    1    2  501    0  0.96400468668E+01  0.20041854765E+02  0.11527963467E+04  0.11658995587E+04  0.17288076148E+03 0.  0.
         24    2    5    5    0    0  0.41250865246E+02 -0.35780942757E+02  0.46129461774E+03  0.47141258284E+03  0.80344191786E+02 0.  0.
          5    1    5    5  501    0 -0.31610818379E+02  0.55822797522E+02  0.69150172894E+03  0.69448697589E+03  0.47000000000E+01 0. -1.
        -13    1    6    6    0    0 -0.17050379547E+02 -0.41647749353E+01  0.27822290218E+02  0.32895905914E+02  0.00000000000E+00 0.  1.
         14    1    6    6    0    0  0.58301244794E+02 -0.31616167822E+02  0.43347232753E+03  0.43851667693E+03  0.00000000000E+00 0. -1.
         -5    1    3    3    0  503 -0.21031504579E+02  0.48470327740E+02  0.25114839228E+02  0.58690220697E+02  0.47000000000E+01 0.  1.
         13    1    4    4    0    0 -0.28183429862E+02 -0.24876197756E+02  0.38341185496E+02  0.53695227337E+02  0.00000000000E+00 0. -1.
        -14    1    4    4    0    0  0.39574887574E+02 -0.43635984748E+02  0.14881805928E+03  0.16005338378E+03  0.00000000000E+00 0.  1.
</event>
<event>
12    1  0.8691829E-002  0.1873252E+03  0.7818608E-02  0.1161570E+00
         21   -1    0    0  501  502  0.00000000000E+00  0.00000000000E+00  0.14983306528E+03  0.14983306528E+03  0.00000000000E+00 0. -1.
         21   -1    0    0  502  503 -0.00000000000E+00 -0.00000000000E+00 -0.33146750789E+03  0.33146750789E+03  0.00000000000E+00 0. -1.
         -6    2    1    2    0  503 -0.19312343616E+02 -0.64869341166E+02 -0.22308796954E+03  0.28944350214E+03  0.17154678877E+03 0.  0.
        -24    2    3    3    0    0 -0.13818173765E+01  0.18394544625E+02 -0.16997181920E+03  0.18895572241E+03  0.80458542219E+02 0.  0.
          6    2    1    2  501    0  0.19312343616E+02  0.64869341166E+02  0.41453526923E+02  0.19185707103E+03  0.17467038321E+03 0.  0.
         24    2    5    5    0    0  0.31150015328E+02  0.93052074381E+02  0.73590968184E+02  0.14725547853E+03  0.81483331778E+02 0.  0.
          5    1    5    5  501    0 -0.11837671712E+02 -0.28182733215E+02 -0.32137441260E+02  0.44601592503E+02  0.47000000000E+01 0. -1.
        -11    1    6    6    0    0 -0.57256725137E+01  0.26472260286E+02  0.65301750561E+02  0.70695703665E+02  0.00000000000E+00 0.  1.
         12    1    6    6    0    0  0.36875687842E+02  0.66579814095E+02  0.82892176227E+01  0.76559774866E+02  0.00000000000E+00 0. -1.
         -5    1    3    3    0  503 -0.17930526240E+02 -0.83263885791E+02 -0.53116150332E+02  0.10048777973E+03  0.47000000000E+01 0.  1.
         13    1    4    4    0    0  0.10692640671E+02 -0.24148279748E+02 -0.11703387972E+03  0.11997666849E+03  0.00000000000E+00 0. -1.
        -14    1    4    4    0    0 -0.12074458047E+02  0.42542824373E+02 -0.52937939482E+02  0.68979053917E+02  0.00000000000E+00 0.  1.
</event>
<event>
12    1  0.8691829E-002  0.4148454E+03  0.7818608E-02  0.1038807E+00
         21   -1    0    0  501  502  0.00000000000E+00  0.00000000000E+00  0.39438845282E+03  0.39438845282E+03  0.00000000000E+00 0. -1.
         21   -1    0    0  502  503 -0.00000000000E+00 -0.00000000000E+00 -0.60905953700E+03  0.60905953700E+03  0.00000000000E+00 0.  1.
         -6    2    1    2    0  503 -0.37744153310E+03  0.26292577108E+02 -0.37493190635E+03  0.55872304928E+03  0.16865378998E+03 0.  0.
        -24    2    3    3    0    0 -0.15666549342E+03 -0.50319928784E+02 -0.16999223330E+03  0.24786312046E+03  0.73909370447E+02 0.  0.
          6    2    1    2  501    0  0.37744153310E+03 -0.26292577108E+02  0.16026082217E+03  0.44472494055E+03  0.17012739669E+03 0.  0.
         24    2    5    5    0    0  0.38836145421E+03 -0.12375778174E+02  0.15613897283E+03  0.42596323456E+03  0.78022556752E+02 0.  0.
          5    1    5    5  501    0 -0.10919921109E+02 -0.13916798934E+02  0.41218493334E+01  0.18761705986E+02  0.47000000000E+01 0. -1.
        -11    1    6    6    0    0  0.24975297784E+02  0.14309952152E+02 -0.18001109894E+01  0.28840607303E+02  0.00000000000E+00 0.  1.
         12    1    6    6    0    0  0.36338615642E+03 -0.26685730327E+02  0.15793908382E+03  0.39712262726E+03  0.00000000000E+00 0. -1.
         -5    1    3    3    0  503 -0.22077603967E+03  0.76612505892E+02 -0.20493967305E+03  0.31085992882E+03  0.47000000000E+01 0.  1.
         11    1    4    4    0    0 -0.13609504465E+02  0.92145353518E+01  0.17779446916E+01  0.16531405290E+02  0.00000000000E+00 0. -1.
        -12    1    4    4    0    0 -0.14305598896E+03 -0.59534464136E+02 -0.17177017799E+03  0.23133171517E+03  0.00000000000E+00 0.  1.
</event>
<event>
12    1  0.8691829E-002  0.1908697E+03  0.7818608E-02  0.1158518E+00
         21   -1    0    0  501  502  0.00000000000E+00  0.00000000000E+00  0.14588003778E+03  0.14588003778E+03  0.00000000000E+00 0. -1.
         21   -1    0    0  502  503 -0.00000000000E+00 -0.00000000000E+00 -0.37397732238E+03  0.37397732238E+03  0.00000000000E+00 0. -1.
         -6    2    1    2    0  503 -0.47926934435E+02  0.55469556285E+02 -0.26747189732E+03  0.32859162356E+03  0.17623103160E+03 0.  0.
        -24    2    3    3    0    0 -0.30157508233E+01 -0.14231292820E+02 -0.50053510218E+02  0.95851279337E+02  0.80439352416E+02 0.  0.
          6    2    1    2  501    0  0.47926934435E+02 -0.55469556285E+02  0.39374612721E+02  0.19126573660E+03  0.17221602466E+03 0.  0.
         24    2    5    5    0    0  0.94595142364E+02 -0.65432807934E+02  0.33384142858E+02  0.14294220461E+03  0.78027428196E+02 0.  0.
          5    1    5    5  501    0 -0.46668207929E+02  0.99632516493E+01  0.59904698634E+01  0.48323531989E+02  0.47000000000E+01 0. -1.
        -11    1    6    6    0    0  0.38298602994E+02 -0.56259663593E+02 -0.13164773640E+02  0.69319867310E+02  0.00000000000E+00 0.  1.
         12    1    6    6    0    0  0.56296539369E+02 -0.91731443414E+01  0.46548916498E+02  0.73622337298E+02  0.00000000000E+00 0. -1.
         -5    1    3    3    0  503 -0.44911183611E+02  0.69700849105E+02 -0.21741838710E+03  0.23274034422E+03  0.47000000000E+01 0.  1.
         11    1    4    4    0    0  0.20856331264E+02 -0.40663039040E+02 -0.32959510525E+02  0.56345351466E+02  0.00000000000E+00 0. -1.
        -12    1    4    4    0    0 -0.23872082088E+02  0.26431746220E+02 -0.17093999693E+02  0.39505927871E+02  0.00000000000E+00 0.  1.
</event>
<event>
12    1  0.8691829E-002  0.1822065E+03  0.7818608E-02  0.1166254E+00
         21   -1    0    0  501  502  0.00000000000E+00  0.00000000000E+00  0.94915394668E+02  0.94915394668E+02  0.00000000000E+00 0. -1.
         21   -1    0    0  502  503 -0.00000000000E+00 -0.00000000000E+00 -0.34654199769E+03  0.34654199769E+03  0.00000000000E+00 0. -1.
         -6    2    1    2    0  503 -0.21238672708E+01 -0.53014935687E+02 -0.11141642293E+03  0.21154845205E+03  0.17182559194E+03 0.  0.
        -24    2    3    3    0    0  0.24758010235E+02 -0.80118866566E+02 -0.12842232235E+03  0.16949433189E+03  0.72139058855E+02 0.  0.
          6    2    1    2  501    0  0.21238672708E+01  0.53014935687E+02 -0.14021018009E+03  0.22990894031E+03  0.17431044724E+03 0.  0.
         24    2    5    5    0    0  0.59369101554E+02 -0.44611632269E+01 -0.69557580273E+02  0.12223165090E+03  0.80979795698E+02 0.  0.
          5    1    5    5  501    0 -0.57245234283E+02  0.57476098914E+02 -0.70652599814E+02  0.10767728941E+03  0.47000000000E+01 0. -1.
        -11    1    6    6    0    0  0.35798889369E+02  0.11518410526E+02 -0.82715003076E+02  0.90862566522E+02  0.00000000000E+00 0.  1.
         12    1    6    6    0    0  0.23570212184E+02 -0.15979573753E+02  0.13157422803E+02  0.31369084376E+02  0.00000000000E+00 0. -1.
         -5    1    3    3    0  503 -0.26881877506E+02  0.27103930879E+02  0.17005899420E+02  0.42054120160E+02  0.47000000000E+01 0.  1.
         11    1    4    4    0    0 -0.11420271895E+02 -0.67346470985E+02 -0.59386600984E+02  0.90513745589E+02  0.00000000000E+00 0. -1.
        -12    1    4    4    0    0  0.36178282131E+02 -0.12772395581E+02 -0.69035721369E+02  0.78980586296E+02  0.00000000000E+00 0.  1.
</event>
<event>
12    1  0.8691829E-002  0.1939985E+03  0.7818608E-02  0.1155494E+00
         21   -1    0    0  501  502  0.00000000000E+00  0.00000000000E+00  0.30482674665E+03  0.30482674665E+03  0.00000000000E+00 0.  1.
         21   -1    0    0  502  503 -0.00000000000E+00 -0.00000000000E+00 -0.16674003879E+03  0.16674003879E+03  0.00000000000E+00 0.  1.
         -6    2    1    2    0  503  0.42059567630E+02 -0.69051536114E+02 -0.53749706623E+02  0.19873600726E+03  0.17340659662E+03 0.  0.
        -24    2    3    3    0    0 -0.85807506624E+01 -0.82739944068E+02 -0.78555250840E+02  0.14051900482E+03  0.81579014796E+02 0.  0.
          6    2    1    2  501    0 -0.42059567630E+02  0.69051536114E+02  0.19183641448E+03  0.27283077818E+03  0.17634710582E+03 0.  0.
         24    2    5    5    0    0  0.20971733375E+02 -0.14566992249E+02  0.11750611514E+03  0.14433141401E+03  0.79823925671E+02 0.  0.
          5    1    5    5  501    0 -0.63031301005E+02  0.83618528363E+02  0.74330299342E+02  0.12849936417E+03  0.47000000000E+01 0. -1.
        -13    1    6    6    0    0 -0.18713995494E+02 -0.86612753147E+01  0.97199064997E+02  0.99362415197E+02  0.00000000000E+00 0.  1.
         14    1    6    6    0    0  0.39685728869E+02 -0.59057169343E+01  0.20307050144E+02  0.44968998810E+02  0.00000000000E+00 0. -1.
         -5    1    3    3    0  503  0.50640318292E+02  0.13688407954E+02  0.24805544216E+02  0.58217002439E+02  0.47000000000E+01 0.  1.
         13    1    4    4    0    0  0.11841016990E+02 -0.15849650488E+02  0.14199002887E+02  0.24352264513E+02  0.00000000000E+00 0. -1.
        -14    1    4    4    0    0 -0.20421767652E+02 -0.66890293581E+02 -0.92754253727E+02  0.11616674031E+03  0.00000000000E+00 0.  1.
</event>
<event>
12    1  0.8691829E-002  0.1867188E+03  0.7818608E-02  0.1161949E+00
         21   -1    0    0  501  502  0.00000000000E+00  0.00000000000E+00  0.37017833780E+02  0.37017833780E+02  0.00000000000E+00 0.  1.
         21   -1    0    0  502  503 -0.00000000000E+00 -0.00000000000E+00 -0.11290045602E+04  0.11290045602E+04  0.00000000000E+00 0.  1.
         -6    2    1    2    0  503  0.66483657055E+02 -0.11420091623E+02 -0.79267129403E+03  0.81436581517E+03  0.17410745354E+03 0.  0.
        -24    2    3    3    0    0  0.66846280106E+02  0.54536233670E+02 -0.52742829582E+03  0.54100468690E+03  0.84040692986E+02 0.  0.
          6    2    1    2  501    0 -0.66483657055E+02  0.11420091623E+02 -0.29931543237E+03  0.35165657879E+03  0.17182004018E+03 0.  0.
         24    2    5    5    0    0 -0.26130843767E+02 -0.58522336578E+02 -0.16358014583E+03  0.19364882325E+03  0.81447638144E+02 0.  0.
          5    1    5    5  501    0 -0.40352813289E+02  0.69942428201E+02 -0.13573528653E+03  0.15800775555E+03  0.47000000000E+01 0. -1.
        -11    1    6    6    0    0  0.32570595110E+01  0.16876029835E+02 -0.95686074710E+01  0.19671478556E+02  0.00000000000E+00 0.  1.
         12    1    6    6    0    0 -0.29387903278E+02 -0.75398366412E+02 -0.15401153836E+03  0.17397734469E+03  0.00000000000E+00 0. -1.
         -5    1    3    3    0  503 -0.36262305036E+00 -0.65956325292E+02 -0.26524299822E+03  0.27336112826E+03  0.47000000000E+01 0.  1.
         11    1    4    4    0    0  0.79932315527E+02  0.21895241838E+02 -0.31681527259E+03  0.32747594359E+03  0.00000000000E+00 0. -1.
        -12    1    4    4    0    0 -0.13086035421E+02  0.32640991832E+02 -0.21061302323E+03  0.21352874332E+03  0.00000000000E+00 0.  1.
</event>
<event>
12    1  0.8691829E-002  0.2112891E+03  0.7818608E-02  0.1140578E+00
         21   -1    0    0  503  502  0.00000000000E+00  0.00000000000E+00  0.37312215149E+03  0.37312215149E+03  0.00000000000E+00 0. -1.
         21   -1    0    0  501  503 -0.00000000000E+00 -0.00000000000E+00 -0.12275529454E+03  0.12275529454E+03  0.00000000000E+00 0. -1.
          6    2    1    2  501    0 -0.12237717406E+03 -0.14925724152E+02  0.16512072638E+03  0.26803980184E+03  0.17141041718E+03 0.  0.
         24    2    3    3    0    0 -0.42766662442E+02 -0.46917284988E+02  0.27389818019E+02  0.10570315582E+03  0.79954586931E+02 0.  0.
         -6    2    1    2    0  502  0.12237717406E+03  0.14925724152E+02  0.85246130573E+02  0.22783764419E+03  0.17159294671E+03 0.  0.
        -24    2    5    5    0    0  0.11524441014E+03 -0.28522968298E+02  0.14044226255E+02  0.14398976780E+03  0.80255711006E+02 0.  0.
          5    1    3    3  501    0 -0.79610511618E+02  0.31991560836E+02  0.13773090836E+03  0.16233664603E+03  0.47000000000E+01 0. -1.
        -13    1    4    4    0    0 -0.99554382075E+01  0.22151436706E+02  0.14125995610E+02  0.28095206887E+02  0.00000000000E+00 0.  1.
         14    1    4    4    0    0 -0.32811224234E+02 -0.69068721694E+02  0.13263822409E+02  0.77607948930E+02  0.00000000000E+00 0. -1.
         -5    1    5    5    0  502  0.71327639159E+01  0.43448692450E+02  0.71201904318E+02  0.83847876391E+02  0.47000000000E+01 0.  1.
         13    1    6    6    0    0  0.99347237090E+02 -0.38239405581E+02  0.38539467946E+02  0.11321402849E+03  0.00000000000E+00 0. -1.
        -14    1    6    6    0    0  0.15897173054E+02  0.97164372826E+01 -0.24495241691E+02  0.30775739310E+02  0.00000000000E+00 0.  1.
</event>
<event>
12    1  0.8691829E-002  0.2242667E+03  0.7818608E-02  0.1130821E+00
         21   -1    0    0  503  502  0.00000000000E+00  0.00000000000E+00  0.62770606335E+03  0.62770606335E+03  0.00000000000E+00 0.  1.
         21   -1    0    0  501  503 -0.00000000000E+00 -0.00000000000E+00 -0.12513490731E+03  0.12513490731E+03  0.00000000000E+00 0. -1.
          6    2    1    2  501    0  0.17174325137E+02 -0.14563566835E+03  0.25297503332E+02  0.22568898263E+03  0.16967866060E+03 0.  0.
         24    2    3    3    0    0  0.88898304759E+01 -0.10994070603E+02  0.38735343448E+02  0.90043642705E+02  0.80047061690E+02 0.  0.
         -6    2    1    2    0  502 -0.17174325137E+02  0.14563566835E+03  0.47727365271E+03  0.52715198803E+03  0.16909870956E+03 0.  0.
        -24    2    5    5    0    0 -0.46637911638E+02  0.15830082099E+02  0.13771546338E+03  0.16240625866E+03  0.70601400109E+02 0.  0.
          5    1    3    3  501    0  0.82844946614E+01 -0.13464159775E+03 -0.13437840116E+02  0.13564533992E+03  0.47000000000E+01 0. -1.
        -11    1    4    4    0    0  0.32886779941E+02 -0.12680049772E+02  0.51811110914E+02  0.62663507492E+02  0.00000000000E+00 0.  1.
         12    1    4    4    0    0 -0.23996949466E+02  0.16859791684E+01 -0.13075767466E+02  0.27380135212E+02  0.00000000000E+00 0. -1.
         -5    1    5    5    0  502  0.29463586501E+02  0.12980558625E+03  0.33955818933E+03  0.36474572937E+03  0.47000000000E+01 0.  1.
         11    1    6    6    0    0 -0.25529482484E+02  0.63349244090E+01  0.13673260810E+03  0.13923969212E+03  0.00000000000E+00 0. -1.
        -12    1    6    6    0    0 -0.21108429154E+02  0.94951576899E+01  0.98285527817E+00  0.23166566543E+02  0.00000000000E+00 0.  1.
</event>
<event>
12    1  0.8691829E-002  0.1974112E+03  0.7818608E-02  0.1152331E+00
         21   -1    0    0  501  502  0.00000000000E+00  0.00000000000E+00  0.12168190517E+03  0.12168190517E+03  0.00000000000E+00 0. -1.
         21   -1    0    0  502  503 -0.00000000000E+00 -0.00000000000E+00 -0.32458074783E+03  0.32458074783E+03  0.00000000000E+00 0.  1.
         -6    2    1    2    0  503  0.93246491304E+02 -0.37440122204E+01 -0.13429453215E+03  0.23727047223E+03  0.17191081949E+03 0.  0.
        -24    2    3    3    0    0  0.79184394297E+02 -0.19217088027E+02 -0.12729952332E+02  0.11383143580E+03  0.78460686448E+02 0.  0.
          6    2    1    2  501    0 -0.93246491304E+02  0.37440122204E+01 -0.68604310505E+02  0.20899218078E+03  0.17396049677E+03 0.  0.
         24    2    5    5    0    0 -0.12234035938E+03  0.28778292352E+02 -0.79138345789E+02  0.16891445329E+03  0.80460307668E+02 0.  0.
          5    1    5    5  501    0  0.29093868078E+02 -0.25034280132E+02  0.10534035283E+02  0.40077727491E+02  0.47000000000E+01 0. -1.
        -13    1    6    6    0    0 -0.64088289794E+02  0.28427703416E+02  0.66284755678E+00  0.70113355198E+02  0.00000000000E+00 0.  1.
         14    1    6    6    0    0 -0.58252069589E+02  0.35058893610E+00 -0.79801193345E+02  0.98801098087E+02  0.00000000000E+00 0. -1.
         -5    1    3    3    0  503  0.14062097007E+02  0.15473075807E+02 -0.12156457982E+03  0.12343903643E+03  0.47000000000E+01 0.  1.
         11    1    4    4    0    0  0.52266090713E+02  0.20649937264E+02 -0.28757122305E+02  0.63127935423E+02  0.00000000000E+00 0. -1.
        -12    1    4    4    0    0  0.26918303584E+02 -0.39867025291E+02  0.16027169973E+02  0.50703500379E+02  0.00000000000E+00 0.  1.
</event>
<event>
12    1  0.8691829E-002  0.1881089E+03  0.7818608E-02  0.1160231E+00
         21   -1    0    0  501  502  0.00000000000E+00  0.00000000000E+00  0.20602786030E+02  0.20602786030E+02  0.00000000000E+00 0.  1.
         21   -1    0    0  502  503 -0.00000000000E+00 -0.00000000000E+00 -0.17177658161E+04  0.17177658161E+04  0.00000000000E+00 0.  1.
         -6    2    1    2    0  503  0.63261825193E+02 -0.41182558957E+02 -0.81548611984E+03  0.83684813670E+03  0.17204397857E+03 0.  0.
        -24    2    3    3    0    0  0.39180918841E+02 -0.94203920722E+02 -0.58459680267E+03  0.59868197278E+03  0.79102210837E+02 0.  0.
          6    2    1    2  501    0 -0.63261825193E+02  0.41182558957E+02 -0.88167691020E+03  0.90152046540E+03  0.17229890848E+03 0.  0.
         24    2    5    5    0    0 -0.63775330930E+02  0.85030113354E+02 -0.65849485178E+03  0.67402278868E+03  0.96921807753E+02 0.  0.
          5    1    5    5  501    0  0.51350573668E+00 -0.43847554397E+02 -0.22318205842E+03  0.22749767672E+03  0.47000000000E+01 0. -1.
        -11    1    6    6    0    0 -0.48964435925E+02  0.36203528106E+01 -0.12763509382E+03  0.13675284317E+03  0.00000000000E+00 0.  1.
         12    1    6    6    0    0 -0.14810895004E+02  0.81409760544E+02 -0.53085975796E+03  0.53726994551E+03  0.00000000000E+00 0. -1.
         -5    1    3    3    0  503  0.24080906352E+02  0.53021361765E+02 -0.23088931717E+03  0.23816616392E+03  0.47000000000E+01 0.  1.
         13    1    4    4    0    0  0.13927291153E+02 -0.71030952035E+02 -0.20244308911E+03  0.21499434856E+03  0.00000000000E+00 0. -1.
        -14    1    4    4    0    0  0.25253627688E+02 -0.23172968687E+02 -0.38215371356E+03  0.38368762422E+03  0.00000000000E+00 0.  1.
</event>
<event>
12    1  0.8691829E-002  0.1968961E+03  0.7818608E-02  0.1153471E+00
         21   -1    0    0  503  502  0.00000000000E+00  0.00000000000E+00  0.13826325815E+04  0.13826325815E+04  0.00000000000E+00 0. -1.
         21   -1    0    0  501  503 -0.00000000000E+00 -0.00000000000E+00 -0.44139664661E+02  0.44139664661E+02  0.00000000000E+00 0.  1.
          6    2    1    2  501    0 -0.72110964322E+02  0.62184646256E+02  0.23440032912E+03  0.30612349317E+03  0.17234023725E+03 0.  0.
         24    2    3    3    0    0 -0.53563998481E+02 -0.30516578199E+02  0.11167671726E+03  0.15113742327E+03  0.81058423716E+02 0.  0.
         -6    2    1    2    0  502  0.72110964322E+02 -0.62184646256E+02  0.11040925877E+04  0.11206487530E+04  0.16663212149E+03 0.  0.
        -24    2    5    5    0    0  0.10497373547E+03 -0.13492972085E+02  0.72391206270E+03  0.73592786394E+03  0.79621611246E+02 0.  0.
          5    1    3    3  501    0 -0.18546965840E+02  0.92701224455E+02  0.12272361186E+03  0.15498606991E+03  0.47000000000E+01 0. -1.
        -11    1    4    4    0    0 -0.54364701006E+02  0.13167221850E+02  0.77949755043E+02  0.95943007864E+02  0.00000000000E+00 0.  1.
         12    1    4    4    0    0  0.80070252426E+00 -0.43683800049E+02  0.33726962216E+02  0.55194415402E+02  0.00000000000E+00 0. -1.
         -5    1    5    5    0  502 -0.32862771145E+02 -0.48691674171E+02  0.38018052499E+03  0.38472088901E+03  0.47000000000E+01 0.  1.
         11    1    6    6    0    0  0.54609398354E+02 -0.46912952038E+02  0.39003230387E+03  0.39662098976E+03  0.00000000000E+00 0. -1.
        -12    1    6    6    0    0  0.50364337113E+02  0.33419979953E+02  0.33387975883E+03  0.33930687418E+03  0.00000000000E+00 0.  1.
</event>
<event>
12    1  0.8691829E-002  0.4723338E+03  0.7818608E-02  0.1021355E+00
         21   -1    0    0  501  502  0.00000000000E+00  0.00000000000E+00  0.27835543219E+04  0.27835543219E+04  0.00000000000E+00 0.  1.
         21   -1    0    0  502  503 -0.00000000000E+00 -0.00000000000E+00 -0.10246778034E+03  0.10246778034E+03  0.00000000000E+00 0. -1.
         -6    2    1    2    0  503  0.52479356898E+02  0.43545822807E+03  0.66230784891E+03  0.81272360229E+03  0.17172657247E+03 0.  0.
        -24    2    3    3    0    0  0.77988041135E+01  0.29703595614E+03  0.33724668962E+03  0.45657205527E+03  0.80196829173E+02 0.  0.
          6    2    1    2  501    0 -0.52479356898E+02 -0.43545822807E+03  0.20187786926E+04  0.20732984999E+04  0.17527495173E+03 0.  0.
         24    2    5    5    0    0 -0.53978021492E+02 -0.44532541812E+03  0.20021502430E+04  0.20533434812E+04  0.79909332462E+02 0.  0.
          5    1    5    5  501    0  0.14986645939E+01  0.98671900585E+01  0.16628449605E+02  0.19955018704E+02  0.47000000000E+01 0. -1.
        -11    1    6    6    0    0 -0.62011758634E+02 -0.33898082626E+03  0.13975575231E+04  0.14394167184E+04  0.00000000000E+00 0.  1.
         12    1    6    6    0    0  0.80337371416E+01 -0.10634459187E+03  0.60459271991E+03  0.61392676283E+03  0.00000000000E+00 0. -1.
         -5    1    3    3    0  503  0.44680552785E+02  0.13842227193E+03  0.32506115929E+03  0.35615154702E+03  0.47000000000E+01 0.  1.
         11    1    4    4    0    0 -0.62362164976E+01  0.20502049367E+03  0.28072108449E+03  0.34767315183E+03  0.00000000000E+00 0. -1.
        -12    1    4    4    0    0  0.14035020611E+02  0.92015462461E+02  0.56525605124E+02  0.10889890344E+03  0.00000000000E+00 0.  1.
</event>
<event>
12    1  0.8691829E-002  0.1731537E+03  0.7818608E-02  0.1174674E+00
         21   -1    0    0  503  502  0.00000000000E+00  0.00000000000E+00  0.33846126647E+03  0.33846126647E+03  0.00000000000E+00 0. -1.
         21   -1    0    0  501  503 -0.00000000000E+00 -0.00000000000E+00 -0.89618983328E+02  0.89618983328E+02  0.00000000000E+00 0. -1.
          6    2    1    2  501    0  0.33935789538E+01 -0.20397931033E+02  0.14894444794E+03  0.22817586125E+03  0.17161638359E+03 0.  0.
         24    2    3    3    0    0  0.23953354856E+02  0.40373355137E+01  0.17030249361E+03  0.18947130401E+03  0.79412671696E+02 0.  0.
         -6    2    1    2    0  502 -0.33935789538E+01  0.20397931033E+02  0.99897835199E+02  0.19990438854E+03  0.17191449942E+03 0.  0.
        -24    2    5    5    0    0  0.34776663305E+02  0.61199836480E+02  0.97969870682E+02  0.14380118071E+03  0.78267794881E+02 0.  0.
          5    1    3    3  501    0 -0.20559775902E+02 -0.24435266547E+02 -0.21358045673E+02  0.38704557242E+02  0.47000000000E+01 0. -1.
        -11    1    4    4    0    0  0.62189680345E+01 -0.11118814043E+02  0.16507299714E+03  0.16556387883E+03  0.00000000000E+00 0.  1.
         12    1    4    4    0    0  0.17734386821E+02  0.15156149556E+02  0.52294964720E+01  0.23907425178E+02  0.00000000000E+00 0. -1.
         -5    1    5    5    0  502 -0.38170242259E+02 -0.40801905447E+02  0.19279645174E+01  0.56103207835E+02  0.47000000000E+01 0.  1.
         11    1    6    6    0    0 -0.68781099838E+00  0.63267210250E+02  0.85042763443E+02  0.10599756880E+03  0.00000000000E+00 0. -1.
        -12    1    6    6    0    0  0.35464474303E+02 -0.20673737697E+01  0.12927107239E+02  0.37803611910E+02  0.00000000000E+00 0.  1.
</event>
<event>
12    1  0.8691829E-002  0.1964274E+03  0.7818608E-02  0.1152795E+00
         21   -1    0    0  503  502  0.00000000000E+00  0.00000000000E+00  0.39928601022E+03  0.39928601022E+03  0.00000000000E+00 0. -1.
         21   -1    0    0  501  503 -0.00000000000E+00 -0.00000000000E+00 -0.16479205292E+03  0.16479205292E+03  0.00000000000E+00 0. -1.
          6    2    1    2  501    0  0.70514019383E+02  0.60519986995E+02 -0.64154149180E+02  0.20663856330E+03  0.17305734665E+03 0.  0.
         24    2    3    3    0    0  0.81186605821E+02  0.59153648951E+02  0.12609130453E+02  0.12898251343E+03  0.79919205775E+02 0.  0.
         -6    2    1    2    0  502 -0.70514019383E+02 -0.60519986995E+02  0.29864810648E+03  0.35743949984E+03  0.17302430115E+03 0.  0.
        -24    2    5    5    0    0 -0.42614622156E+01 -0.91558366144E+02  0.20691439666E+03  0.24000889979E+03  0.79935035880E+02 0.  0.
          5    1    3    3  501    0 -0.10672586437E+02  0.13663380438E+01 -0.76763279633E+02  0.77656049867E+02  0.47000000000E+01 0. -1.
        -13    1    4    4    0    0 -0.16027526786E+02  0.12089920225E+02  0.51042951366E+01  0.20714768036E+02  0.00000000000E+00 0.  1.
         14    1    4    4    0    0  0.97214132607E+02  0.47063728726E+02  0.75048353162E+01  0.10826774540E+03  0.00000000000E+00 0. -1.
         -5    1    5    5    0  502 -0.66252557168E+02  0.31038379149E+02  0.91733709816E+02  0.11743060005E+03  0.47000000000E+01 0.  1.
         11    1    6    6    0    0 -0.12859418895E+02 -0.10052543914E+03  0.20315385365E+03  0.22702911007E+03  0.00000000000E+00 0. -1.
        -12    1    6    6    0    0  0.85979566798E+01  0.89670729999E+01  0.37605430121E+01  0.12979789713E+02  0.00000000000E+00 0.  1.
</event>
<event>
12    1  0.8691829E-002  0.5320847E+03  0.7818608E-02  0.1005800E+00
         21   -1    0    0  501  502  0.00000000000E+00  0.00000000000E+00  0.63229767289E+03  0.63229767289E+03  0.00000000000E+00 0.  1.
         21   -1    0    0  502  503 -0.00000000000E+00 -0.00000000000E+00 -0.44694856419E+03  0.44694856419E+03  0.00000000000E+00 0. -1.
         -6    2    1    2    0  503  0.34554521437E+03  0.36467846518E+03  0.10406670196E+03  0.54216607322E+03  0.17527776342E+03 0.  0.
        -24    2    3    3    0    0  0.12013734829E+03  0.22560947290E+03  0.55035515354E+02  0.27276852689E+03  0.77724800405E+02 0.  0.
          6    2    1    2  501    0 -0.34554521437E+03 -0.36467846518E+03  0.81282406739E+02  0.53708016385E+03  0.17162865326E+03 0.  0.
         24    2    5    5    0    0 -0.33198643949E+03 -0.27375717127E+03  0.81767793784E+02  0.44503209129E+03  0.78801049146E+02 0.  0.
          5    1    5    5  501    0 -0.13558774876E+02 -0.90921293908E+02 -0.48538704491E+00  0.92048072564E+02  0.47000000000E+01 0. -1.
        -11    1    6    6    0    0 -0.19349140309E+03 -0.14395550510E+03  0.83487698211E+02  0.25521031772E+03  0.00000000000E+00 0.  1.
         12    1    6    6    0    0 -0.13849503640E+03 -0.12980166617E+03 -0.17199044274E+01  0.18982177357E+03  0.00000000000E+00 0. -1.
         -5    1    3    3    0  503  0.22540786608E+03  0.13906899228E+03  0.49031186609E+02  0.26939754632E+03  0.47000000000E+01 0.  1.
         11    1    4    4    0    0  0.99675600851E+02  0.10808427698E+03  0.19637503272E+02  0.14833431117E+03  0.00000000000E+00 0. -1.
        -12    1    4    4    0    0  0.20461747441E+02  0.11752519592E+03  0.35398012082E+02  0.12443421572E+03  0.00000000000E+00 0.  1.
</event>
<event>
12    1  0.8691829E-002  0.1815766E+03  0.7818608E-02  0.1166446E+00
         21   -1    0    0  503  502  0.00000000000E+00  0.00000000000E+00  0.11960821178E+03  0.11960821178E+03  0.00000000000E+00 0.  1.
         21   -1    0    0  501  503 -0.00000000000E+00 -0.00000000000E+00 -0.59713759654E+03  0.59713759654E+03  0.00000000000E+00 0.  1.
          6    2    1    2  501    0 -0.54525087276E+02 -0.18054194571E+02 -0.50193048656E+03  0.53353701897E+03  0.17154765574E+03 0.  0.
         24    2    3    3    0    0  0.39926181621E+00 -0.65686486232E+02 -0.34225836807E+03  0.35802976911E+03  0.82034451108E+02 0.  0.
         -6    2    1    2    0  502  0.54525087276E+02  0.18054194571E+02  0.24401101804E+02  0.18320878935E+03  0.17225303377E+03 0.  0.
        -24    2    5    5    0    0 -0.49738023019E+01 -0.37558448626E+02 -0.17805965984E+02  0.91358854590E+02  0.81203522799E+02 0.  0.
          5    1    3    3  501    0 -0.54924349092E+02  0.47632291660E+02 -0.15967211848E+03  0.17550724986E+03  0.47000000000E+01 0. -1.
        -13    1    4    4    0    0  0.25653369484E+02  0.60856683968E+01 -0.57060742086E+02  0.62857449941E+02  0.00000000000E+00 0.  1.
         14    1    4    4    0    0 -0.25254107668E+02 -0.71772154628E+02 -0.28519762599E+03  0.29517231917E+03  0.00000000000E+00 0. -1.
         -5    1    5    5    0  502  0.59498889578E+02  0.55612643197E+02  0.42207067787E+02  0.91849934761E+02  0.47000000000E+01 0.  1.
         11    1    6    6    0    0 -0.15426070388E+02 -0.19291300482E+01 -0.43506845074E+02  0.46200982226E+02  0.00000000000E+00 0. -1.
        -12    1    6    6    0    0  0.10452268086E+02 -0.35629318578E+02  0.25700879090E+02  0.45157872364E+02  0.00000000000E+00 0.  1.
</event>
<event>
12    1  0.8691829E-002  0.1994775E+03  0.7818608E-02  0.1150373E+00
         21   -1    0    0  503  502  0.00000000000E+00  0.00000000000E+00  0.26539914806E+03  0.26539914806E+03  0.00000000000E+00 0.  1.
         21   -1    0    0  501  503 -0.00000000000E+00 -0.00000000000E+00 -0.30791749217E+03  0.30791749217E+03  0.00000000000E+00 0.  1.
          6    2    1    2  501    0 -0.97987598082E+02  0.22390577701E+02 -0.22705673052E+03  0.30223506050E+03  0.17230312119E+03 0.  0.
         24    2    3    3    0    0 -0.78757614279E+02  0.37028890749E+02 -0.24514811258E+03  0.27168247319E+03  0.78357313510E+02 0.  0.
         -6    2    1    2    0  502  0.97987598082E+02 -0.22390577701E+02  0.18453838642E+03  0.27108157973E+03  0.17125390348E+03 0.  0.
        -24    2    5    5    0    0  0.11007555713E+03  0.26234562954E+02  0.89563632197E+02  0.16359754837E+03  0.77056038373E+02 0.  0.
          5    1    3    3  501    0 -0.19229983804E+02 -0.14638313048E+02  0.18091382062E+02  0.30552587303E+02  0.47000000000E+01 0. -1.
        -13    1    4    4    0    0 -0.29232416695E+02 -0.24285418675E+02 -0.71093472360E+02  0.80613879440E+02  0.00000000000E+00 0.  1.
         14    1    4    4    0    0 -0.49525197583E+02  0.61314309425E+02 -0.17405464022E+03  0.19106859376E+03  0.00000000000E+00 0. -1.
         -5    1    5    5    0  502 -0.12087959048E+02 -0.48625140655E+02  0.94974754218E+02  0.10748403136E+03  0.47000000000E+01 0.  1.
         13    1    6    6    0    0  0.48999962642E+02 -0.10145709969E+01 -0.33416507517E+01  0.49124253918E+02  0.00000000000E+00 0. -1.
        -14    1    6    6    0    0  0.61075594488E+02  0.27249133951E+02  0.92905282949E+02  0.11447329445E+03  0.00000000000E+00 0.  1.
</event>
<event>
12    1  0.8691829E-002  0.2163183E+03  0.7818608E-02  0.1136899E+00
         21   -1    0    0  503  502  0.00000000000E+00  0.00000000000E+00  0.39589906337E+03  0.39589906337E+03  0.00000000000E+00 0.  1.
         21   -1    0    0  501  503 -0.00000000000E+00 -0.00000000000E+00 -0.61850834663E+03  0.61850834663E+03  0.00000000000E+00 0.  1.
          6    2    1    2  501    0 -0.39534079714E+02 -0.11923262993E+03 -0.56773002670E+03  0.60709680767E+03  0.17455597146E+03 0.  0.
         24    2    3    3    0    0  0.44917741049E+02 -0.35991348008E+02 -0.25574614477E+03  0.27330457645E+03  0.77306664319E+02 0.  0.
         -6    2    1    2    0  502  0.39534079714E+02  0.11923262993E+03  0.34512074343E+03  0.40731060233E+03  0.17610859072E+03 0.  0.
        -24    2    5    5    0    0  0.84101577056E+02  0.41038387844E+02  0.23417562529E+03  0.26437176732E+03  0.79353533854E+02 0.  0.
          5    1    3    3  501    0 -0.84451820763E+02 -0.83241281919E+02 -0.31198388192E+03  0.33379223122E+03  0.47000000000E+01 0. -1.
        -13    1    4    4    0    0 -0.33785646103E+00 -0.34072787193E+02 -0.19260816482E+03  0.19559901362E+03  0.00000000000E+00 0.  1.
         14    1    4    4    0    0  0.45255597510E+02 -0.19185608154E+01 -0.63137979955E+02  0.77705562828E+02  0.00000000000E+00 0. -1.
         -5    1    5    5    0  502 -0.44567497342E+02  0.78194242084E+02  0.11094511814E+03  0.14293883501E+03  0.47000000000E+01 0.  1.
         11    1    6    6    0    0 -0.14674829844E+01 -0.16150228005E+02  0.59108433465E+02  0.61292660879E+02  0.00000000000E+00 0. -1.
        -12    1    6    6    0    0  0.85569060040E+02  0.57188615849E+02  0.17506719183E+03  0.20307910644E+03  0.00000000000E+00 0.  1.
</event>
<event>
12    1  0.8691829E-002  0.1788302E+03  0.7818608E-02  0.1169028E+00
         21   -1    0    0  503  502  0.00000000000E+00  0.00000000000E+00  0.69591471625E+02  0.69591471625E+02  0.00000000000E+00 0. -1.
         21   -1    0    0  501  503 -0.00000000000E+00 -0.00000000000E+00 -0.88953504035E+03  0.88953504035E+03  0.00000000000E+00 0. -1.
          6    2    1    2  501    0  0.44588150405E+02 -0.25001473742E+02 -0.74396552260E+03  0.76515680841E+03  0.17136821699E+03 0.  0.
         24    2    3    3    0    0 -0.22151235445E+02  0.19084081962E+02 -0.23551842316E+03  0.25043530626E+03  0.79962713550E+02 0.  0.
         -6    2    1    2    0  502 -0.44588150405E+02  0.25001473742E+02 -0.75978046124E+02  0.19396970356E+03  0.17099241376E+03 0.  0.
        -24    2    5    5    0    0 -0.45052047080E+02  0.61710375023E+02 -0.10054534502E+03  0.14954672743E+03  0.80106179207E+02 0.  0.
          5    1    3    3  501    0  0.66739385850E+02 -0.44085555704E+02 -0.50844709944E+03  0.51472150215E+03  0.47000000000E+01 0. -1.
        -13    1    4    4    0    0 -0.14824977523E+02 -0.29977452466E+02 -0.12304023900E+03  0.12750422749E+03  0.00000000000E+00 0.  1.
         14    1    4    4    0    0 -0.73262579217E+01  0.49061534428E+02 -0.11247818416E+03  0.12293107877E+03  0.00000000000E+00 0. -1.
         -5    1    5    5    0  502  0.46389667558E+00 -0.36708901281E+02  0.24567298900E+02  0.44422976134E+02  0.47000000000E+01 0.  1.
         11    1    6    6    0    0 -0.35053369572E+02 -0.10902487818E+02 -0.41650338160E+02  0.55518948367E+02  0.00000000000E+00 0. -1.
        -12    1    6    6    0    0 -0.99986775082E+01  0.72612862840E+02 -0.58895006865E+02  0.94027779062E+02  0.00000000000E+00 0.  1.
</event>
<event>
12    1  0.8691829E-002  0.1915023E+03  0.7818608E-02  0.1157966E+00
         21   -1    0    0  503  502  0.00000000000E+00  0.00000000000E+00  0.11127577301E+03  0.11127577301E+03  0.00000000000E+00 0.  1.
         21   -1    0    0  501  503 -0.00000000000E+00 -0.00000000000E+00 -0.33077938665E+03  0.33077938665E+03  0.00000000000E+00 0. -1.
          6    2    1    2  501    0  0.30781542332E+02 -0.73545786182E+02 -0.14450674902E+03  0.23990691025E+03  0.17411673974E+03 0.  0.
         24    2    3    3    0    0  0.58432677269E+02 -0.10948716928E+03 -0.11655512189E+03  0.18643026356E+03  0.75956097338E+02 0.  0.
         -6    2    1    2    0  502 -0.30781542332E+02  0.73545786182E+02 -0.74996864619E+02  0.20214824942E+03  0.16994969557E+03 0.  0.
        -24    2    5    5    0    0 -0.38231135689E+02  0.93133674920E+02 -0.10811461563E+03  0.16267601540E+03  0.68111781151E+02 0.  0.
          5    1    3    3  501    0 -0.27651134937E+02  0.35941383094E+02 -0.27951627129E+02  0.53476646689E+02  0.47000000000E+01 0. -1.
        -11    1    4    4    0    0  0.17334629578E+02 -0.91722336725E+00  0.52798436679E+01  0.18144074253E+02  0.00000000000E+00 0.  1.
         12    1    4    4    0    0  0.41098047690E+02 -0.10856994591E+03 -0.12183496556E+03  0.16828618931E+03  0.00000000000E+00 0. -1.
         -5    1    5    5    0  502  0.74495933568E+01 -0.19587888738E+02  0.33117751012E+02  0.39472234020E+02  0.47000000000E+01 0.  1.
         13    1    6    6    0    0 -0.16311473925E+02  0.91446550535E+02 -0.62264098238E+02  0.11182733886E+03  0.00000000000E+00 0. -1.
        -14    1    6    6    0    0 -0.21919661763E+02  0.16871243857E+01 -0.45850517394E+02  0.50848676539E+02  0.00000000000E+00 0.  1.
</event>
<event>
12    1  0.8691829E-002  0.1719472E+03  0.7818608E-02  0.1175944E+00
         21   -1    0    0  503  502  0.00000000000E+00  0.00000000000E+00  0.21489599442E+03  0.21489599442E+03  0.00000000000E+00 0.  1.
         21   -1    0    0  501  503 -0.00000000000E+00 -0.00000000000E+00 -0.22717829827E+03  0.22717829827E+03  0.00000000000E+00 0.  1.
          6    2    1    2  501    0 -0.53802398982E+01 -0.16199716490E+02 -0.14522687367E+03  0.22507042131E+03  0.17109784311E+03 0.  0.
         24    2    3    3    0    0  0.13893660958E+02 -0.74245181751E+02 -0.71204917660E+02  0.12893458375E+03  0.76476177723E+02 0.  0.
         -6    2    1    2    0  502  0.53802398982E+01  0.16199716490E+02  0.13294456982E+03  0.21700387138E+03  0.17066060985E+03 0.  0.
        -24    2    5    5    0    0 -0.30706070950E+02 -0.42675210008E+02  0.10392956813E+03  0.14195429361E+03  0.81151894625E+02 0.  0.
          5    1    3    3  501    0 -0.19273900856E+02  0.58045465261E+02 -0.74021956010E+02  0.96135837559E+02  0.47000000000E+01 0. -1.
        -11    1    4    4    0    0 -0.29601953388E+02 -0.37589093193E+02 -0.18217720472E+02  0.51196688474E+02  0.00000000000E+00 0.  1.
         12    1    4    4    0    0  0.43495614347E+02 -0.36656088558E+02 -0.52987197188E+02  0.77737895274E+02  0.00000000000E+00 0. -1.
         -5    1    5    5    0  502  0.36086310848E+02  0.58874926498E+02  0.29015001693E+02  0.75049577774E+02  0.47000000000E+01 0.  1.
         11    1    6    6    0    0 -0.11238253514E+02 -0.42652046118E+02  0.89583750587E+01  0.45008308831E+02  0.00000000000E+00 0. -1.
        -12    1    6    6    0    0 -0.19467817436E+02 -0.23163889650E-01  0.94971193068E+02  0.96945984780E+02  0.00000000000E+00 0.  1.
</event>
<event>
12    1  0.8691829E-002  0.2505994E+03  0.7818608E-02  0.1113402E+00
         21   -1    0    0  503  502  0.00000000000E+00  0.00000000000E+00  0.11116432297E+03  0.11116432297E+03  0.00000000000E+00 0. -1.
         21   -1    0    0  501  503 -0.00000000000E+00 -0.00000000000E+00 -0.91969018369E+03  0.91969018369E+03  0.00000000000E+00 0. -1.
          6    2    1    2  501    0  0.74114170185E+02  0.16195578339E+03 -0.72888838062E+03  0.77076477983E+03  0.17628808363E+03 0.  0.
         24    2    3    3    0    0  0.73780204045E+02  0.14720549782E+03 -0.73246224871E+03  0.75487311563E+03  0.78863792803E+02 0.  0.
         -6    2    1    2    0  502 -0.74114170185E+02 -0.16195578339E+03 -0.79637480105E+02  0.26008972683E+03  0.17199404574E+03 0.  0.
        -24    2    5    5    0    0 -0.16506111924E+02 -0.14691217192E+03 -0.11896467249E+02  0.16977952007E+03  0.82631238127E+02 0.  0.
          5    1    3    3  501    0  0.33396613950E+00  0.14750285574E+02  0.35738680942E+01  0.15891664200E+02  0.47000000000E+01 0. -1.
        -13    1    4    4    0    0  0.19184023934E+02 -0.35635561525E+01 -0.46682843313E+02  0.50596576628E+02  0.00000000000E+00 0.  1.
         14    1    4    4    0    0  0.54596180112E+02  0.15076905397E+03 -0.68577940540E+03  0.70427653900E+03  0.00000000000E+00 0. -1.
         -5    1    5    5    0  502 -0.57608058261E+02 -0.15043611475E+02 -0.67741012855E+02  0.90310206762E+02  0.47000000000E+01 0.  1.
         11    1    6    6    0    0 -0.41552036562E+02 -0.98766584523E+02  0.16685271059E+02  0.10844264950E+03  0.00000000000E+00 0. -1.
        -12    1    6    6    0    0  0.25045924638E+02 -0.48145587392E+02 -0.28581738308E+02  0.61336870568E+02  0.00000000000E+00 0.  1.
</event>
<event>
12    1  0.8691829E-002  0.2242967E+03  0.7818608E-02  0.1131514E+00
         21   -1    0    0  501  502  0.00000000000E+00  0.00000000000E+00  0.25008317747E+02  0.25008317747E+02  0.00000000000E+00 0. -1.
         21   -1    0    0  502  503 -0.00000000000E+00 -0.00000000000E+00 -0.31253923654E+04  0.31253923654E+04  0.00000000000E+00 0.  1.
         -6    2    1    2    0  503  0.53407902314E+02 -0.12593958465E+03 -0.25161386418E+04  0.25261161246E+04  0.17775215134E+03 0.  0.
        -24    2    3    3    0    0  0.78846100055E+02 -0.20339296192E+02 -0.14362193830E+04  0.14407377489E+04  0.79804452958E+02 0.  0.
          6    2    1    2  501    0 -0.53407902314E+02  0.12593958465E+03 -0.58424540592E+03  0.62428455859E+03  0.17226529757E+03 0.  0.
         24    2    5    5    0    0  0.27013011089E+02  0.75488321950E+02 -0.21273807661E+03  0.24081012796E+03  0.79396718873E+02 0.  0.
          5    1    5    5  501    0 -0.80420913403E+02  0.50451262700E+02 -0.37150732931E+03  0.38347443064E+03  0.47000000000E+01 0. -1.
        -11    1    6    6    0    0 -0.21446929060E+02  0.50352800476E+02 -0.13631663585E+03  0.14689316013E+03  0.00000000000E+00 0.  1.
         12    1    6    6    0    0  0.48459940148E+02  0.25135521474E+02 -0.76421440759E+02  0.93916967831E+02  0.00000000000E+00 0. -1.
         -5    1    3    3    0  503 -0.25438197740E+02 -0.10560028846E+03 -0.10799192588E+04  0.10853783757E+04  0.47000000000E+01 0.  1.
         11    1    4    4    0    0  0.29533005709E+02  0.27462752954E+02 -0.75187005693E+03  0.75295085081E+03  0.00000000000E+00 0. -1.
        -12    1    4    4    0    0  0.49313094346E+02 -0.47802049146E+02 -0.68434932602E+03  0.68778689810E+03  0.00000000000E+00 0.  1.
</event>
<event>
12    1  0.8691829E-002  0.2161424E+03  0.7818608E-02  0.1136872E+00
         21   -1    0    0  501  502  0.00000000000E+00  0.00000000000E+00  0.32657122626E+02  0.32657122626E+02  0.00000000000E+00 0. -1.
         21   -1    0    0  502  503 -0.00000000000E+00 -0.00000000000E+00 -0.14887778682E+04  0.14887778682E+04  0.00000000000E+00 0. -1.
         -6    2    1    2    0  503  0.10115872060E+03 -0.83470712608E+02 -0.88271467874E+03  0.90879190992E+03  0.17180536913E+03 0.  0.
        -24    2    3    3    0    0  0.13037941920E+03 -0.95350598408E+02 -0.67875184837E+03  0.70235086002E+03  0.80635781969E+02 0.  0.
          6    2    1    2  501    0 -0.10115872060E+03  0.83470712608E+02 -0.57340606679E+03  0.61264308086E+03  0.17127924708E+03 0.  0.
         24    2    5    5    0    0 -0.10921561416E+03  0.84542342031E+02 -0.31336177570E+03  0.35242935091E+03  0.83278970596E+02 0.  0.
          5    1    5    5  501    0  0.80568935659E+01 -0.10716294227E+01 -0.26004429110E+03  0.26021372995E+03  0.47000000000E+01 0. -1.
        -13    1    6    6    0    0 -0.46024785221E+02 -0.98205277356E+01 -0.77921522375E+02  0.91030144836E+02  0.00000000000E+00 0.  1.
         14    1    6    6    0    0 -0.63190828941E+02  0.94362869766E+02 -0.23544025332E+03  0.26139920607E+03  0.00000000000E+00 0. -1.
         -5    1    3    3    0  503 -0.29220698601E+02  0.11879885800E+02 -0.20396283037E+03  0.20644104991E+03  0.47000000000E+01 0.  1.
         11    1    4    4    0    0  0.82757942437E+02 -0.11083294439E+02 -0.29617327195E+03  0.30771792841E+03  0.00000000000E+00 0. -1.
        -12    1    4    4    0    0  0.47621476759E+02 -0.84267303969E+02 -0.38257857642E+03  0.39463293160E+03  0.00000000000E+00 0.  1.
</event>
<event>
12    1  0.8691829E-002  0.2079385E+03  0.7818608E-02  0.1144461E+00
         21   -1    0    0  503  502  0.00000000000E+00  0.00000000000E+00  0.75919169399E+03  0.75919169399E+03  0.00000000000E+00 0. -1.
         21   -1    0    0  501  503 -0.00000000000E+00 -0.00000000000E+00 -0.62742048161E+02  0.62742048161E+02  0.00000000000E+00 0. -1.
          6    2    1    2  501    0  0.30865186490E+02 -0.10580825514E+03  0.21114018893E+03  0.29634203937E+03  0.17632463901E+03 0.  0.
         24    2    3    3    0    0  0.87223031879E+01  0.18528064930E+02  0.76648629625E+02  0.11178880235E+03  0.78755038855E+02 0.  0.
         -6    2    1    2    0  502 -0.30865186490E+02  0.10580825514E+03  0.48530945690E+03  0.52559170278E+03  0.16903645312E+03 0.  0.
        -24    2    5    5    0    0 -0.58938568126E+02  0.11975037685E+03  0.45865479861E+03  0.48417844014E+03  0.79060926104E+02 0.  0.
          5    1    3    3  501    0  0.22142883303E+02 -0.12433632007E+03  0.13449155930E+03  0.18455323702E+03  0.47000000000E+01 0. -1.
        -13    1    4    4    0    0 -0.12841917398E+02  0.19973873893E+02 -0.75053505605E+01  0.24903830383E+02  0.00000000000E+00 0.  1.
         14    1    4    4    0    0  0.21564220586E+02 -0.14458089630E+01  0.84153980185E+02  0.86884971969E+02  0.00000000000E+00 0. -1.
         -5    1    5    5    0  502  0.28073381636E+02 -0.13942121714E+02  0.26654658292E+02  0.41413262646E+02  0.47000000000E+01 0.  1.
         11    1    6    6    0    0 -0.10202957682E+02 -0.40446161162E+01  0.11731398825E+03  0.11782627510E+03  0.00000000000E+00 0. -1.
        -12    1    6    6    0    0 -0.48735610444E+02  0.12379499297E+03  0.34134081036E+03  0.36635216503E+03  0.00000000000E+00 0.  1.
</event>
<event>
12    1  0.8691829E-002  0.1877814E+03  0.7818608E-02  0.1162064E+00
         21   -1    0    0  501  502  0.00000000000E+00  0.00000000000E+00  0.18444953856E+03  0.18444953856E+03  0.00000000000E+00 0. -1.
         21   -1    0    0  502  503 -0.00000000000E+00 -0.00000000000E+00 -0.21202177727E+03  0.21202177727E+03  0.00000000000E+00 0.  1.
         -6    2    1    2    0  503  0.75062274506E+02  0.38247222408E+01 -0.85209145775E+02  0.20004355752E+03  0.16464462587E+03 0.  0.
        -24    2    3    3    0    0  0.40281320976E+02  0.94898248646E+01  0.20511814095E+02  0.88505136019E+02  0.75496907147E+02 0.  0.
          6    2    1    2  501    0 -0.75062274506E+02 -0.38247222408E+01  0.57636907060E+02  0.19642775831E+03  0.17208392611E+03 0.  0.
         24    2    5    5    0    0 -0.61560637118E+02 -0.54521726118E+02  0.78197879569E+02  0.13988287344E+03  0.81792293347E+02 0.  0.
          5    1    5    5  501    0 -0.13501637388E+02  0.50697003878E+02 -0.20560972509E+02  0.56544884869E+02  0.47000000000E+01 0. -1.
        -11    1    6    6    0    0  0.12498937798E+02 -0.35668258110E+02  0.14806318106E+02  0.40591564869E+02  0.00000000000E+00 0.  1.
         12    1    6    6    0    0 -0.74059574916E+02 -0.18853468008E+02  0.63391561463E+02  0.99291308569E+02  0.00000000000E+00 0. -1.
         -5    1    3    3    0  503  0.34780953530E+02 -0.56651026238E+01 -0.10572095987E+03  0.11153842151E+03  0.47000000000E+01 0.  1.
         13    1    4    4    0    0 -0.11975040042E+02  0.16067991568E+01 -0.19002493640E+02  0.22518395859E+02  0.00000000000E+00 0. -1.
        -14    1    4    4    0    0  0.52256361017E+02  0.78830257078E+01  0.39514307735E+02  0.65986740159E+02  0.00000000000E+00 0.  1.
</event>
<event>
12    1  0.8691829E-002  0.2593893E+03  0.7818608E-02  0.1107543E+00
         21   -1    0    0  501  502  0.00000000000E+00  0.00000000000E+00  0.17529167886E+04  0.17529167886E+04  0.00000000000E+00 0. -1.
         21   -1    0    0  502  503 -0.00000000000E+00 -0.00000000000E+00 -0.84771315762E+02  0.84771315762E+02  0.00000000000E+00 0. -1.
         -6    2    1    2    0  503 -0.19205799032E+03 -0.21945481997E+02  0.15429105556E+03  0.30180877902E+03  0.17295934044E+03 0.  0.
        -24    2    3    3    0    0 -0.17202580893E+03 -0.40043071698E+02  0.58352612292E+02  0.20203360205E+03  0.78843024212E+02 0.  0.
          6    2    1    2  501    0  0.19205799032E+03  0.21945481997E+02  0.15138544173E+04  0.15358793253E+04  0.17263322235E+03 0.  0.
         24    2    5    5    0    0  0.10630326216E+03 -0.48901322494E+01  0.12465020960E+04  0.12537917906E+04  0.83078768365E+02 0.  0.
          5    1    5    5  501    0  0.85754728165E+02  0.26835614247E+02  0.26735232124E+03  0.28208753476E+03  0.47000000000E+01 0. -1.
        -13    1    6    6    0    0  0.78071448771E+01 -0.23387637677E+02  0.10315003749E+03  0.10605594439E+03  0.00000000000E+00 0.  1.
         14    1    6    6    0    0  0.98496117279E+02  0.18497505428E+02  0.11433520585E+04  0.11477358462E+04  0.00000000000E+00 0. -1.
         -5    1    3    3    0  503 -0.20032181394E+02  0.18097589701E+02  0.95938443263E+02  0.99775176974E+02  0.47000000000E+01 0.  1.
         13    1    4    4    0    0 -0.98302924178E+02 -0.55274614965E+02  0.57856180001E+02  0.12675206320E+03  0.00000000000E+00 0. -1.
        -14    1    4    4    0    0 -0.73722884749E+02  0.15231543267E+02  0.49643229081E+00  0.75281538846E+02  0.00000000000E+00 0.  1.
</event>
<event>
12    1  0.8691829E-002  0.2622310E+03  0.7818608E-02  0.1105873E+00
         21   -1    0    0  501  502  0.00000000000E+00  0.00000000000E+00  0.36514709085E+02  0.36514709085E+02  0.00000000000E+00 0. -1.
         21   -1    0    0  502  503 -0.00000000000E+00 -0.00000000000E+00 -0.19938537724E+04  0.19938537724E+04  0.00000000000E+00 0. -1.
         -6    2    1    2    0  503 -0.45042851220E+02 -0.19224884429E+03 -0.12218187433E+04  0.12496424024E+04  0.17255902146E+03 0.  0.
        -24    2    3    3    0    0 -0.55465124536E+02 -0.33919980051E+02 -0.49230785724E+03  0.50306027304E+03  0.80471528692E+02 0.  0.
          6    2    1    2  501    0  0.45042851220E+02  0.19224884429E+03 -0.73552032007E+03  0.78072607911E+03  0.17191449267E+03 0.  0.
         24    2    5    5    0    0 -0.13703533645E+02  0.76607182004E+02 -0.20053270486E+03  0.23021906715E+03  0.82042708340E+02 0.  0.
          5    1    5    5  501    0  0.58746384865E+02  0.11564166229E+03 -0.53498761520E+03  0.55050701196E+03  0.47000000000E+01 0. -1.
        -11    1    6    6    0    0 -0.21450122724E+02  0.22567607347E+02 -0.15793354499E+03  0.16097331860E+03  0.00000000000E+00 0.  1.
         12    1    6    6    0    0  0.77465890786E+01  0.54039574657E+02 -0.42599159873E+02  0.69245748558E+02  0.00000000000E+00 0. -1.
         -5    1    3    3    0  503  0.10422273316E+02 -0.15832886424E+03 -0.72951088604E+03  0.74658212936E+03  0.47000000000E+01 0.  1.
         11    1    4    4    0    0 -0.18462581569E+02  0.25950853426E+02 -0.11976935222E+03  0.12393147882E+03  0.00000000000E+00 0. -1.
        -12    1    4    4    0    0 -0.37002542967E+02 -0.59870833477E+02 -0.37253850501E+03  0.37912879422E+03  0.00000000000E+00 0.  1.
</event>
<event>
12    1  0.8691829E-002  0.3003784E+03  0.7818608E-02  0.1085661E+00
         21   -1    0    0  503  502  0.00000000000E+00  0.00000000000E+00  0.37610476048E+03  0.37610476048E+03  0.00000000000E+00 0.  1.
         21   -1    0    0  501  503 -0.00000000000E+00 -0.00000000000E+00 -0.25036914025E+03  0.25036914025E+03  0.00000000000E+00 0.  1.
          6    2    1    2  501    0 -0.19824878273E+02 -0.24016758690E+03 -0.12529529684E+02  0.29580115890E+03  0.17107846416E+03 0.  0.
         24    2    3    3    0    0 -0.73795984969E+02 -0.19808635453E+03 -0.19398356814E+02  0.22685929018E+03  0.80029932204E+02 0.  0.
         -6    2    1    2    0  502  0.19824878273E+02  0.24016758690E+03  0.13826514991E+03  0.33067274183E+03  0.17931456972E+03 0.  0.
        -24    2    5    5    0    0 -0.85735382710E+01  0.28538600020E+02  0.18310630037E+02  0.85714633191E+02  0.78254469017E+02 0.  0.
          5    1    3    3  501    0  0.53971106697E+02 -0.42081232372E+02  0.68688271301E+01  0.68941868717E+02  0.47000000000E+01 0. -1.
        -13    1    4    4    0    0 -0.13291004890E+02 -0.73129820683E+02 -0.43243597023E+02  0.85992035490E+02  0.00000000000E+00 0.  1.
         14    1    4    4    0    0 -0.60504980079E+02 -0.12495653384E+03  0.23845240209E+02  0.14086725470E+03  0.00000000000E+00 0. -1.
         -5    1    5    5    0  502  0.28398416544E+02  0.21162898688E+03  0.11995451987E+03  0.24495810864E+03  0.47000000000E+01 0.  1.
         11    1    6    6    0    0 -0.12839593966E+02  0.50573267026E+02 -0.61249852079E+01  0.52535949165E+02  0.00000000000E+00 0. -1.
        -12    1    6    6    0    0  0.42660556950E+01 -0.22034667006E+02  0.24435615245E+02  0.33178684026E+02  0.00000000000E+00 0.  1.
</event>
<event>
12    1  0.8691829E-002  0.1836060E+03  0.7818608E-02  0.1164405E+00
         21   -1    0    0  503  502  0.00000000000E+00  0.00000000000E+00  0.25672677574E+03  0.25672677574E+03  0.00000000000E+00 0.  1.
         21   -1    0    0  501  503 -0.00000000000E+00 -0.00000000000E+00 -0.14250930684E+03  0.14250930684E+03  0.00000000000E+00 0.  1.
          6    2    1    2  501    0 -0.57896206970E+01 -0.63474160722E+02  0.11344579472E+03  0.21582661319E+03  0.17218794916E+03 0.  0.
         24    2    3    3    0    0 -0.39610965771E+02 -0.21437026073E+02  0.13004772488E+03  0.15918106476E+03  0.79985160724E+02 0.  0.
         -6    2    1    2    0  502  0.57896206970E+01  0.63474160722E+02  0.77167418030E+00  0.18340946939E+03  0.17197659490E+03 0.  0.
        -24    2    5    5    0    0  0.61305086824E+02  0.65549485445E+02  0.24029946240E+02  0.12299994057E+03  0.80600858262E+02 0.  0.
          5    1    3    3  501    0  0.33821345075E+02 -0.42037134649E+02 -0.16601930159E+02  0.56645548432E+02  0.47000000000E+01 0. -1.
        -11    1    4    4    0    0 -0.59020856508E+02 -0.33611491503E+02  0.86556990104E+02  0.11002411736E+03  0.00000000000E+00 0.  1.
         12    1    4    4    0    0  0.19409890737E+02  0.12174465430E+02  0.43490734778E+02  0.49156947407E+02  0.00000000000E+00 0. -1.
         -5    1    5    5    0  502 -0.55515466127E+02 -0.20753247225E+01 -0.23258272060E+02  0.60409528811E+02  0.47000000000E+01 0.  1.
         13    1    6    6    0    0  0.34512991957E+02  0.33443236124E+02  0.53444427599E+02  0.71874219979E+02  0.00000000000E+00 0. -1.
        -14    1    6    6    0    0  0.26792094867E+02  0.32106249321E+02 -0.29414481359E+02  0.51125720596E+02  0.00000000000E+00 0.  1.
</event>
<event>
12    1  0.8691829E-002  0.2557469E+03  0.7818608E-02  0.1109831E+00
         21   -1    0    0  501  502  0.00000000000E+00  0.00000000000E+00  0.10760202270E+04  0.10760202270E+04  0.00000000000E+00 0.  1.
         21   -1    0    0  502  503 -0.00000000000E+00 -0.00000000000E+00 -0.60724303782E+02  0.60724303782E+02  0.00000000000E+00 0.  1.
         -6    2    1    2    0  503 -0.10622656591E+03  0.15671372853E+03  0.48370275245E+03  0.54683115830E+03  0.17091719325E+03 0.  0.
        -24    2    3    3    0    0 -0.62613607204E+02  0.30769769057E+02  0.12222453053E+03  0.16153573137E+03  0.79295107984E+02 0.  0.
          6    2    1    2  501    0  0.10622656591E+03 -0.15671372853E+03  0.53159317078E+03  0.58991337250E+03  0.17193955860E+03 0.  0.
         24    2    5    5    0    0  0.12974816723E+03 -0.16798770638E+03  0.49312566655E+03  0.54319927198E+03  0.82692621628E+02 0.  0.
          5    1    5    5  501    0 -0.23521601321E+02  0.11273977851E+02  0.38467504232E+02  0.46714100518E+02  0.47000000000E+01 0. -1.
        -11    1    6    6    0    0 -0.88434997056E+01 -0.23562063292E+00  0.33807266956E+02  0.34945590611E+02  0.00000000000E+00 0.  1.
         12    1    6    6    0    0  0.13859166693E+03 -0.16775208575E+03  0.45931839960E+03  0.50825368137E+03  0.00000000000E+00 0. -1.
         -5    1    3    3    0  503 -0.43612958704E+02  0.12594395947E+03  0.36147822192E+03  0.38529542694E+03  0.47000000000E+01 0.  1.
         13    1    4    4    0    0  0.14300144904E+01 -0.20868683068E+02  0.40454301113E+02  0.45542258980E+02  0.00000000000E+00 0. -1.
        -14    1    4    4    0    0 -0.64043621694E+02  0.51638452125E+02  0.81770229414E+02  0.11599347239E+03  0.00000000000E+00 0.  1.
</event>
<event>
12    1  0.8691829E-002  0.2221944E+03  0.7818608E-02  0.1132586E+00
         21   -1    0    0  503  502  0.00000000000E+00  0.00000000000E+00  0.71753210142E+03  0.71753210142E+03  0.00000000000E+00 0.  1.
         21   -1    0    0  501  503 -0.00000000000E+00 -0.00000000000E+00 -0.72244915039E+02  0.72244915039E+02  0.00000000000E+00 0.  1.
          6    2    1    2  501    0  0.14028771296E+03 -0.21087198967E+02  0.41420440377E+03  0.46920000091E+03  0.16869511074E+03 0.  0.
         24    2    3    3    0    0  0.11092850041E+02 -0.10298051638E+01  0.22907258792E+03  0.24250749797E+03  0.78813223608E+02 0.  0.
         -6    2    1    2    0  502 -0.14028771296E+03  0.21087198967E+02  0.23108278261E+03  0.32057701555E+03  0.17101186541E+03 0.  0.
        -24    2    5    5    0    0 -0.10253746246E+03 -0.17454242762E+02  0.66011927831E+02  0.14685021496E+03  0.79930152140E+02 0.  0.
          5    1    3    3  501    0  0.12919486291E+03 -0.20057393803E+02  0.18513181585E+03  0.22669250294E+03  0.47000000000E+01 0. -1.
        -11    1    4    4    0    0  0.29316272294E+02 -0.22156648179E+02  0.54575468506E+02  0.65793940772E+02  0.00000000000E+00 0.  1.
         12    1    4    4    0    0 -0.18223422253E+02  0.21126843015E+02  0.17449711941E+03  0.17671355720E+03  0.00000000000E+00 0. -1.
         -5    1    5    5    0  502 -0.37750250498E+02  0.38541441729E+02  0.16507085478E+03  0.17372680058E+03  0.47000000000E+01 0.  1.
         13    1    6    6    0    0 -0.72851346502E+02 -0.42051659960E+02  0.19334657910E+02  0.86310426885E+02  0.00000000000E+00 0. -1.
        -14    1    6    6    0    0 -0.29686115955E+02  0.24597417198E+02  0.46677269920E+02  0.60539788078E+02  0.00000000000E+00 0.  1.
</event>
<event>
12    1  0.8691829E-002  0.2266897E+03  0.7818608E-02  0.1129177E+00
         21   -1    0    0  501  502  0.00000000000E+00  0.00000000000E+00  0.10295611541E+03  0.10295611541E+03  0.00000000000E+00 0. -1.
         21   -1    0    0  502  503 -0.00000000000E+00 -0.00000000000E+00 -0.69094840612E+03  0.69094840612E+03  0.00000000000E+00 0.  1.
         -6    2    1    2    0  503  0.61999226810E+02  0.13416723920E+03 -0.50486028046E+03  0.55341858645E+03  0.17188215978E+03 0.  0.
        -24    2    3    3    0    0  0.50942328411E+02  0.85722074905E+02 -0.15570563336E+03  0.20071439519E+03  0.78093720787E+02 0.  0.
          6    2    1    2  501    0 -0.61999226810E+02 -0.13416723920E+03 -0.83132010251E+02  0.24048593508E+03  0.17052214415E+03 0.  0.
         24    2    5    5    0    0  0.16998399780E+02 -0.30034175796E+02 -0.29194331789E+01  0.87056904515E+02  0.79871047463E+02 0.  0.
          5    1    5    5  501    0 -0.78997626589E+02 -0.10413306340E+03 -0.80212577072E+02  0.15342903057E+03  0.47000000000E+01 0. -1.
        -11    1    6    6    0    0  0.26724187188E+01 -0.56573562659E+02 -0.47967293638E+01  0.56839409096E+02  0.00000000000E+00 0.  1.
         12    1    6    6    0    0  0.14325981061E+02  0.26539386863E+02  0.18772961849E+01  0.30217495419E+02  0.00000000000E+00 0. -1.
         -5    1    3    3    0  503  0.11056898399E+02  0.48445164292E+02 -0.34915464709E+03  0.35270419126E+03  0.47000000000E+01 0.  1.
         11    1    4    4    0    0  0.38278089239E+02  0.54732932567E+01 -0.22638575077E+02  0.44807076856E+02  0.00000000000E+00 0. -1.
        -12    1    4    4    0    0  0.12664239172E+02  0.80248781648E+02 -0.13306705829E+03  0.15590731833E+03  0.00000000000E+00 0.  1.
</event>
<event>
12    1  0.8691829E-002  0.1872466E+03  0.7818608E-02  0.1161004E+00
         21   -1    0    0  503  502  0.00000000000E+00  0.00000000000E+00  0.20022573280E+03  0.20022573280E+03  0.00000000000E+00 0.  1.
         21   -1    0    0  501  503 -0.00000000000E+00 -0.00000000000E+00 -0.18545140877E+03  0.18545140877E+03  0.00000000000E+00 0.  1.
          6    2    1    2  501    0 -0.21637169547E+02 -0.70649101591E+02 -0.38473345683E+02  0.19100665489E+03  0.17188333608E+03 0.  0.
         24    2    3    3    0    0 -0.34853884181E+02  0.23952227693E+02 -0.41994849622E+02  0.95306163575E+02  0.74372003917E+02 0.  0.
         -6    2    1    2    0  502  0.21637169547E+02  0.70649101591E+02  0.53247669709E+02  0.19467048667E+03  0.17205179857E+03 0.  0.
        -24    2    5    5    0    0  0.71173422758E+01 -0.19603368553E+02 -0.87525140368E+01  0.84115312505E+02  0.81017471426E+02 0.  0.
          5    1    3    3  501    0  0.13216714634E+02 -0.94601329284E+02  0.35215039395E+01  0.95700491315E+02  0.47000000000E+01 0. -1.
        -13    1    4    4    0    0 -0.37211422871E+02 -0.14772340658E+02 -0.27638038832E+01  0.40131666455E+02  0.00000000000E+00 0.  1.
         14    1    4    4    0    0  0.23575386896E+01  0.38724568350E+02 -0.39231045739E+02  0.55174497119E+02  0.00000000000E+00 0. -1.
         -5    1    5    5    0  502  0.14519827271E+02  0.90252470145E+02  0.62000183746E+02  0.11055517417E+03  0.47000000000E+01 0.  1.
         13    1    6    6    0    0 -0.85211594378E+01 -0.67160888707E+01  0.34599601595E+02  0.36260838909E+02  0.00000000000E+00 0. -1.
        -14    1    6    6    0    0  0.15638501714E+02 -0.12887279683E+02 -0.43352115631E+02  0.47854473596E+02  0.00000000000E+00 0.  1.
</event>
<event>
12    1  0.8691829E-002  0.4804553E+03  0.7818608E-02  0.1019041E+00
         21   -1    0    0  503  502  0.00000000000E+00  0.00000000000E+00  0.44898996358E+03  0.44898996358E+03  0.00000000000E+00 0. -1.
         21   -1    0    0  501  503 -0.00000000000E+00 -0.00000000000E+00 -0.51704288454E+03  0.51704288454E+03  0.00000000000E+00 0.  1.
          6    2    1    2  501    0 -0.44769335295E+03 -0.21943889940E+02  0.51244052588E+01  0.48048261476E+03  0.17299251712E+03 0.  0.
         24    2    3    3    0    0 -0.38103522581E+03 -0.57199208023E+02 -0.35263053190E+02  0.39481184865E+03  0.78570479219E+02 0.  0.
         -6    2    1    2    0  502  0.44769335295E+03  0.21943889940E+02 -0.73177326215E+02  0.48555023336E+03  0.17173594693E+03 0.  0.
        -24    2    5    5    0    0  0.39700833690E+03  0.67805855829E+02 -0.71741865498E+02  0.41701964666E+03  0.80902637652E+02 0.  0.
          5    1    3    3  501    0 -0.66658127139E+02  0.35255318083E+02  0.40387458448E+02  0.85670766115E+02  0.47000000000E+01 0. -1.
        -11    1    4    4    0    0 -0.96502873010E+02 -0.21944326275E+02 -0.43222451754E+02  0.10799323261E+03  0.00000000000E+00 0.  1.
         12    1    4    4    0    0 -0.28453235280E+03 -0.35254881748E+02  0.79593985646E+01  0.28681861603E+03  0.00000000000E+00 0. -1.
         -5    1    5    5    0  502  0.50685016048E+02 -0.45861965889E+02 -0.14354607176E+01  0.68530586708E+02  0.47000000000E+01 0.  1.
         13    1    6    6    0    0  0.77101935732E+02 -0.18786936021E+02 -0.15703361554E+02  0.80896557546E+02  0.00000000000E+00 0. -1.
        -14    1    6    6    0    0  0.31990640117E+03  0.86592791850E+02 -0.56038503944E+02  0.33612308911E+03  0.00000000000E+00 0.  1.
</event>
<event>
12    1  0.8691829E-002  0.2125650E+03  0.7818608E-02  0.1139596E+00
         21   -1    0    0  503  502  0.00000000000E+00  0.00000000000E+00  0.15202285146E+03  0.15202285146E+03  0.00000000000E+00 0.  1.
         21   -1    0    0  501  503 -0.00000000000E+00 -0.00000000000E+00 -0.33162837728E+03  0.33162837728E+03  0.00000000000E+00 0. -1.
          6    2    1    2  501    0  0.12416144142E+03 -0.53052439602E+00 -0.16802005750E+03  0.27077076660E+03  0.17224901548E+03 0.  0.
         24    2    3    3    0    0  0.47215323635E+02 -0.61643057835E+02 -0.60370735630E+02  0.12494239733E+03  0.77050785622E+02 0.  0.
         -6    2    1    2    0  502 -0.12416144142E+03  0.53052439602E+00 -0.11585468322E+02  0.21288046214E+03  0.17253267255E+03 0.  0.
        -24    2    5    5    0    0 -0.15050786888E+03  0.16890038680E+02  0.14993766889E+02  0.17176703743E+03  0.79631715417E+02 0.  0.
          5    1    3    3  501    0  0.76946117781E+02  0.61112533439E+02 -0.10764932187E+03  0.14582836927E+03  0.47000000000E+01 0. -1.
        -13    1    4    4    0    0 -0.11297614636E+02 -0.22670535751E+02  0.83108612251E+01  0.26658201403E+02  0.00000000000E+00 0.  1.
         14    1    4    4    0    0  0.58512938271E+02 -0.38972522083E+02 -0.68681596855E+02  0.98284195928E+02  0.00000000000E+00 0. -1.
         -5    1    5    5    0  502  0.26346427461E+02 -0.16359514284E+02 -0.26579235211E+02  0.41113424717E+02  0.47000000000E+01 0.  1.
         11    1    6    6    0    0 -0.90571426183E+02 -0.23827736504E+02 -0.12050770307E+02  0.94425448544E+02  0.00000000000E+00 0. -1.
        -12    1    6    6    0    0 -0.59936442694E+02  0.40717775184E+02  0.27044537196E+02  0.77341588883E+02  0.00000000000E+00 0.  1.
</event>
<event>
12    1  0.8691829E-002  0.1774011E+03  0.7818608E-02  0.1170825E+00
         21   -1    0    0  503  502  0.00000000000E+00  0.00000000000E+00  0.16824972101E+03  0.16824972101E+03  0.00000000000E+00 0. -1.
         21   -1    0    0  501  503 -0.00000000000E+00 -0.00000000000E+00 -0.55163185292E+03  0.55163185292E+03  0.00000000000E+00 0. -1.
          6    2    1    2  501    0 -0.11539092649E+01 -0.35066173768E+02 -0.48477476831E+03  0.51554942703E+03  0.17191180201E+03 0.  0.
         24    2    3    3    0    0  0.59697722989E+01  0.40598821793E+02 -0.16759058591E+03  0.18935342160E+03  0.78001354311E+02 0.  0.
         -6    2    1    2    0  502  0.11539092649E+01  0.35066173768E+02  0.10139263641E+03  0.20433214690E+03  0.17389707154E+03 0.  0.
        -24    2    5    5    0    0 -0.29071133047E+02  0.78075426091E+02  0.39436326602E+02  0.12294404401E+03  0.81357920111E+02 0.  0.
          5    1    3    3  501    0 -0.71236815637E+01 -0.75664995561E+02 -0.31718418240E+03  0.32619600543E+03  0.47000000000E+01 0. -1.
        -11    1    4    4    0    0 -0.17502974507E+02  0.92960922111E+01 -0.28403146764E+01  0.20020959878E+02  0.00000000000E+00 0.  1.
         12    1    4    4    0    0  0.23472746806E+02  0.31302729582E+02 -0.16475027123E+03  0.16933246172E+03  0.00000000000E+00 0. -1.
         -5    1    5    5    0  502  0.30225042311E+02 -0.43009252323E+02  0.61956309803E+02  0.81388102893E+02  0.47000000000E+01 0.  1.
         11    1    6    6    0    0 -0.35549734347E+01  0.55152145500E+02  0.61090463448E+02  0.82379862307E+02  0.00000000000E+00 0. -1.
        -12    1    6    6    0    0 -0.25516159612E+02  0.22923280591E+02 -0.21654136846E+02  0.40564181699E+02  0.00000000000E+00 0.  1.
</event>
<event>
12    1  0.8691829E-002  0.5155190E+03  0.7818608E-02  0.1009919E+00
         21   -1    0    0  501  502  0.00000000000E+00  0.00000000000E+00  0.44576959421E+03  0.44576959421E+03  0.00000000000E+00 0. -1.
         21   -1    0    0  502  503 -0.00000000000E+00 -0.00000000000E+00 -0.64829561856E+03  0.64829561856E+03  0.00000000000E+00 0.  1.
         -6    2    1    2    0  503  0.48190151782E+03 -0.61349016378E+02 -0.25927165936E+03  0.57543245108E+03  0.16705669015E+03 0.  0.
        -24    2    3    3    0    0  0.28145951712E+03 -0.54894547845E+02 -0.22220014089E+03  0.37143479597E+03  0.79737280400E+02 0.  0.
          6    2    1    2  501    0 -0.48190151782E+03  0.61349016378E+02  0.56745635013E+02  0.51863276169E+03  0.17253144560E+03 0.  0.
         24    2    5    5    0    0 -0.30518313066E+03  0.85015481004E+01 -0.25707931217E+02  0.31653643850E+03  0.79532380899E+02 0.  0.
          5    1    5    5  501    0 -0.17671838715E+03  0.52847468277E+02  0.82453566229E+02  0.20209632319E+03  0.47000000000E+01 0. -1.
        -11    1    6    6    0    0 -0.17927756944E+03  0.28837122901E+02  0.16167797237E+02  0.18230036816E+03  0.00000000000E+00 0.  1.
         12    1    6    6    0    0 -0.12590556122E+03 -0.20335574800E+02 -0.41875728453E+02  0.13423607035E+03  0.00000000000E+00 0. -1.
         -5    1    3    3    0  503  0.20044200070E+03 -0.64544685321E+01 -0.37071518460E+02  0.20399765511E+03  0.47000000000E+01 0.  1.
         13    1    4    4    0    0  0.50640369299E+02 -0.38054743970E+02 -0.70174908779E+02  0.94536386452E+02  0.00000000000E+00 0. -1.
        -14    1    4    4    0    0  0.23081914782E+03 -0.16839803875E+02 -0.15202523212E+03  0.27689840952E+03  0.00000000000E+00 0.  1.
</event>
<event>
12    1  0.8691829E-002  0.2986788E+03  0.7818608E-02  0.1086599E+00
         21   -1    0    0  501  502  0.00000000000E+00  0.00000000000E+00  0.52259682122E+02  0.52259682122E+02  0.00000000000E+00 0. -1.
         21   -1    0    0  502  503 -0.00000000000E+00 -0.00000000000E+00 -0.19415466421E+04  0.19415466421E+04  0.00000000000E+00 0.  1.
         -6    2    1    2    0  503  0.86057187027E+02  0.22047590898E+03 -0.13209605520E+04  0.13543063853E+04  0.18219094241E+03 0.  0.
        -24    2    3    3    0    0 -0.21980292079E+02  0.82604564678E+02 -0.38217981477E+03  0.39931320887E+03  0.77993465202E+02 0.  0.
          6    2    1    2  501    0 -0.86057187027E+02 -0.22047590898E+03 -0.56832640798E+03  0.63949993891E+03  0.17306010509E+03 0.  0.
         24    2    5    5    0    0  0.22414117552E+02 -0.88332947345E+02 -0.26608825480E+03  0.29222803180E+03  0.79304230506E+02 0.  0.
          5    1    5    5  501    0 -0.10847130458E+03 -0.13214296163E+03 -0.30223815318E+03  0.34727190711E+03  0.47000000000E+01 0. -1.
        -13    1    6    6    0    0  0.15423286706E+02  0.11588699812E+02 -0.28797047049E+02  0.34661876101E+02  0.00000000000E+00 0.  1.
         14    1    6    6    0    0  0.69908308454E+01 -0.99921647157E+02 -0.23729120775E+03  0.25756615570E+03  0.00000000000E+00 0. -1.
         -5    1    3    3    0  503  0.10803747911E+03  0.13787134430E+03 -0.93878073719E+03  0.95499317641E+03  0.47000000000E+01 0.  1.
         13    1    4    4    0    0  0.15953033522E+02  0.42692469801E+02 -0.79256498236E+02  0.91426138325E+02  0.00000000000E+00 0. -1.
        -14    1    4    4    0    0 -0.37933325602E+02  0.39912094877E+02 -0.30292331654E+03  0.30788707055E+03  0.00000000000E+00 0.  1.
</event>
<event>
12    1  0.8691829E-002  0.1862833E+03  0.7818608E-02  0.1162609E+00
         21   -1    0    0  501  502  0.00000000000E+00  0.00000000000E+00  0.32472449033E+03  0.32472449033E+03  0.00000000000E+00 0.  1.
         21   -1    0    0  502  503 -0.00000000000E+00 -0.00000000000E+00 -0.11119070380E+03  0.11119070380E+03  0.00000000000E+00 0. -1.
         -6    2    1    2    0  503 -0.53677434544E+02 -0.31743537066E+02  0.15720979389E+03  0.24130312063E+03  0.17211437362E+03 0.  0.
        -24    2    3    3    0    0 -0.51280226708E+02 -0.12422786650E+02  0.14527108841E+02  0.97221627671E+02  0.80355589204E+02 0.  0.
          6    2    1    2  501    0  0.53677434544E+02  0.31743537066E+02  0.56323992650E+02  0.19461207350E+03  0.17553503320E+03 0.  0.
         24    2    5    5    0    0 -0.38217849039E+02  0.22598651035E+02  0.31390115665E+02  0.98840677425E+02  0.82539912398E+02 0.  0.
          5    1    5    5  501    0  0.91895283583E+02  0.91448860307E+01  0.24933876985E+02  0.95771396078E+02  0.47000000000E+01 0. -1.
        -13    1    6    6    0    0  0.40368720601E+01  0.37639060839E+02 -0.85215526431E+01  0.38802217673E+02  0.00000000000E+00 0.  1.
         14    1    6    6    0    0 -0.42254721099E+02 -0.15040409805E+02  0.39911668308E+02  0.60038459752E+02  0.00000000000E+00 0. -1.
         -5    1    3    3    0  503 -0.23972078356E+01 -0.19320750416E+02  0.14268268504E+03  0.14408149296E+03  0.47000000000E+01 0.  1.
         11    1    4    4    0    0 -0.24551678946E+01  0.81455926195E+01 -0.28012770331E+02  0.29276164880E+02  0.00000000000E+00 0. -1.
        -12    1    4    4    0    0 -0.48825058814E+02 -0.20568379269E+02  0.42539879171E+02  0.67945462790E+02  0.00000000000E+00 0.  1.
</event>
<event>
12    1  0.8691829E-002  0.1927164E+03  0.7818608E-02  0.1156058E+00
         21   -1    0    0  501  502  0.00000000000E+00  0.00000000000E+00  0.10535405651E+03  0.10535405651E+03  0.00000000000E+00 0.  1.
         21   -1    0    0  502  503 -0.00000000000E+00 -0.00000000000E+00 -0.51307599315E+03  0.51307599315E+03  0.00000000000E+00 0.  1.
         -6    2    1    2    0  503  0.68543096922E+02  0.54180176723E+02 -0.37690239378E+03  0.42326483225E+03  0.17165097173E+03 0.  0.
        -24    2    3    3    0    0 -0.20380223522E+02  0.58302072435E+02 -0.24005905966E+03  0.25994754891E+03  0.78293619787E+02 0.  0.
          6    2    1    2  501    0 -0.68543096922E+02 -0.54180176723E+02 -0.30819542856E+02  0.19516521742E+03  0.17177301936E+03 0.  0.
         24    2    5    5    0    0 -0.77458673520E+02 -0.72175340400E+02  0.25861076707E+02  0.13484858575E+03  0.79411711505E+02 0.  0.
          5    1    5    5  501    0  0.89155765977E+01  0.17995163677E+02 -0.56680619562E+02  0.60316631668E+02  0.47000000000E+01 0. -1.
        -13    1    6    6    0    0 -0.35786307124E+01 -0.18404838118E+02 -0.24235172619E+02  0.30641283520E+02  0.00000000000E+00 0.  1.
         14    1    6    6    0    0 -0.73880042807E+02 -0.53770502282E+02  0.50096249325E+02  0.10420730223E+03  0.00000000000E+00 0. -1.
         -5    1    3    3    0  503  0.88923320444E+02 -0.41218957118E+01 -0.13684333412E+03  0.16331728334E+03  0.47000000000E+01 0.  1.
         13    1    4    4    0    0  0.24120521875E+02  0.16417364088E+02 -0.32955805578E+02  0.44016071388E+02  0.00000000000E+00 0. -1.
        -14    1    4    4    0    0 -0.44500745397E+02  0.41884708346E+02 -0.20710325408E+03  0.21593147753E+03  0.00000000000E+00 0.  1.
</event>
<event>
12    1  0.8691829E-002  0.2059524E+03  0.7818608E-02  0.1144851E+00
         21   -1    0    0  501  502  0.00000000000E+00  0.00000000000E+00  0.63043451805E+02  0.63043451805E+02  0.00000000000E+00 0. -1.
         21   -1    0    0  502  503 -0.00000000000E+00 -0.00000000000E+00 -0.78812748411E+03  0.78812748411E+03  0.00000000000E+00 0.  1.
         -6    2    1    2    0  503  0.11171495608E+03  0.60939822782E+01 -0.52563424786E+03  0.56447145347E+03  0.17268263153E+03 0.  0.
        -24    2    3    3    0    0  0.30222202698E+02  0.63746861788E+02 -0.22755678628E+03  0.25008763317E+03  0.76057145337E+02 0.  0.
          6    2    1    2  501    0 -0.11171495608E+03 -0.60939822782E+01 -0.19944978445E+03  0.28669948245E+03  0.17291329817E+03 0.  0.
         24    2    5    5    0    0 -0.14764228492E+03 -0.81413544299E+01 -0.14791605725E+03  0.22366949173E+03  0.79273927547E+02 0.  0.
          5    1    5    5  501    0  0.35927328843E+02  0.20473721518E+01 -0.51533727200E+02  0.63029990716E+02  0.47000000000E+01 0. -1.
        -13    1    6    6    0    0 -0.41342528200E+02 -0.90843714255E+01 -0.96932960749E+02  0.10577206305E+03  0.00000000000E+00 0.  1.
         14    1    6    6    0    0 -0.10629975672E+03  0.94301699559E+00 -0.50983096501E+02  0.11789742868E+03  0.00000000000E+00 0. -1.
         -5    1    3    3    0  503  0.81492753383E+02 -0.57652879510E+02 -0.29807746158E+03  0.31438382030E+03  0.47000000000E+01 0.  1.
         11    1    4    4    0    0 -0.69834472891E+01  0.15034294574E+01  0.34741528091E+01  0.79434610790E+01  0.00000000000E+00 0. -1.
        -12    1    4    4    0    0  0.37205649987E+02  0.62243432330E+02 -0.23103093909E+03  0.24214417209E+03  0.00000000000E+00 0.  1.
</event>
<event>
12    1  0.8691829E-002  0.2088382E+03  0.7818608E-02  0.1142490E+00
         21   -1    0    0  503  502  0.00000000000E+00  0.00000000000E+00  0.16581736072E+03  0.16581736072E+03  0.00000000000E+00 0. -1.
         21   -1    0    0  501  503 -0.00000000000E+00 -0.00000000000E+00 -0.26423190909E+03  0.26423190909E+03  0.00000000000E+00 0. -1.
          6    2    1    2  501    0 -0.96581438426E+02 -0.67673730146E+02 -0.63793459754E+02  0.21836074593E+03  0.17234877968E+03 0.  0.
         24    2    3    3    0    0 -0.27826040404E+02 -0.84667806335E+02  0.49321791199E+01  0.11956091384E+03  0.79545960129E+02 0.  0.
         -6    2    1    2    0  502  0.96581438426E+02  0.67673730146E+02 -0.34621088616E+02  0.21168852387E+03  0.17235342573E+03 0.  0.
        -24    2    5    5    0    0 -0.97444625873E+01  0.38845982582E+02 -0.47004932002E+02  0.10073048751E+03  0.79581420998E+02 0.  0.
          5    1    3    3  501    0 -0.68755398022E+02  0.16994076190E+02 -0.68725638874E+02  0.98799832092E+02  0.47000000000E+01 0. -1.
        -13    1    4    4    0    0 -0.14574809061E+02 -0.55361954825E+01  0.31413995084E+02  0.35070124133E+02  0.00000000000E+00 0.  1.
         14    1    4    4    0    0 -0.13251231343E+02 -0.79131610853E+02 -0.26481815964E+02  0.84490789705E+02  0.00000000000E+00 0. -1.
         -5    1    5    5    0  502  0.10632590101E+03  0.28827747564E+02  0.12383843386E+02  0.11095803636E+03  0.47000000000E+01 0.  1.
         13    1    6    6    0    0  0.90085133506E+01  0.36321284023E+02  0.11574414717E+02  0.39170857304E+02  0.00000000000E+00 0. -1.
        -14    1    6    6    0    0 -0.18752975938E+02  0.25246985585E+01 -0.58579346719E+02  0.61559630208E+02  0.00000000000E+00 0.  1.
</event>
<event>
12    1  0.8691829E-002  0.2064946E+03  0.7818608E-02  0.1146052E+00
         21   -1    0    0  503  502  0.00000000000E+00  0.00000000000E+00  0.97890495498E+02  0.97890495498E+02  0.00000000000E+00 0.  1.
         21   -1    0    0  501  503 -0.00000000000E+00 -0.00000000000E+00 -0.43093924480E+03  0.43093924480E+03  0.00000000000E+00 0.  1.
          6    2    1    2  501    0  0.96668151736E+02 -0.14075541534E+02 -0.20797641162E+03  0.28741078503E+03  0.17264970065E+03 0.  0.
         24    2    3    3    0    0  0.51423839145E+02 -0.43946244118E+02 -0.20689369048E+03  0.23298129872E+03  0.83063847657E+02 0.  0.
         -6    2    1    2    0  502 -0.96668151736E+02  0.14075541534E+02 -0.12507233769E+03  0.24141895527E+03  0.18192627594E+03 0.  0.
        -24    2    5    5    0    0 -0.32711191981E+02 -0.31046229929E+02 -0.13380678150E+03  0.16252125271E+03  0.80467461327E+02 0.  0.
          5    1    3    3  501    0  0.45244312591E+02  0.29870702584E+02 -0.10827211322E+01  0.54429486308E+02  0.47000000000E+01 0. -1.
        -11    1    4    4    0    0  0.72574640099E+02 -0.33471754421E+02 -0.13053650262E+03  0.15305951537E+03  0.00000000000E+00 0.  1.
         12    1    4    4    0    0 -0.21150800954E+02 -0.10474489697E+02 -0.76357187861E+02  0.79921783348E+02  0.00000000000E+00 0. -1.
         -5    1    5    5    0  502 -0.63956959754E+02  0.45121771463E+02  0.87344438122E+01  0.78897702563E+02  0.47000000000E+01 0.  1.
         11    1    6    6    0    0 -0.48530713428E+02 -0.61133572427E+01 -0.37058458824E+02  0.61367195251E+02  0.00000000000E+00 0. -1.
        -12    1    6    6    0    0  0.15819521447E+02 -0.24932872686E+02 -0.96748322674E+02  0.10115405745E+03  0.00000000000E+00 0.  1.
</event>
<event>
12    1  0.8691829E-002  0.2856370E+03  0.7818608E-02  0.1094329E+00
         21   -1    0    0  501  502  0.00000000000E+00  0.00000000000E+00  0.11906413806E+03  0.11906413806E+03  0.00000000000E+00 0. -1.
         21   -1    0    0  502  503 -0.00000000000E+00 -0.00000000000E+00 -0.67850633425E+03  0.67850633425E+03  0.00000000000E+00 0.  1.
         -6    2    1    2    0  503  0.25865965598E+02 -0.21079518511E+03 -0.20112419588E+03  0.33933443365E+03  0.17202690908E+03 0.  0.
        -24    2    3    3    0    0  0.17904946242E+02 -0.28723190977E+02 -0.47344236323E+02  0.10083085959E+03  0.82339399636E+02 0.  0.
          6    2    1    2  501    0 -0.25865965598E+02  0.21079518511E+03 -0.35831800031E+03  0.45823603866E+03  0.19100999854E+03 0.  0.
         24    2    5    5    0    0 -0.54672162087E+02  0.19722952417E+03 -0.20163514324E+03  0.29828157073E+03  0.80166289276E+02 0.  0.
          5    1    5    5  501    0  0.28806196489E+02  0.13565660943E+02 -0.15668285707E+03  0.15995446793E+03  0.47000000000E+01 0. -1.
        -11    1    6    6    0    0 -0.33143907450E+02  0.17138023672E+03 -0.19874583011E+03  0.26451769152E+03  0.00000000000E+00 0.  1.
         12    1    6    6    0    0 -0.21528254638E+02  0.25849287444E+02 -0.28893131345E+01  0.33763879213E+02  0.00000000000E+00 0. -1.
         -5    1    3    3    0  503  0.79610193561E+01 -0.18207199413E+03 -0.15377995956E+03  0.23850357406E+03  0.47000000000E+01 0.  1.
         11    1    4    4    0    0 -0.30533686590E+02 -0.23061629930E+02 -0.10409927634E+02  0.39654903671E+02  0.00000000000E+00 0. -1.
        -12    1    4    4    0    0  0.48438632832E+02 -0.56615610477E+01 -0.36934308688E+02  0.61175955917E+02  0.00000000000E+00 0.  1.
</event>
<event>
12    1  0.8691829E-002  0.5263901E+03  0.7818608E-02  0.1007118E+00
         21   -1    0    0  503  502  0.00000000000E+00  0.00000000000E+00  0.10909001506E+03  0.10909001506E+03  0.00000000000E+00 0. -1.
         21   -1    0    0  501  503 -0.00000000000E+00 -0.00000000000E+00 -0.29179894794E+04  0.29179894794E+04  0.00000000000E+00 0.  1.
          6    2    1    2  501    0  0.40786756734E+03 -0.28487730877E+03 -0.19494480174E+04  0.20192385520E+04  0.17165582966E+03 0.  0.
         24    2    3    3    0    0  0.22739874960E+03 -0.13334846424E+03 -0.80733347847E+03  0.85305773630E+03  0.80175755506E+02 0.  0.
         -6    2    1    2    0  502 -0.40786756734E+03  0.28487730877E+03 -0.85945144691E+03  0.10078409424E+04  0.17197541125E+03 0.  0.
        -24    2    5    5    0    0 -0.38016164789E+03  0.30280446297E+03 -0.81494466419E+03  0.95223568602E+03  0.80028586927E+02 0.  0.
          5    1    3    3  501    0  0.18046881774E+03 -0.15152884453E+03 -0.11421145390E+04  0.11661808157E+04  0.47000000000E+01 0. -1.
        -11    1    4    4    0    0  0.33168242399E+02 -0.26287014681E+02 -0.24391778400E+03  0.24756216350E+03  0.00000000000E+00 0.  1.
         12    1    4    4    0    0  0.19423050720E+03 -0.10706144956E+03 -0.56341569447E+03  0.60549557280E+03  0.00000000000E+00 0. -1.
         -5    1    5    5    0  502 -0.27705919454E+02 -0.17927154201E+02 -0.44506782724E+02  0.55605256397E+02  0.47000000000E+01 0.  1.
         13    1    6    6    0    0 -0.19474755836E+03  0.11180954707E+03 -0.33252474194E+03  0.40124891315E+03  0.00000000000E+00 0. -1.
        -14    1    6    6    0    0 -0.18541408952E+03  0.19099491590E+03 -0.48241992225E+03  0.55098677287E+03  0.00000000000E+00 0.  1.
</event>
<event>
12    1  0.8691829E-002  0.1825773E+03  0.7818608E-02  0.1166109E+00
         21   -1    0    0  501  502  0.00000000000E+00  0.00000000000E+00  0.14260761035E+03  0.14260761035E+03  0.00000000000E+00 0.  1.
         21   -1    0    0  502  503 -0.00000000000E+00 -0.00000000000E+00 -0.35273731228E+03  0.35273731228E+03  0.00000000000E+00 0.  1.
         -6    2    1    2    0  503 -0.61128631429E+02  0.13615260363E+02  0.41867461768E+02  0.18415844619E+03  0.16804572012E+03 0.  0.
        -24    2    3    3    0    0  0.13579277436E+02 -0.31997117664E+02  0.23164063033E+01  0.87991213386E+02  0.80801457786E+02 0.  0.
          6    2    1    2  501    0  0.61128631429E+02 -0.13615260363E+02 -0.25199716369E+03  0.31118647645E+03  0.17150034320E+03 0.  0.
         24    2    5    5    0    0  0.50896495726E+02 -0.46994665140E+02 -0.71821636323E+02  0.12759946185E+03  0.79525614689E+02 0.  0.
          5    1    5    5  501    0  0.10232135703E+02  0.33379404778E+02 -0.18017552737E+03  0.18358701460E+03  0.47000000000E+01 0. -1.
        -11    1    6    6    0    0  0.70556930556E+02 -0.47684425042E+02 -0.63554969473E+02  0.10626061823E+03  0.00000000000E+00 0.  1.
         12    1    6    6    0    0 -0.19660434830E+02  0.68975990150E+00 -0.82666668494E+01  0.21338843624E+02  0.00000000000E+00 0. -1.
         -5    1    3    3    0  503 -0.74707908865E+02  0.45612378027E+02  0.39551055465E+02  0.96167232801E+02  0.47000000000E+01 0.  1.
         11    1    4    4    0    0 -0.28721465596E+02 -0.26687461805E+02  0.17229831200E+02  0.42825346312E+02  0.00000000000E+00 0. -1.
        -12    1    4    4    0    0  0.42300743031E+02 -0.53096558588E+01 -0.14913424897E+02  0.45165867073E+02  0.00000000000E+00 0.  1.
</event>
<event>
12    1  0.8691829E-002  0.2816992E+03  0.7818608E-02  0.1094789E+00
         21   -1    0    0  503  502  0.00000000000E+00  0.00000000000E+00  0.80089185996E+03  0.80089185996E+03  0.00000000000E+00 0. -1.
         21   -1    0    0  501  503 -0.00000000000E+00 -0.00000000000E+00 -0.52401492086E+03  0.52401492086E+03  0.00000000000E+00 0.  1.
          6    2    1    2  501    0  0.17207449698E+03 -0.14053182787E+03 -0.45814341188E+03  0.53781949463E+03  0.17319236647E+03 0.  0.
         24    2    3    3    0    0  0.19008023873E+03 -0.10889693042E+03 -0.43732984553E+03  0.49562627223E+03  0.79993558004E+02 0.  0.
         -6    2    1    2    0  502 -0.17207449698E+03  0.14053182787E+03  0.73502035098E+03  0.78708728618E+03  0.17289491771E+03 0.  0.
        -24    2    5    5    0    0 -0.20403080648E+02  0.17915166374E+02  0.18627622906E+03  0.20469457886E+03  0.80397750067E+02 0.  0.
          5    1    3    3  501    0 -0.18005741749E+02 -0.31634897449E+02 -0.20813566346E+02  0.42193222401E+02  0.47000000000E+01 0. -1.
        -13    1    4    4    0    0  0.12697071452E+03 -0.51370282766E+02 -0.33762976299E+03  0.36435466946E+03  0.00000000000E+00 0.  1.
         14    1    4    4    0    0  0.63109524211E+02 -0.57526647653E+02 -0.99700082538E+02  0.13127160277E+03  0.00000000000E+00 0. -1.
         -5    1    5    5    0  502 -0.15167141633E+03  0.12261666149E+03  0.54874412191E+03  0.58239270732E+03  0.47000000000E+01 0.  1.
         11    1    6    6    0    0  0.90968596552E+01  0.33376687204E+02  0.15564918565E+03  0.15944724864E+03  0.00000000000E+00 0. -1.
        -12    1    6    6    0    0 -0.29499940303E+02 -0.15461520829E+02  0.30627043407E+02  0.45247330221E+02  0.00000000000E+00 0.  1.
</event>
<event>
12    1  0.8691829E-002  0.1768798E+03  0.7818608E-02  0.1171446E+00
         21   -1    0    0  501  502  0.00000000000E+00  0.00000000000E+00  0.41131890571E+03  0.41131890571E+03  0.00000000000E+00 0. -1.
         21   -1    0    0  502  503 -0.00000000000E+00 -0.00000000000E+00 -0.85094371639E+02  0.85094371639E+02  0.00000000000E+00 0. -1.
         -6    2    1    2    0  503 -0.37344558084E+02 -0.15519628778E+01  0.76882927530E+02  0.19070475035E+03  0.17047079707E+03 0.  0.
        -24    2    3    3    0    0 -0.61916704867E+02  0.52218927642E+02  0.57460525268E+02  0.12829947193E+03  0.81231445811E+02 0.  0.
          6    2    1    2  501    0  0.37344558084E+02  0.15519628778E+01  0.24934160654E+03  0.30570852700E+03  0.17288563307E+03 0.  0.
         24    2    5    5    0    0  0.55692092321E+02  0.50355189758E+02  0.10010830901E+03  0.14755969185E+03  0.78198048850E+02 0.  0.
          5    1    5    5  501    0 -0.18347534237E+02 -0.48803226881E+02  0.14923329753E+03  0.15814883515E+03  0.47000000000E+01 0. -1.
        -11    1    6    6    0    0 -0.15107730333E+02  0.20296194615E+01  0.40163021458E+02  0.42958481859E+02  0.00000000000E+00 0.  1.
         12    1    6    6    0    0  0.70799822654E+02  0.48325570297E+02  0.59945287554E+02  0.10460120999E+03  0.00000000000E+00 0. -1.
         -5    1    3    3    0  503  0.24572146783E+02 -0.53770890519E+02  0.19422402261E+02  0.62405278418E+02  0.47000000000E+01 0.  1.
         13    1    4    4    0    0 -0.35496773502E+02 -0.17439170430E+02  0.13465285385E+02  0.41778696783E+02  0.00000000000E+00 0. -1.
        -14    1    4    4    0    0 -0.26419931364E+02  0.69658098071E+02  0.43995239883E+02  0.86520775150E+02  0.00000000000E+00 0.  1.
</event>
<event>
12    1  0.8691829E-002  0.2044136E+03  0.7818608E-02  0.1146227E+00
         21   -1    0    0  501  502  0.00000000000E+00  0.00000000000E+00  0.54526303892E+02  0.54526303892E+02  0.00000000000E+00 0.  1.
         21   -1    0    0  502  503 -0.00000000000E+00 -0.00000000000E+00 -0.84879570015E+03  0.84879570015E+03  0.00000000000E+00 0.  1.
         -6    2    1    2    0  503 -0.10595490758E+03  0.28254990225E+02 -0.25321712249E+03  0.32494280898E+03  0.17159292256E+03 0.  0.
        -24    2    3    3    0    0 -0.13992181490E+03  0.21104439876E+02 -0.17524776488E+03  0.23946654391E+03  0.81295355919E+02 0.  0.
          6    2    1    2  501    0  0.10595490758E+03 -0.28254990225E+02 -0.54105227377E+03  0.57837919506E+03  0.17251128490E+03 0.  0.
         24    2    5    5    0    0  0.13536322225E+03 -0.21557132555E+02 -0.51238018630E+03  0.53649973866E+03  0.80688303726E+02 0.  0.
          5    1    5    5  501    0 -0.29408314672E+02 -0.66978576707E+01 -0.28672087461E+02  0.41879456402E+02  0.47000000000E+01 0. -1.
        -13    1    6    6    0    0  0.93070595934E+02 -0.50331235650E+02 -0.30232138677E+03  0.32030234156E+03  0.00000000000E+00 0.  1.
         14    1    6    6    0    0  0.42292626320E+02  0.28774103095E+02 -0.21005879953E+03  0.21619739709E+03  0.00000000000E+00 0. -1.
         -5    1    3    3    0  503  0.33966907314E+02  0.71505503492E+01 -0.77969357613E+02  0.85476265064E+02  0.47000000000E+01 0.  1.
         11    1    4    4    0    0 -0.14715296124E+02 -0.10553215327E+02 -0.71649621340E+02  0.73902493408E+02  0.00000000000E+00 0. -1.
        -12    1    4    4    0    0 -0.12520651877E+03  0.31657655203E+02 -0.10359814354E+03  0.16556405051E+03  0.00000000000E+00 0.  1.
</event>
<event>
12    1  0.8691829E-002  0.2075644E+03  0.7818608E-02  0.1143822E+00
         21   -1    0    0  501  502  0.00000000000E+00  0.00000000000E+00  0.18645556060E+04  0.18645556060E+04  0.00000000000E+00 0.  1.
         21   -1    0    0  502  503 -0.00000000000E+00 -0.00000000000E+00 -0.24164003232E+02  0.24164003232E+02  0.00000000000E+00 0.  1.
         -6    2    1    2    0  503 -0.45693758556E+02  0.10330703680E+03  0.71040905665E+03  0.74011079836E+03  0.17413415130E+03 0.  0.
        -24    2    3    3    0    0  0.43163301423E+02  0.57813863953E+02  0.32780242163E+03  0.34466784034E+03  0.78332490597E+02 0.  0.
          6    2    1    2  501    0  0.45693758556E+02 -0.10330703680E+03  0.11299825461E+04  0.11486088109E+04  0.17228285598E+03 0.  0.
         24    2    5    5    0    0 -0.37373552502E+02 -0.69126497036E+02  0.73366709748E+03  0.74221428299E+03  0.80245728436E+02 0.  0.
          5    1    5    5  501    0  0.83067311058E+02 -0.34180539764E+02  0.39631544862E+03  0.40639452787E+03  0.47000000000E+01 0. -1.
        -13    1    6    6    0    0 -0.10104110715E+02 -0.77020713648E+02  0.62851814329E+03  0.63330035514E+03  0.00000000000E+00 0.  1.
         14    1    6    6    0    0 -0.27269441788E+02  0.78942166111E+01  0.10514895420E+03  0.10891392785E+03  0.00000000000E+00 0. -1.
         -5    1    3    3    0  503 -0.88857059979E+02  0.45493172847E+02  0.38260663502E+03  0.39544295802E+03  0.47000000000E+01 0.  1.
         11    1    4    4    0    0  0.20683171052E+01  0.30916952669E+02  0.25482651697E+03  0.25670350533E+03  0.00000000000E+00 0. -1.
        -12    1    4    4    0    0  0.41094984318E+02  0.26896911284E+02  0.72975904660E+02  0.87964335010E+02  0.00000000000E+00 0.  1.
</event>
<event>
12    1  0.8691829E-002  0.1867258E+03  0.7818608E-02  0.1161489E+00
         21   -1    0    0  501  502  0.00000000000E+00  0.00000000000E+00  0.69182302512E+03  0.69182302512E+03  0.00000000000E+00 0.  1.
         21   -1    0    0  502  503 -0.00000000000E+00 -0.00000000000E+00 -0.66630682199E+02  0.66630682199E+02  0.00000000000E+00 0.  1.
         -6    2    1    2    0  503 -0.60269647859E+02 -0.40505895760E+02  0.12502592819E+03  0.22456891231E+03  0.17183292936E+03 0.  0.
        -24    2    3    3    0    0 -0.79126188105E+02 -0.53746622265E+02  0.14700851187E+03  0.19237869744E+03  0.79046869771E+02 0.  0.
          6    2    1    2  501    0  0.60269647859E+02  0.40505895760E+02  0.50016641473E+03  0.53388479500E+03  0.17202724747E+03 0.  0.
         24    2    5    5    0    0  0.99956372972E+01 -0.13691721876E+00  0.43415823654E+03  0.44137272026E+03  0.78845242903E+02 0.  0.
          5    1    5    5  501    0  0.50274010562E+02  0.40642812979E+02  0.66008178190E+02  0.92512074741E+02  0.47000000000E+01 0. -1.
        -13    1    6    6    0    0  0.43990017605E+01  0.25273361491E+02  0.48754698194E+02  0.55091874297E+02  0.00000000000E+00 0.  1.
         14    1    6    6    0    0  0.55966355368E+01 -0.25410278709E+02  0.38540353834E+03  0.38628084597E+03  0.00000000000E+00 0. -1.
         -5    1    3    3    0  503  0.18856540246E+02  0.13240726504E+02 -0.21982583672E+02  0.32190214869E+02  0.47000000000E+01 0.  1.
         11    1    4    4    0    0 -0.18644110566E+02 -0.25554619063E+02  0.11327099461E+03  0.11760510038E+03  0.00000000000E+00 0. -1.
        -12    1    4    4    0    0 -0.60482077540E+02 -0.28192003202E+02  0.33737517254E+02  0.74773597068E+02  0.00000000000E+00 0.  1.
</event>
<event>
12    1  0.8691829E-002  0.1998211E+03  0.7818608E-02  0.1150668E+00
         21   -1    0    0  503  502  0.00000000000E+00  0.00000000000E+00  0.74328028331E+03  0.74328028331E+03  0.00000000000E+00 0. -1.
         21   -1    0    0  501  503 -0.00000000000E+00 -0.00000000000E+00 -0.80551503839E+02  0.80551503839E+02  0.00000000000E+00 0. -1.
          6    2    1    2  501    0  0.92502460964E+02  0.24312538459E+02  0.87347195840E+02  0.21474031593E+03  0.17127774477E+03 0.  0.
         24    2    3    3    0    0  0.67634041804E+02 -0.52290651017E+01  0.12279354811E+03  0.16211258083E+03  0.81243625441E+02 0.  0.
         -6    2    1    2    0  502 -0.92502460964E+02 -0.24312538459E+02  0.57538158363E+03  0.60909147122E+03  0.17544414702E+03 0.  0.
        -24    2    5    5    0    0 -0.41032330288E+02 -0.80236669133E+02  0.39087613380E+03  0.40948928246E+03  0.82314915218E+02 0.  0.
          5    1    3    3  501    0  0.24868419159E+02  0.29541603560E+02 -0.35446352266E+02  0.52627735096E+02  0.47000000000E+01 0. -1.
        -13    1    4    4    0    0 -0.97118494189E+01  0.13495559799E+02  0.10411692435E+01  0.16659357335E+02  0.00000000000E+00 0.  1.
         14    1    4    4    0    0  0.77345891223E+02 -0.18724624901E+02  0.12175237886E+03  0.14545322350E+03  0.00000000000E+00 0. -1.
         -5    1    5    5    0  502 -0.51470130675E+02  0.55924130674E+02  0.18450544983E+03  0.19960218877E+03  0.47000000000E+01 0.  1.
         13    1    6    6    0    0 -0.53086615955E+02 -0.24193795084E+02  0.26235669976E+03  0.26876489061E+03  0.00000000000E+00 0. -1.
        -14    1    6    6    0    0  0.12054285667E+02 -0.56042874049E+02  0.12851943404E+03  0.14072439185E+03  0.00000000000E+00 0.  1.
</event>
<event>
12    1  0.8691829E-002  0.2845090E+03  0.7818608E-02  0.1093261E+00
         21   -1    0    0  501  502  0.00000000000E+00  0.00000000000E+00  0.69520107538E+03  0.69520107538E+03  0.00000000000E+00 0. -1.
         21   -1    0    0  502  503 -0.00000000000E+00 -0.00000000000E+00 -0.12155348202E+03  0.12155348202E+03  0.00000000000E+00 0.  1.
         -6    2    1    2    0  503 -0.69019653042E+02 -0.21540257432E+03  0.20280284456E+03  0.34939144553E+03  0.17257869774E+03 0.  0.
        -24    2    3    3    0    0 -0.63774304983E+02 -0.23095454497E+03  0.21319058451E+03  0.32940713647E+03  0.75177605761E+02 0.  0.
          6    2    1    2  501    0  0.69019653042E+02  0.21540257432E+03  0.37084474880E+03  0.46736311187E+03  0.17245425218E+03 0.  0.
         24    2    5    5    0    0  0.99825249669E+02  0.17817003018E+03  0.22727812141E+03  0.31580878621E+03  0.79813563062E+02 0.  0.
          5    1    5    5  501    0 -0.30805596628E+02  0.37232544139E+02  0.14356662739E+03  0.15155432566E+03  0.47000000000E+01 0. -1.
        -13    1    6    6    0    0  0.16549275469E+02  0.11509459500E+02 -0.21382638502E+01  0.20271121055E+02  0.00000000000E+00 0.  1.
         14    1    6    6    0    0  0.83275974200E+02  0.16666057068E+03  0.22941638526E+03  0.29553766515E+03  0.00000000000E+00 0. -1.
         -5    1    3    3    0  503 -0.52453480588E+01  0.15551970652E+02 -0.10387739951E+02  0.19984309063E+02  0.47000000000E+01 0.  1.
         13    1    4    4    0    0  0.15471611797E+02 -0.17263011133E+02  0.20943354446E+02  0.31241101460E+02  0.00000000000E+00 0. -1.
        -14    1    4    4    0    0 -0.79245916780E+02 -0.21369153384E+03  0.19224723007E+03  0.29816603501E+03  0.00000000000E+00 0.  1.
</event>
<event>
12    1  0.8691829E-002  0.2093458E+03  0.7818608E-02  0.1142118E+00
         21   -1    0    0  503  502  0.00000000000E+00  0.00000000000E+00  0.16885753574E+03  0.16885753574E+03  0.00000000000E+00 0.  1.
         21   -1    0    0  501  503 -0.00000000000E+00 -0.00000000000E+00 -0.26873535528E+03  0.26873535528E+03  0.00000000000E+00 0. -1.
          6    2    1    2  501    0 -0.10822613611E+03  0.51303468452E+02 -0.89986265903E+01  0.20937219017E+03  0.17149576182E+03 0.  0.
         24    2    3    3    0    0 -0.27048057984E+02  0.53187808732E+02  0.46900451573E+02  0.11067959649E+03  0.80559172560E+02 0.  0.
         -6    2    1    2    0  502  0.10822613611E+03 -0.51303468452E+02 -0.90879192942E+02  0.22822070085E+03  0.17169949963E+03 0.  0.
        -24    2    5    5    0    0  0.43438040088E+02 -0.66819564267E+02  0.41441367008E+01  0.11207523261E+03  0.78689048797E+02 0.  0.
          5    1    3    3  501    0 -0.81178078129E+02 -0.18843402808E+01 -0.55899078163E+02  0.98692593676E+02  0.47000000000E+01 0. -1.
        -11    1    4    4    0    0 -0.55974341238E+02  0.36503874934E+02  0.29932995308E+02  0.73223247471E+02  0.00000000000E+00 0.  1.
         12    1    4    4    0    0  0.28926283254E+02  0.16683933799E+02  0.16967456265E+02  0.37456349021E+02  0.00000000000E+00 0. -1.
         -5    1    5    5    0  502  0.64788096025E+02  0.15516095815E+02 -0.95023329643E+02  0.11614546824E+03  0.47000000000E+01 0.  1.
         13    1    6    6    0    0 -0.17500711574E+01 -0.26159319571E+02 -0.31987825829E+02  0.41359324834E+02  0.00000000000E+00 0. -1.
        -14    1    6    6    0    0  0.45188111246E+02 -0.40660244696E+02  0.36131962529E+02  0.70715907778E+02  0.00000000000E+00 0.  1.
</event>
<event>
12    1  0.8691829E-002  0.1748648E+03  0.7818608E-02  0.1172881E+00
         21   -1    0    0  503  502  0.00000000000E+00  0.00000000000E+00  0.33765557695E+03  0.33765557695E+03  0.00000000000E+00 0. -1.
         21   -1    0    0  501  503 -0.00000000000E+00 -0.00000000000E+00 -0.10658982697E+03  0.10658982697E+03  0.00000000000E+00 0. -1.
          6    2    1    2  501    0  0.12747807122E+02  0.30712314826E+02  0.29300449563E+02  0.17724928084E+03  0.17161887526E+03 0.  0.
         24    2    3    3    0    0 -0.16566752299E+02 -0.43697375254E+02  0.31667775938E+02  0.97100421798E+02  0.79004594769E+02 0.  0.
         -6    2    1    2    0  502 -0.12747807122E+02 -0.30712314826E+02  0.20176530042E+03  0.26699612308E+03  0.17167393634E+03 0.  0.
        -24    2    5    5    0    0 -0.38767160320E+02 -0.67495537351E+02  0.79973352331E+02  0.13705236286E+03  0.79555469970E+02 0.  0.
          5    1    3    3  501    0  0.29314559421E+02  0.74409690081E+02 -0.23673263747E+01  0.80148859044E+02  0.47000000000E+01 0. -1.
        -13    1    4    4    0    0  0.87386867869E+01 -0.35248490709E+02  0.52092131572E+02  0.63501267040E+02  0.00000000000E+00 0.  1.
         14    1    4    4    0    0 -0.25305439086E+02 -0.84488845455E+01 -0.20424355633E+02  0.33599154758E+02  0.00000000000E+00 0. -1.
         -5    1    5    5    0  502  0.26019353199E+02  0.36783222524E+02  0.12179194808E+03  0.12994376021E+03  0.47000000000E+01 0.  1.
         11    1    6    6    0    0 -0.12577040999E+02 -0.77373473198E+02  0.75257191871E+02  0.10866683599E+03  0.00000000000E+00 0. -1.
        -12    1    6    6    0    0 -0.26190119321E+02  0.98779358475E+01  0.47161604601E+01  0.28385526878E+02  0.00000000000E+00 0.  1.
</event>
<event>
12    1  0.8691829E-002  0.1762399E+03  0.7818608E-02  0.1171908E+00
         21   -1    0    0  503  502  0.00000000000E+00  0.00000000000E+00  0.13059117148E+03  0.13059117148E+03  0.00000000000E+00 0.  1.
         21   -1    0    0  501  503 -0.00000000000E+00 -0.00000000000E+00 -0.25508099549E+03  0.25508099549E+03  0.00000000000E+00 0. -1.
          6    2    1    2  501    0 -0.19677041134E+02  0.35734504123E+02 -0.11579456084E+03  0.21087643653E+03  0.17145363931E+03 0.  0.
         24    2    3    3    0    0  0.35113587672E+02  0.69318440525E+02 -0.76782596625E+02  0.13555102820E+03  0.80252749887E+02 0.  0.
         -6    2    1    2    0  502  0.19677041134E+02 -0.35734504123E+02 -0.86952631677E+01  0.17479573044E+03  0.16974627845E+03 0.  0.
        -24    2    5    5    0    0  0.40226776006E+02 -0.84822886218E+02 -0.19171776422E+01  0.12094414455E+03  0.76227914808E+02 0.  0.
          5    1    3    3  501    0 -0.54790628806E+02 -0.33583936402E+02 -0.39011964216E+02  0.75325408338E+02  0.47000000000E+01 0. -1.
        -13    1    4    4    0    0  0.47078374074E+02  0.14166450645E+02 -0.58087739098E+02  0.76100243514E+02  0.00000000000E+00 0.  1.
         14    1    4    4    0    0 -0.11964786402E+02  0.55151989880E+02 -0.18694857527E+02  0.59450784682E+02  0.00000000000E+00 0. -1.
         -5    1    5    5    0  502 -0.20549734871E+02  0.49088382095E+02 -0.67780855255E+01  0.53851585895E+02  0.47000000000E+01 0.  1.
         11    1    6    6    0    0  0.38544646834E+02 -0.47328386597E+02 -0.35474100590E+02  0.70598001318E+02  0.00000000000E+00 0. -1.
        -12    1    6    6    0    0  0.16821291717E+01 -0.37494499622E+02  0.33556922947E+02  0.50346143230E+02  0.00000000000E+00 0.  1.
</event>
<event>
12    1  0.8691829E-002  0.1906214E+03  0.7818608E-02  0.1158061E+00
         21   -1    0    0  501  502  0.00000000000E+00  0.00000000000E+00  0.18226592143E+02  0.18226592143E+02  0.00000000000E+00 0.  1.
         21   -1    0    0  502  503 -0.00000000000E+00 -0.00000000000E+00 -0.20030098621E+04  0.20030098621E+04  0.00000000000E+00 0.  1.
         -6    2    1    2    0  503 -0.33665067196E+02 -0.74025475244E+02 -0.10830407173E+04  0.10995661588E+04  0.17162585635E+03 0.  0.
        -24    2    3    3    0    0 -0.26994071246E+02  0.17828878003E+02 -0.34022317934E+03  0.35104648033E+03  0.80220139720E+02 0.  0.
          6    2    1    2  501    0  0.33665067196E+02  0.74025475244E+02 -0.90174255267E+03  0.92167029544E+03  0.17240474022E+03 0.  0.
         24    2    5    5    0    0  0.58190928603E+02  0.10421259689E+03 -0.57121906592E+03  0.58883302966E+03  0.78655362375E+02 0.  0.
          5    1    5    5  501    0 -0.24525861408E+02 -0.30187121642E+02 -0.33052348676E+03  0.33283726578E+03  0.47000000000E+01 0. -1.
        -11    1    6    6    0    0  0.31155976487E+02 -0.21954227575E+01 -0.17096912078E+03  0.17379860474E+03  0.00000000000E+00 0.  1.
         12    1    6    6    0    0  0.27034952116E+02  0.10640801964E+03 -0.40024994514E+03  0.41503442492E+03  0.00000000000E+00 0. -1.
         -5    1    3    3    0  503 -0.66709959497E+01 -0.91854353247E+02 -0.74281753798E+03  0.74851967851E+03  0.47000000000E+01 0.  1.
         13    1    4    4    0    0 -0.48438504676E+02  0.18908971732E+01 -0.12334508327E+03  0.13252876591E+03  0.00000000000E+00 0. -1.
        -14    1    4    4    0    0  0.21444433430E+02  0.15937980830E+02 -0.21687809607E+03  0.21851771442E+03  0.00000000000E+00 0.  1.
</event>
<event>
12    1  0.8691829E-002  0.1902252E+03  0.7818608E-02  0.1158423E+00
         21   -1    0    0  503  502  0.00000000000E+00  0.00000000000E+00  0.11331299557E+03  0.11331299557E+03  0.00000000000E+00 0.  1.
         21   -1    0    0  501  503 -0.00000000000E+00 -0.00000000000E+00 -0.31829764895E+03  0.31829764895E+03  0.00000000000E+00 0.  1.
          6    2    1    2  501    0  0.51144004779E+02  0.59903285513E+02 -0.97140633203E+02  0.21294206111E+03  0.17234821128E+03 0.  0.
         24    2    3    3    0    0  0.26366843701E+02 -0.33515151115E+02 -0.63038719722E+02  0.11034604503E+03  0.79899272016E+02 0.  0.
         -6    2    1    2    0  502 -0.51144004779E+02 -0.59903285513E+02 -0.10784402018E+03  0.21866858341E+03  0.17315167871E+03 0.  0.
        -24    2    5    5    0    0 -0.20925080398E+02 -0.38943684919E+01  0.11396118624E+02  0.83426271693E+02  0.79856409845E+02 0.  0.
          5    1    3    3  501    0  0.24777161078E+02  0.93418436628E+02 -0.34101913481E+02  0.10259601608E+03  0.47000000000E+01 0. -1.
        -13    1    4    4    0    0 -0.15593493433E+00  0.25203448004E+02 -0.25124586646E+02  0.35587679907E+02  0.00000000000E+00 0.  1.
         14    1    4    4    0    0  0.26522778635E+02 -0.58718599119E+02 -0.37914133076E+02  0.74758365124E+02  0.00000000000E+00 0. -1.
         -5    1    5    5    0  502 -0.30218924381E+02 -0.56008917021E+02 -0.11924013880E+03  0.13524231172E+03  0.47000000000E+01 0.  1.
         13    1    6    6    0    0  0.20357349162E+02  0.64395850236E+01 -0.20995525771E+02  0.29944983262E+02  0.00000000000E+00 0. -1.
        -14    1    6    6    0    0 -0.41282429560E+02 -0.10333953516E+02  0.32391644395E+02  0.53481288431E+02  0.00000000000E+00 0.  1.
</event>
<event>
12    1  0.8691829E-002  0.1910478E+03  0.7818608E-02  0.1158959E+00
         21   -1    0    0  503  502  0.00000000000E+00  0.00000000000E+00  0.30362469356E+03  0.30362469356E+03  0.00000000000E+00 0. -1.
         21   -1    0    0  501  503 -0.00000000000E+00 -0.00000000000E+00 -0.11802649631E+03  0.11802649631E+03  0.00000000000E+00 0. -1.
          6    2    1    2  501    0  0.61803427366E+02  0.54865595734E+02  0.65555664206E+02  0.19601995400E+03  0.16521616152E+03 0.  0.
         24    2    3    3    0    0  0.11146705889E+02  0.68392933816E+02  0.87376961537E+02  0.13903441791E+03  0.83030075926E+02 0.  0.
         -6    2    1    2    0  502 -0.61803427366E+02 -0.54865595734E+02  0.12004253304E+03  0.22563123587E+03  0.17224792490E+03 0.  0.
        -24    2    5    5    0    0 -0.33238056375E+02  0.36316168086E+02  0.44027876243E+02  0.10344116867E+03  0.79611488079E+02 0.  0.
          5    1    3    3  501    0  0.50656721476E+02 -0.13527338083E+02 -0.21821297332E+02  0.56985536091E+02  0.47000000000E+01 0. -1.
        -13    1    4    4    0    0 -0.83102266958E+01 -0.10650244176E+02  0.45557130189E+02  0.47517782775E+02  0.00000000000E+00 0.  1.
         14    1    4    4    0    0  0.19456932585E+02  0.79043177992E+02  0.41819831348E+02  0.91516635136E+02  0.00000000000E+00 0. -1.
         -5    1    5    5    0  502 -0.28565370990E+02 -0.91181763819E+02  0.76014656798E+02  0.12219006719E+03  0.47000000000E+01 0.  1.
         13    1    6    6    0    0 -0.58824593613E+02  0.24619864428E+02  0.39319942117E+02  0.74916809771E+02  0.00000000000E+00 0. -1.
        -14    1    6    6    0    0  0.25586537238E+02  0.11696303658E+02  0.47079341259E+01  0.28524358903E+02  0.00000000000E+00 0.  1.
</event>
<event>
12    1  0.8691829E-002  0.2594240E+03  0.7818608E-02  0.1107850E+00
         21   -1    0    0  501  502  0.00000000000E+00  0.00000000000E+00  0.66063468809E+03  0.66063468809E+03  0.00000000000E+00 0. -1.
         21   -1    0    0  502  503 -0.00000000000E+00 -0.00000000000E+00 -0.86416626180E+03  0.86416626180E+03  0.00000000000E+00 0. -1.
         -6    2    1    2    0  503  0.15206663192E+02  0.19092092635E+03 -0.81831061629E+03  0.85844806668E+03  0.17498221549E+03 0.  0.
        -24    2    3    3    0    0  0.29549272996E+02  0.21349202679E+03 -0.69036690204E+03  0.72765491301E+03  0.80144918518E+02 0.  0.
          6    2    1    2  501    0 -0.15206663192E+02 -0.19092092635E+03  0.61477904258E+03  0.66635288320E+03  0.17143760099E+03 0.  0.
         24    2    5    5    0    0  0.28203487777E+02 -0.37008056276E+02  0.28755441236E+03  0.30211166999E+03  0.80117963795E+02 0.  0.
          5    1    5    5  501    0 -0.43410150969E+02 -0.15391287008E+03  0.32722463022E+03  0.36424121321E+03  0.47000000000E+01 0. -1.
        -13    1    6    6    0    0 -0.27843861269E+02 -0.15356911718E+02  0.11872219113E+03  0.12290676960E+03  0.00000000000E+00 0.  1.
         14    1    6    6    0    0  0.56047349046E+02 -0.21651144559E+02  0.16883222124E+03  0.17920490039E+03  0.00000000000E+00 0. -1.
         -5    1    3    3    0  503 -0.14342609804E+02 -0.22571100438E+02 -0.12794371425E+03  0.13079315367E+03  0.47000000000E+01 0.  1.
         13    1    4    4    0    0  0.30190891279E+02  0.18366388697E+03 -0.47389853811E+03  0.50914019456E+03  0.00000000000E+00 0. -1.
        -14    1    4    4    0    0 -0.64161828306E+00  0.29828139821E+02 -0.21646836393E+03  0.21851471845E+03  0.00000000000E+00 0.  1.
</event>
<event>
12    1  0.8691829E-002  0.2597150E+03  0.7818608E-02  0.1107387E+00
         21   -1    0    0  501  502  0.00000000000E+00  0.00000000000E+00  0.17263348846E+03  0.17263348846E+03  0.00000000000E+00 0. -1.
         21   -1    0    0  502  503 -0.00000000000E+00 -0.00000000000E+00 -0.40753295568E+03  0.40753295568E+03  0.00000000000E+00 0. -1.
         -6    2    1    2    0  503  0.18509115990E+03 -0.57598987257E+02 -0.17771559856E+03  0.31469785670E+03  0.17284538244E+03 0.  0.
        -24    2    3    3    0    0  0.13021091519E+03  0.17178040203E+02 -0.15050089913E+03  0.21791885608E+03  0.87109928804E+02 0.  0.
          6    2    1    2  501    0 -0.18509115990E+03  0.57598987257E+02 -0.57183868662E+02  0.26546858744E+03  0.17212552186E+03 0.  0.
         24    2    5    5    0    0 -0.45376227803E+02  0.78049035945E+02 -0.17747953630E+02  0.11878611358E+03  0.75129866628E+02 0.  0.
          5    1    5    5  501    0 -0.13971493210E+03 -0.20450048688E+02 -0.39435915032E+02  0.14668247386E+03  0.47000000000E+01 0. -1.
        -13    1    6    6    0    0  0.80803956621E+01  0.60707200133E+02 -0.84445578420E+01  0.61822063207E+02  0.00000000000E+00 0.  1.
         14    1    6    6    0    0 -0.53456623465E+02  0.17341835813E+02 -0.93033957880E+01  0.56964050372E+02  0.00000000000E+00 0. -1.
         -5    1    3    3    0  503  0.54880244712E+02 -0.74777027460E+02 -0.27214699426E+02  0.96779000617E+02  0.47000000000E+01 0.  1.
         13    1    4    4    0    0  0.12619753478E+03 -0.11924931412E+02 -0.10966983461E+03  0.16761710652E+03  0.00000000000E+00 0. -1.
        -14    1    4    4    0    0  0.40133804080E+01  0.29102971615E+02 -0.40831064518E+02  0.50301749560E+02  0.00000000000E+00 0.  1.
</event>
<event>
12    1  0.8691829E-002  0.1802292E+03  0.7818608E-02  0.1168241E+00
         21   -1    0    0  501  502  0.00000000000E+00  0.00000000000E+00  0.27500755983E+03  0.27500755983E+03  0.00000000000E+00 0. -1.
         21   -1    0    0  502  503 -0.00000000000E+00 -0.00000000000E+00 -0.49786793773E+03  0.49786793773E+03  0.00000000000E+00 0. -1.
         -6    2    1    2    0  503  0.23895330741E+02 -0.45580914819E+02 -0.44951535997E+03  0.48329813709E+03  0.16989533202E+03 0.  0.
        -24    2    3    3    0    0  0.48011499628E+02 -0.37025117508E+02 -0.44605525436E+03  0.45705211644E+03  0.79090984160E+02 0.  0.
          6    2    1    2  501    0 -0.23895330741E+02  0.45580914819E+02  0.22665498206E+03  0.28957736047E+03  0.17272510001E+03 0.  0.
         24    2    5    5    0    0  0.10913757085E+02  0.11665895553E+01  0.21749186649E+03  0.23221572197E+03  0.80628521731E+02 0.  0.
          5    1    5    5  501    0 -0.34809087827E+02  0.44414325264E+02  0.91631155771E+01  0.57361638497E+02  0.47000000000E+01 0. -1.
        -13    1    6    6    0    0  0.96679528325E+01 -0.33992847299E+02  0.51005722561E+02  0.62052934769E+02  0.00000000000E+00 0.  1.
         14    1    6    6    0    0  0.12458042530E+01  0.35159436855E+02  0.16648614393E+03  0.17016278720E+03  0.00000000000E+00 0. -1.
         -5    1    3    3    0  503 -0.24116168887E+02 -0.85557973106E+01 -0.34601056114E+01  0.26246020655E+02  0.47000000000E+01 0.  1.
         13    1    4    4    0    0  0.28527585169E+02 -0.17570310389E+02 -0.41153236513E+03  0.41289396517E+03  0.00000000000E+00 0. -1.
        -14    1    4    4    0    0  0.19483914459E+02 -0.19454807120E+02 -0.34522889225E+02  0.44158151265E+02  0.00000000000E+00 0.  1.
</event>
<event>
12    1  0.8691829E-002  0.2228749E+03  0.7818608E-02  0.1131795E+00
         21   -1    0    0  503  502  0.00000000000E+00  0.00000000000E+00  0.29734737003E+03  0.29734737003E+03  0.00000000000E+00 0.  1.
         21   -1    0    0  501  503 -0.00000000000E+00 -0.00000000000E+00 -0.16982615388E+03  0.16982615388E+03  0.00000000000E+00 0.  1.
          6    2    1    2  501    0 -0.52731646836E+02 -0.13263236999E+03  0.94378843721E+02  0.24184785930E+03  0.17091240083E+03 0.  0.
         24    2    3    3    0    0 -0.86089367253E+02 -0.13204814643E+03  0.10623187039E+03  0.20613143353E+03  0.79729953429E+02 0.  0.
         -6    2    1    2    0  502  0.52731646836E+02  0.13263236999E+03  0.33142372430E+02  0.22532566461E+03  0.17117612606E+03 0.  0.
        -24    2    5    5    0    0  0.69737601894E+02  0.47980907154E+02  0.66320068389E+02  0.13270859179E+03  0.77767077184E+02 0.  0.
          5    1    3    3  501    0  0.33357720417E+02 -0.58422356481E+00 -0.11853026666E+02  0.35716425770E+02  0.47000000000E+01 0. -1.
        -11    1    4    4    0    0 -0.70164313003E+02 -0.10104115516E+03  0.36732900509E+02  0.12838088579E+03  0.00000000000E+00 0.  1.
         12    1    4    4    0    0 -0.15925054251E+02 -0.31006991267E+02  0.69498969877E+02  0.77750547743E+02  0.00000000000E+00 0. -1.
         -5    1    5    5    0  502 -0.17005955058E+02  0.84651462840E+02 -0.33177695959E+02  0.92617072819E+02  0.47000000000E+01 0.  1.
         11    1    6    6    0    0  0.28423762970E+01  0.12880395319E+01  0.49267227905E+02  0.49365958861E+02  0.00000000000E+00 0. -1.
        -12    1    6    6    0    0  0.66895225597E+02  0.46692867622E+02  0.17052840484E+02  0.83342632926E+02  0.00000000000E+00 0.  1.
</event>
<event>
12    1  0.8691829E-002  0.1896960E+03  0.7818608E-02  0.1159816E+00
         21   -1    0    0  503  502  0.00000000000E+00  0.00000000000E+00  0.18318925286E+03  0.18318925286E+03  0.00000000000E+00 0.  1.
         21   -1    0    0  501  503 -0.00000000000E+00 -0.00000000000E+00 -0.19608277942E+03  0.19608277942E+03  0.00000000000E+00 0.  1.
          6    2    1    2  501    0  0.56164671205E+02  0.40154203242E+02 -0.35101273772E+02  0.18828057301E+03  0.17161190059E+03 0.  0.
         24    2    3    3    0    0  0.70034121962E+02  0.88265423475E+02 -0.22858984299E+02  0.13652137259E+03  0.73620573151E+02 0.  0.
         -6    2    1    2    0  502 -0.56164671205E+02 -0.40154203242E+02  0.22207747206E+02  0.19099145927E+03  0.17668537898E+03 0.  0.
        -24    2    5    5    0    0 -0.33356884907E+02  0.30857537601E+02  0.56648869890E+02  0.10870450170E+03  0.80886988032E+02 0.  0.
          5    1    3    3  501    0 -0.13869450756E+02 -0.48111220234E+02 -0.12242289473E+02  0.51759200421E+02  0.47000000000E+01 0. -1.
        -13    1    4    4    0    0  0.12566948761E+02  0.26607114282E+02  0.25854416280E+02  0.39170366002E+02  0.00000000000E+00 0.  1.
         14    1    4    4    0    0  0.57467173200E+02  0.61658309194E+02 -0.48713400578E+02  0.97351006590E+02  0.00000000000E+00 0. -1.
         -5    1    5    5    0  502 -0.22807786298E+02 -0.71011740843E+02 -0.34441122684E+02  0.82286957564E+02  0.47000000000E+01 0.  1.
         13    1    6    6    0    0 -0.57545239168E+02  0.20535863841E+02  0.21427292479E+02  0.64748012460E+02  0.00000000000E+00 0. -1.
        -14    1    6    6    0    0  0.24188354261E+02  0.10321673760E+02  0.35221577411E+02  0.43956489241E+02  0.00000000000E+00 0.  1.
</event>
<event>
12    1  0.8691829E-002  0.1740939E+03  0.7818608E-02  0.1173985E+00
         21   -1    0    0  503  502  0.00000000000E+00  0.00000000000E+00  0.27276163070E+03  0.27276163070E+03  0.00000000000E+00 0.  1.
         21   -1    0    0  501  503 -0.00000000000E+00 -0.00000000000E+00 -0.11724369266E+03  0.11724369266E+03  0.00000000000E+00 0.  1.
          6    2    1    2  501    0  0.93880949581E+01  0.15894365341E+02  0.12505369013E+03  0.21326606740E+03  0.17176502239E+03 0.  0.
         24    2    3    3    0    0  0.46044075138E+02  0.24809459369E+02  0.14104529832E+02  0.95984585684E+02  0.79237218513E+02 0.  0.
         -6    2    1    2    0  502 -0.93880949581E+01 -0.15894365341E+02  0.30464247917E+02  0.17673925595E+03  0.17311246927E+03 0.  0.
        -24    2    5    5    0    0 -0.55485609078E+02 -0.33546716209E+02  0.59444787973E+02  0.11930626891E+03  0.80599429277E+02 0.  0.
          5    1    3    3  501    0 -0.36655980180E+02 -0.89150940281E+01  0.11094916030E+03  0.11728148172E+03  0.47000000000E+01 0. -1.
        -11    1    4    4    0    0  0.51277677022E+02  0.10024720055E+02  0.39937097917E+02  0.65763720721E+02  0.00000000000E+00 0.  1.
         12    1    4    4    0    0 -0.52336018844E+01  0.14784739314E+02 -0.25832568085E+02  0.30220864963E+02  0.00000000000E+00 0. -1.
         -5    1    5    5    0  502  0.46097514120E+02  0.17652350868E+02 -0.28980540056E+02  0.57432987047E+02  0.47000000000E+01 0.  1.
         13    1    6    6    0    0 -0.31105466462E+02 -0.14970038686E+02  0.76715498576E+02  0.84124430601E+02  0.00000000000E+00 0. -1.
        -14    1    6    6    0    0 -0.24380142616E+02 -0.18576677523E+02 -0.17270710603E+02  0.35181838304E+02  0.00000000000E+00 0.  1.
</event>
<event>
12    1  0.8691829E-002  0.1800286E+03  0.7818608E-02  0.1168113E+00
         21   -1    0    0  501  502  0.00000000000E+00  0.00000000000E+00  0.45541732311E+03  0.45541732311E+03  0.00000000000E+00 0.  1.
         21   -1    0    0  502  503 -0.00000000000E+00 -0.00000000000E+00 -0.12036128368E+03  0.12036128368E+03  0.00000000000E+00 0.  1.
         -6    2    1    2    0  503 -0.30575911334E+02  0.37933195860E+02 -0.17930125800E+02  0.17953432108E+03  0.17186410135E+03 0.  0.
        -24    2    3    3    0    0 -0.29609569474E+02  0.68789227262E+02  0.33395549033E+02  0.11945567773E+03  0.86866056971E+02 0.  0.
          6    2    1    2  501    0  0.30575911334E+02 -0.37933195860E+02  0.35298616523E+03  0.39624428571E+03  0.17331037884E+03 0.  0.
         24    2    5    5    0    0  0.43631413528E+02 -0.89071213754E+02  0.25510661411E+03  0.28494271547E+03  0.79218591059E+02 0.  0.
          5    1    5    5  501    0 -0.13055502194E+02  0.51138017894E+02  0.97879551120E+02  0.11130157025E+03  0.47000000000E+01 0. -1.
        -11    1    6    6    0    0  0.23603780932E+02 -0.68014751806E+02  0.24303678629E+03  0.25347588530E+03  0.00000000000E+00 0.  1.
         12    1    6    6    0    0  0.20027632596E+02 -0.21056461948E+02  0.12069827816E+02  0.31466830166E+02  0.00000000000E+00 0. -1.
         -5    1    3    3    0  503 -0.96634186003E+00 -0.30856031402E+02 -0.51325674833E+02  0.60078643356E+02  0.47000000000E+01 0.  1.
         13    1    4    4    0    0 -0.21642360501E+02 -0.17310222187E+02  0.13023031915E+02  0.30620824947E+02  0.00000000000E+00 0. -1.
        -14    1    4    4    0    0 -0.79672089730E+01  0.86099449449E+02  0.20372517118E+02  0.88834852778E+02  0.00000000000E+00 0.  1.
</event>
<event>
12    1  0.8691829E-002  0.1891772E+03  0.7818608E-02  0.1159302E+00
         21   -1    0    0  503  502  0.00000000000E+00  0.00000000000E+00  0.45937368066E+02  0.45937368066E+02  0.00000000000E+00 0. -1.
         21   -1    0    0  501  503 -0.00000000000E+00 -0.00000000000E+00 -0.96159139746E+03  0.96159139746E+03  0.00000000000E+00 0. -1.
          6    2    1    2  501    0  0.45418825786E+02  0.62633067666E+02 -0.23770973485E+03  0.30379913148E+03  0.17263320464E+03 0.  0.
         24    2    3    3    0    0 -0.99960865427E+01  0.47666574350E+02 -0.41215550173E+02  0.99038629813E+02  0.75748957502E+02 0.  0.
         -6    2    1    2    0  502 -0.45418825786E+02 -0.62633067666E+02 -0.67794429454E+03  0.70372963405E+03  0.17216608386E+03 0.  0.
        -24    2    5    5    0    0 -0.84482649067E+01 -0.22386129837E+02 -0.14037104470E+03  0.16336519469E+03  0.80072746027E+02 0.  0.
          5    1    3    3  501    0  0.55414912328E+02  0.14966493316E+02 -0.19649418468E+03  0.20476050167E+03  0.47000000000E+01 0. -1.
        -11    1    4    4    0    0  0.24602352236E+00  0.61405827112E+02 -0.50539348849E+02  0.79529629152E+02  0.00000000000E+00 0.  1.
         12    1    4    4    0    0 -0.10242110065E+02 -0.13739252762E+02  0.93237986761E+01  0.19509000661E+02  0.00000000000E+00 0. -1.
         -5    1    5    5    0  502 -0.36970560879E+02 -0.40246937829E+02 -0.53757324984E+03  0.54036443936E+03  0.47000000000E+01 0.  1.
         11    1    6    6    0    0 -0.14673853436E+02  0.27046460009E+02 -0.33714552058E+02  0.45645415916E+02  0.00000000000E+00 0. -1.
        -12    1    6    6    0    0  0.62255885294E+01 -0.49432589846E+02 -0.10665649264E+03  0.11771977877E+03  0.00000000000E+00 0.  1.
</event>
<event>
12    1  0.8691829E-002  0.3210962E+03  0.7818608E-02  0.1075269E+00
         21   -1    0    0  501  502  0.00000000000E+00  0.00000000000E+00  0.65222316752E+03  0.65222316752E+03  0.00000000000E+00 0. -1.
         21   -1    0    0  502  503 -0.00000000000E+00 -0.00000000000E+00 -0.16972413811E+03  0.16972413811E+03  0.00000000000E+00 0. -1.
         -6    2    1    2    0  503  0.24494587263E+03 -0.11604257765E+03  0.13156216606E+03  0.34700345643E+03  0.17215816823E+03 0.  0.
        -24    2    3    3    0    0  0.24034815075E+03 -0.12892425778E+03  0.82844111875E+02  0.29618401593E+03  0.80455743141E+02 0.  0.
          6    2    1    2  501    0 -0.24494587263E+03  0.11604257765E+03  0.35093686335E+03  0.47494384921E+03  0.17014880985E+03 0.  0.
         24    2    5    5    0    0 -0.61045566630E+02  0.79902420988E+02  0.10601443127E+03  0.16650500404E+03  0.79836699881E+02 0.  0.
          5    1    5    5  501    0 -0.18390030600E+03  0.36140156663E+02  0.24492243208E+03  0.30843884517E+03  0.47000000000E+01 0. -1.
        -13    1    6    6    0    0 -0.24979323458E+02  0.29963156541E+02 -0.52149559853E+01  0.39356741687E+02  0.00000000000E+00 0.  1.
         14    1    6    6    0    0 -0.36066243173E+02  0.49939264447E+02  0.11122938726E+03  0.12714826235E+03  0.00000000000E+00 0. -1.
         -5    1    3    3    0  503  0.45977218845E+01  0.12881680132E+02  0.48718054184E+02  0.50819440503E+02  0.47000000000E+01 0.  1.
         11    1    4    4    0    0  0.38348993807E+02  0.86683490125E+01  0.47493308198E+01  0.39602294679E+02  0.00000000000E+00 0. -1.
        -12    1    4    4    0    0  0.20199915694E+03 -0.13759260680E+03  0.78094781056E+02  0.25658172125E+03  0.00000000000E+00 0.  1.
</event>
<event>
12    1  0.8691829E-002  0.2037458E+03  0.7818608E-02  0.1147208E+00
         21   -1    0    0  503  502  0.00000000000E+00  0.00000000000E+00  0.20288968704E+02  0.20288968704E+02  0.00000000000E+00 0. -1.
         21   -1    0    0  501  503 -0.00000000000E+00 -0.00000000000E+00 -0.20224368339E+04  0.20224368339E+04  0.00000000000E+00 0. -1.
          6    2    1    2  501    0 -0.93086176208E+02 -0.50839639575E+02 -0.95788476376E+03  0.97931382314E+03  0.17396160031E+03 0.  0.
         24    2    3    3    0    0  0.71255156665E+01 -0.20320452301E+02 -0.24155839422E+03  0.25535293905E+03  0.79943554521E+02 0.  0.
         -6    2    1    2    0  502  0.93086176208E+02  0.50839639575E+02 -0.10442631014E+04  0.10634119795E+04  0.17061625921E+03 0.  0.
        -24    2    5    5    0    0  0.82341653865E+02  0.84884497008E+02 -0.55413132640E+03  0.57195929205E+03  0.78040880729E+02 0.  0.
          5    1    3    3  501    0 -0.10021169187E+03 -0.30519187274E+02 -0.71632636955E+03  0.72396088409E+03  0.47000000000E+01 0. -1.
        -11    1    4    4    0    0  0.22857491545E+02  0.13344464985E+02 -0.27784330384E+02  0.38373280813E+02  0.00000000000E+00 0.  1.
         12    1    4    4    0    0 -0.15731975878E+02 -0.33664917286E+02 -0.21377406383E+03  0.21697965824E+03  0.00000000000E+00 0. -1.
         -5    1    5    5    0  502  0.10744522342E+02 -0.34044857434E+02 -0.49013177503E+03  0.49145268742E+03  0.47000000000E+01 0.  1.
         13    1    6    6    0    0  0.35439906251E+02 -0.64694440675E+01 -0.20086918940E+03  0.20407418237E+03  0.00000000000E+00 0. -1.
        -14    1    6    6    0    0  0.46901747614E+02  0.91353941076E+02 -0.35326213701E+03  0.36788510968E+03  0.00000000000E+00 0.  1.
</event>
<event>
12    1  0.8691829E-002  0.1974051E+03  0.7818608E-02  0.1152136E+00
         21   -1    0    0  503  502  0.00000000000E+00  0.00000000000E+00  0.40186149117E+03  0.40186149117E+03  0.00000000000E+00 0.  1.
         21   -1    0    0  501  503 -0.00000000000E+00 -0.00000000000E+00 -0.99705469633E+02  0.99705469633E+02  0.00000000000E+00 0.  1.
          6    2    1    2  501    0  0.17261292710E+02 -0.95394726578E+02  0.10671639871E+03  0.22440399322E+03  0.17196120590E+03 0.  0.
         24    2    3    3    0    0  0.28639870956E+02 -0.34807378030E+02  0.12930482233E+03  0.15858130922E+03  0.79978114394E+02 0.  0.
         -6    2    1    2    0  502 -0.17261292710E+02  0.95394726578E+02  0.19543962283E+03  0.27716296758E+03  0.17095191823E+03 0.  0.
        -24    2    5    5    0    0 -0.15358442550E+02  0.12009703751E+03  0.97071304561E+02  0.17561376255E+03  0.82208121583E+02 0.  0.
          5    1    3    3  501    0 -0.11378578245E+02 -0.60587348548E+02 -0.22588423622E+02  0.65822683998E+02  0.47000000000E+01 0. -1.
        -13    1    4    4    0    0  0.34206974362E+02  0.35618084569E+01  0.14352203168E+02  0.37266463613E+02  0.00000000000E+00 0.  1.
         14    1    4    4    0    0 -0.55671034060E+01 -0.38369186487E+02  0.11495261916E+03  0.12131484560E+03  0.00000000000E+00 0. -1.
         -5    1    5    5    0  502 -0.19028501605E+01 -0.24702310928E+02  0.98368318266E+02  0.10154920503E+03  0.47000000000E+01 0.  1.
         11    1    6    6    0    0 -0.33027177371E+02  0.82637469019E+02  0.24913746240E+02  0.92414503638E+02  0.00000000000E+00 0. -1.
        -12    1    6    6    0    0  0.17668734822E+02  0.37459568487E+02  0.72157558321E+02  0.83199258916E+02  0.00000000000E+00 0.  1.
</event>
<event>
12    1  0.8691829E-002  0.2432131E+03  0.7818608E-02  0.1117780E+00
         21   -1    0    0  501  502  0.00000000000E+00  0.00000000000E+00  0.92456248140E+03  0.92456248140E+03  0.00000000000E+00 0. -1.
         21   -1    0    0  502  503 -0.00000000000E+00 -0.00000000000E+00 -0.84415989496E+02  0.84415989496E+02  0.00000000000E+00 0.  1.
         -6    2    1    2    0  503  0.16541279690E+03  0.49150868058E+02  0.17034972368E+03  0.29639142274E+03  0.17044543381E+03 0.  0.
        -24    2    3    3    0    0  0.77156529825E+02 -0.39059223104E+02  0.83564705112E+02  0.14432591610E+03  0.79800733795E+02 0.  0.
          6    2    1    2  501    0 -0.16541279690E+03 -0.49150868058E+02  0.66979676823E+03  0.71258704816E+03  0.17139250061E+03 0.  0.
         24    2    5    5    0    0 -0.10069283569E+03 -0.66182225033E+02  0.59201028590E+03  0.60986622586E+03  0.83315669426E+02 0.  0.
          5    1    5    5  501    0 -0.64719961208E+02  0.17031356975E+02  0.77786482329E+02  0.10272082229E+03  0.47000000000E+01 0. -1.
        -11    1    6    6    0    0  0.71470826328E+01 -0.29828941724E+02  0.88810086670E+02  0.93957852513E+02  0.00000000000E+00 0.  1.
         12    1    6    6    0    0 -0.10783991833E+03 -0.36353283309E+02  0.50320019923E+03  0.51590837335E+03  0.00000000000E+00 0. -1.
         -5    1    3    3    0  503  0.88256267076E+02  0.88210091162E+02  0.86785018565E+02  0.15206550664E+03  0.47000000000E+01 0.  1.
         11    1    4    4    0    0  0.81557530190E+02 -0.56761856066E+02  0.72317992183E+02  0.12289601714E+03  0.00000000000E+00 0. -1.
        -12    1    4    4    0    0 -0.44010003643E+01  0.17702632962E+02  0.11246712929E+02  0.21429898966E+02  0.00000000000E+00 0.  1.
</event>
<event>
12    1  0.8691829E-002  0.1829148E+03  0.7818608E-02  0.1165508E+00
         21   -1    0    0  501  502  0.00000000000E+00  0.00000000000E+00  0.10510522913E+03  0.10510522913E+03  0.00000000000E+00 0. -1.
         21   -1    0    0  502  503 -0.00000000000E+00 -0.00000000000E+00 -0.84373971428E+03  0.84373971428E+03  0.00000000000E+00 0. -1.
         -6    2    1    2    0  503  0.47946015518E+02  0.34339571355E+02 -0.74576760765E+03  0.76787183360E+03  0.17314676332E+03 0.  0.
        -24    2    3    3    0    0  0.87105400531E+02  0.20344752932E+02 -0.36186807282E+03  0.38169796703E+03  0.82119279917E+02 0.  0.
          6    2    1    2  501    0 -0.47946015518E+02 -0.34339571355E+02  0.71331224999E+01  0.18097310980E+03  0.17094548391E+03 0.  0.
         24    2    5    5    0    0  0.19538405010E+02 -0.65410945225E+02 -0.95856761570E+01  0.10467641580E+03  0.78771351461E+02 0.  0.
          5    1    5    5  501    0 -0.67484420528E+02  0.31071373869E+02  0.16718798657E+02  0.76296694009E+02  0.47000000000E+01 0. -1.
        -13    1    6    6    0    0 -0.16349837088E+01 -0.61353594025E+02  0.23051694547E+02  0.65561553467E+02  0.00000000000E+00 0.  1.
         14    1    6    6    0    0  0.21173388718E+02 -0.40573511997E+01 -0.32637370704E+02  0.39114862329E+02  0.00000000000E+00 0. -1.
         -5    1    3    3    0  503 -0.39159385013E+02  0.13994818423E+02 -0.38389953484E+03  0.38617386657E+03  0.47000000000E+01 0.  1.
         11    1    4    4    0    0  0.77674635723E+02  0.48504030196E+02 -0.26467654977E+03  0.28007082315E+03  0.00000000000E+00 0. -1.
        -12    1    4    4    0    0  0.94307648083E+01 -0.28159277264E+02 -0.97191523047E+02  0.10162714388E+03  0.00000000000E+00 0.  1.
</event>
<event>
12    1  0.8691829E-002  0.2584532E+03  0.7818608E-02  0.1108181E+00
         21   -1    0    0  503  502  0.00000000000E+00  0.00000000000E+00  0.94405706907E+02  0.94405706907E+02  0.00000000000E+00 0.  1.
         21   -1    0    0  501  503 -0.00000000000E+00 -0.00000000000E+00 -0.18098456204E+04  0.18098456204E+04  0.00000000000E+00 0.  1.
          6    2    1    2  501    0 -0.15944758947E+03 -0.10697045849E+03 -0.16009628000E+04  0.16215799846E+04  0.17196961040E+03 0.  0.
         24    2    3    3    0    0 -0.10550397662E+03  0.39096591110E+00 -0.10053718876E+04  0.10139723697E+04  0.78968931998E+02 0.  0.
         -6    2    1    2    0  502  0.15944758947E+03  0.10697045849E+03 -0.11447711352E+03  0.28267134267E+03  0.17300828208E+03 0.  0.
        -24    2    5    5    0    0  0.32752726085E+02 -0.94804864768E+01 -0.39293438088E+02  0.94822770558E+02  0.79276496200E+02 0.  0.
          5    1    3    3  501    0 -0.53943612850E+02 -0.10736142440E+03 -0.59559091238E+03  0.60760761493E+03  0.47000000000E+01 0. -1.
        -11    1    4    4    0    0 -0.83510891219E+02 -0.16775995085E+02 -0.45567505738E+03  0.46356796792E+03  0.00000000000E+00 0.  1.
         12    1    4    4    0    0 -0.21993085401E+02  0.17166960996E+02 -0.54969683021E+03  0.55040440178E+03  0.00000000000E+00 0. -1.
         -5    1    5    5    0  502  0.12669486339E+03  0.11645094497E+03 -0.75183675428E+02  0.18784857211E+03  0.47000000000E+01 0.  1.
         11    1    6    6    0    0  0.66629120963E+01  0.24524033949E+02  0.11895907950E+02  0.28059495090E+02  0.00000000000E+00 0. -1.
        -12    1    6    6    0    0  0.26089813989E+02 -0.34004520426E+02 -0.51189346039E+02  0.66763275468E+02  0.00000000000E+00 0.  1.
</event>
<event>
12    1  0.8691829E-002  0.3755039E+03  0.7818608E-02  0.1052700E+00
         21   -1    0    0  503  502  0.00000000000E+00  0.00000000000E+00  0.17618123511E+04  0.17618123511E+04  0.00000000000E+00 0.  1.
         21   -1    0    0  501  503 -0.00000000000E+00 -0.00000000000E+00 -0.21198472362E+03  0.21198472362E+03  0.00000000000E+00 0. -1.
          6    2    1    2  501    0 -0.24988908111E+03 -0.22122938815E+03 -0.47022606643E+01  0.37455777320E+03  0.16995416785E+03 0.  0.
         24    2    3    3    0    0 -0.64010993281E+02 -0.70407947668E+02  0.40693465721E+02  0.13087635738E+03  0.80112273792E+02 0.  0.
         -6    2    1    2    0  502  0.24988908111E+03  0.22122938815E+03  0.15545298881E+04  0.15992393015E+04  0.17209350761E+03 0.  0.
        -24    2    5    5    0    0  0.24274134696E+03  0.20407734276E+03  0.15429643385E+04  0.15768532634E+04  0.71807666218E+02 0.  0.
          5    1    3    3  501    0 -0.18587808783E+03 -0.15082144048E+03 -0.45395726386E+02  0.24368141583E+03  0.47000000000E+01 0. -1.
        -13    1    4    4    0    0 -0.47072865928E+02 -0.69708910665E+02  0.61381920526E+02  0.10412937674E+03  0.00000000000E+00 0.  1.
         14    1    4    4    0    0 -0.16938127352E+02 -0.69903700306E+00 -0.20688454805E+02  0.26746980636E+02  0.00000000000E+00 0. -1.
         -5    1    5    5    0  502  0.71477341546E+01  0.17152045397E+02  0.11565549578E+02  0.22386038102E+02  0.47000000000E+01 0.  1.
         11    1    6    6    0    0  0.70523171335E+02  0.38668375969E+02  0.27158123876E+03  0.28324041068E+03  0.00000000000E+00 0. -1.
        -12    1    6    6    0    0  0.17221817562E+03  0.16540896679E+03  0.12713830998E+04  0.12936128527E+04  0.00000000000E+00 0.  1.
</event>
<event>
12    1  0.8691829E-002  0.2067074E+03  0.7818608E-02  0.1144507E+00
         21   -1    0    0  503  502  0.00000000000E+00  0.00000000000E+00  0.43006284972E+03  0.43006284972E+03  0.00000000000E+00 0.  1.
         21   -1    0    0  501  503 -0.00000000000E+00 -0.00000000000E+00 -0.98687001866E+02  0.98687001866E+02  0.00000000000E+00 0. -1.
          6    2    1    2  501    0 -0.89242927576E+02 -0.65020519387E+02  0.17154832197E+03  0.26745921685E+03  0.17295559502E+03 0.  0.
         24    2    3    3    0    0  0.18846148472E+02 -0.44808380426E+02  0.67143291369E+02  0.11575463770E+03  0.80795707218E+02 0.  0.
         -6    2    1    2    0  502  0.89242927576E+02  0.65020519387E+02  0.15982752588E+03  0.26129063473E+03  0.17474549981E+03 0.  0.
        -24    2    5    5    0    0  0.11977948341E+03  0.13594970653E+02  0.13412847719E+03  0.19602502810E+03  0.76833686446E+02 0.  0.
          5    1    3    3  501    0 -0.10808907605E+03 -0.20212138961E+02  0.10440503060E+03  0.15170457915E+03  0.47000000000E+01 0. -1.
        -11    1    4    4    0    0  0.16019108495E+02 -0.30959734548E+02  0.85647675204E+02  0.92469677560E+02  0.00000000000E+00 0.  1.
         12    1    4    4    0    0  0.28270399770E+01 -0.13848645878E+02 -0.18504383835E+02  0.23284960141E+02  0.00000000000E+00 0. -1.
         -5    1    5    5    0  502 -0.30536555838E+02  0.51425548734E+02  0.25699048690E+02  0.65265606628E+02  0.47000000000E+01 0.  1.
         13    1    6    6    0    0  0.42639671658E+02 -0.17197282692E+02  0.10622703289E+02  0.47188239597E+02  0.00000000000E+00 0. -1.
        -14    1    6    6    0    0  0.77139811755E+02  0.30792253345E+02  0.12350577390E+03  0.14883678850E+03  0.00000000000E+00 0.  1.
</event>
<event>
12    1  0.8691829E-002  0.1865719E+03  0.7818608E-02  0.1161725E+00
         21   -1    0    0  503  502  0.00000000000E+00  0.00000000000E+00  0.23061379409E+03  0.23061379409E+03  0.00000000000E+00 0.  1.
         21   -1    0    0  501  503 -0.00000000000E+00 -0.00000000000E+00 -0.16006808109E+03  0.16006808109E+03  0.00000000000E+00 0.  1.
          6    2    1    2  501    0  0.16870770590E+02  0.68807297199E+02 -0.12611460299E+02  0.18641685991E+03  0.17196839733E+03 0.  0.
         24    2    3    3    0    0  0.10560526143E+02  0.10936453025E+03 -0.32867450129E+02  0.14040486733E+03  0.81000816684E+02 0.  0.
         -6    2    1    2    0  502 -0.16870770590E+02 -0.68807297199E+02  0.83157173306E+02  0.20426501527E+03  0.17259783875E+03 0.  0.
        -24    2    5    5    0    0  0.50077917133E+02 -0.72854661931E+02  0.56769938208E+02  0.13203701429E+03  0.79970917896E+02 0.  0.
          5    1    3    3  501    0  0.63102444472E+01 -0.40557233048E+02  0.20255989830E+02  0.46011992584E+02  0.47000000000E+01 0. -1.
        -11    1    4    4    0    0 -0.15456554298E+02 -0.50993045655E+01 -0.14093068491E+02  0.21529574016E+02  0.00000000000E+00 0.  1.
         12    1    4    4    0    0  0.26017080441E+02  0.11446383481E+03 -0.18774381638E+02  0.11887529331E+03  0.00000000000E+00 0. -1.
         -5    1    5    5    0  502 -0.66948687723E+02  0.40473647318E+01  0.26387235098E+02  0.72228000978E+02  0.47000000000E+01 0.  1.
         13    1    6    6    0    0  0.25684011685E+02  0.10766910730E+02  0.29943614255E+02  0.40892723773E+02  0.00000000000E+00 0. -1.
        -14    1    6    6    0    0  0.24393905449E+02 -0.83621572660E+02  0.26826323953E+02  0.91144290518E+02  0.00000000000E+00 0.  1.
</event>
<event>
12    1  0.8691829E-002  0.2146968E+03  0.7818608E-02  0.1138461E+00
         21   -1    0    0  501  502  0.00000000000E+00  0.00000000000E+00  0.27762557141E+03  0.27762557141E+03  0.00000000000E+00 0.  1.
         21   -1    0    0  502  503 -0.00000000000E+00 -0.00000000000E+00 -0.17847298908E+03  0.17847298908E+03  0.00000000000E+00 0.  1.
         -6    2    1    2    0  503 -0.31025242248E+02  0.11880084179E+03 -0.15504507365E+02  0.21525588241E+03  0.17612069583E+03 0.  0.
        -24    2    3    3    0    0 -0.10925173665E+02 -0.13610205787E+02  0.61205840068E+01  0.79511884922E+02  0.77330984567E+02 0.  0.
          6    2    1    2  501    0  0.31025242248E+02 -0.11880084179E+03  0.11465708970E+03  0.24084267807E+03  0.17257677044E+03 0.  0.
         24    2    5    5    0    0 -0.41299401043E+02 -0.29059037042E+02  0.71598766006E+02  0.11771447340E+03  0.78614539326E+02 0.  0.
          5    1    5    5  501    0  0.72324643291E+02 -0.89741804752E+02  0.43058323698E+02  0.12312820468E+03  0.47000000000E+01 0. -1.
        -11    1    6    6    0    0 -0.20673199598E+02 -0.21037051672E+02  0.86262848971E+02  0.91165880883E+02  0.00000000000E+00 0.  1.
         12    1    6    6    0    0 -0.20626201444E+02 -0.80219853700E+01 -0.14664082965E+02  0.26548592514E+02  0.00000000000E+00 0. -1.
         -5    1    3    3    0  503 -0.20100068583E+02  0.13241104758E+03 -0.21625091372E+02  0.13574399749E+03  0.47000000000E+01 0.  1.
         11    1    4    4    0    0  0.11125835615E+02  0.40007657338E+01 -0.30828844729E+02  0.33018298138E+02  0.00000000000E+00 0. -1.
        -12    1    4    4    0    0 -0.22051009280E+02 -0.17610971521E+02  0.36949428736E+02  0.46493586784E+02  0.00000000000E+00 0.  1.
</event>
<event>
12    1  0.8691829E-002  0.1954902E+03  0.7818608E-02  0.1156558E+00
         21   -1    0    0  503  502  0.00000000000E+00  0.00000000000E+00  0.14676482899E+03  0.14676482899E+03  0.00000000000E+00 0.  1.
         21   -1    0    0  501  503 -0.00000000000E+00 -0.00000000000E+00 -0.29643766807E+03  0.29643766807E+03  0.00000000000E+00 0.  1.
          6    2    1    2  501    0  0.90592320594E+01  0.59438446458E+02 -0.16655547680E+03  0.24698461110E+03  0.17217918766E+03 0.  0.
         24    2    3    3    0    0  0.10163245157E+02 -0.15357633160E+02 -0.14982484885E+03  0.17018828122E+03  0.78596547524E+02 0.  0.
         -6    2    1    2    0  502 -0.90592320594E+01 -0.59438446458E+02  0.16882637734E+02  0.19621788596E+03  0.18601461424E+03 0.  0.
        -24    2    5    5    0    0 -0.78720083865E+02 -0.47649193755E+02  0.14882201914E+02  0.12538207230E+03  0.83856346518E+02 0.  0.
          5    1    3    3  501    0 -0.11040130976E+01  0.74796079618E+02 -0.16730627953E+02  0.76796329879E+02  0.47000000000E+01 0. -1.
        -11    1    4    4    0    0 -0.30522783679E+02 -0.16387323500E+02 -0.10013368291E+03  0.10595725151E+03  0.00000000000E+00 0.  1.
         12    1    4    4    0    0  0.40686028836E+02  0.10296903396E+01 -0.49691165944E+02  0.64231029709E+02  0.00000000000E+00 0. -1.
         -5    1    5    5    0  502  0.69660851805E+02 -0.11789252702E+02  0.20004358200E+01  0.70835813661E+02  0.47000000000E+01 0.  1.
         11    1    6    6    0    0 -0.27153028386E+02 -0.22408953352E+02 -0.34766854295E+02  0.49479109718E+02  0.00000000000E+00 0. -1.
        -12    1    6    6    0    0 -0.51567055479E+02 -0.25240240403E+02  0.49649056209E+02  0.75902962583E+02  0.00000000000E+00 0.  1.
</event>
<event>
12    1  0.8691829E-002  0.1740762E+03  0.7818608E-02  0.1174870E+00
         21   -1    0    0  503  502  0.00000000000E+00  0.00000000000E+00  0.15232571483E+04  0.15232571483E+04  0.00000000000E+00 0. -1.
         21   -1    0    0  501  503 -0.00000000000E+00 -0.00000000000E+00 -0.20603817234E+02  0.20603817234E+02  0.00000000000E+00 0. -1.
          6    2    1    2  501    0 -0.16792321741E+01  0.13532901084E+02  0.55191760810E+03  0.57732026099E+03  0.16881847760E+03 0.  0.
         24    2    3    3    0    0  0.27740982164E+02  0.53541033623E+02  0.20072436643E+03  0.22260208739E+03  0.75001424389E+02 0.  0.
         -6    2    1    2    0  502  0.16792321741E+01 -0.13532901084E+02  0.95073572300E+03  0.96654070459E+03  0.17354123255E+03 0.  0.
        -24    2    5    5    0    0  0.57038677449E+02 -0.36294311719E+02  0.70627855560E+03  0.71481834425E+03  0.86978039741E+02 0.  0.
          5    1    3    3  501    0 -0.29420214338E+02 -0.40008132538E+02  0.35119324167E+03  0.35471817359E+03  0.47000000000E+01 0. -1.
        -13    1    4    4    0    0  0.37846577006E+02 -0.22125250225E+01  0.60937973580E+02  0.71768344568E+02  0.00000000000E+00 0.  1.
         14    1    4    4    0    0 -0.10105594841E+02  0.55753558645E+02  0.13978639285E+03  0.15083374282E+03  0.00000000000E+00 0. -1.
         -5    1    5    5    0  502 -0.55359445275E+02  0.22761410635E+02  0.24445716741E+03  0.25172236033E+03  0.47000000000E+01 0.  1.
         13    1    6    6    0    0  0.26415734956E+02 -0.73084422586E+01  0.48649252632E+02  0.55838643995E+02  0.00000000000E+00 0. -1.
        -14    1    6    6    0    0  0.30622942493E+02 -0.28985869460E+02  0.65762930297E+03  0.65897970026E+03  0.00000000000E+00 0.  1.
</event>
<event>
12    1  0.8691829E-002  0.3750106E+03  0.7818608E-02  0.1052958E+00
         21   -1    0    0  503  502  0.00000000000E+00  0.00000000000E+00  0.68978739386E+03  0.68978739386E+03  0.00000000000E+00 0. -1.
         21   -1    0    0  501  503 -0.00000000000E+00 -0.00000000000E+00 -0.20376108673E+03  0.20376108673E+03  0.00000000000E+00 0.  1.
          6    2    1    2  501    0  0.31359173157E+03 -0.11367226012E+03  0.21505847210E+03  0.43229974034E+03  0.17138191923E+03 0.  0.
         24    2    3    3    0    0  0.28636114847E+03 -0.57616160384E+02  0.12963696612E+03  0.32645686311E+03  0.66678416294E+02 0.  0.
         -6    2    1    2    0  502 -0.31359173157E+03  0.11367226012E+03  0.27096783503E+03  0.46124874025E+03  0.16752813475E+03 0.  0.
        -24    2    5    5    0    0 -0.22959946774E+03  0.70871872871E+02  0.25797385075E+03  0.36597278757E+03  0.98218305924E+02 0.  0.
          5    1    3    3  501    0  0.27230583106E+02 -0.56056099741E+02  0.85421505986E+02  0.10584287723E+03  0.47000000000E+01 0. -1.
        -13    1    4    4    0    0  0.72869434536E+02 -0.43835798099E+02  0.27371960913E+02  0.89335076699E+02  0.00000000000E+00 0.  1.
         14    1    4    4    0    0  0.21349171393E+03 -0.13780362285E+02  0.10226500520E+03  0.23712178641E+03  0.00000000000E+00 0. -1.
         -5    1    5    5    0  502 -0.83992263830E+02  0.42800387253E+02  0.12993984280E+02  0.95275952684E+02  0.47000000000E+01 0.  1.
         13    1    6    6    0    0 -0.90938949171E+02  0.75754541337E+02  0.14412242945E+03  0.18649374703E+03  0.00000000000E+00 0. -1.
        -14    1    6    6    0    0 -0.13866051857E+03 -0.48826684659E+01  0.11385142129E+03  0.17947904054E+03  0.00000000000E+00 0.  1.
</event>
<event>
12    1  0.8691829E-002  0.1951557E+03  0.7818608E-02  0.1153991E+00
         21   -1    0    0  503  502  0.00000000000E+00  0.00000000000E+00  0.27800686678E+03  0.27800686678E+03  0.00000000000E+00 0.  1.
         21   -1    0    0  501  503 -0.00000000000E+00 -0.00000000000E+00 -0.13726067319E+03  0.13726067319E+03  0.00000000000E+00 0.  1.
          6    2    1    2  501    0  0.70853572701E+01  0.89564752787E+02  0.56912317791E+02  0.20328489293E+03  0.17324459168E+03 0.  0.
         24    2    3    3    0    0 -0.45978519302E+02  0.77179818487E+02  0.80587381269E+02  0.14368824684E+03  0.77982290557E+02 0.  0.
         -6    2    1    2    0  502 -0.70853572701E+01 -0.89564752787E+02  0.83833875794E+02  0.21198264705E+03  0.17273238460E+03 0.  0.
        -24    2    5    5    0    0  0.39968751702E+02 -0.11380950968E+01  0.57419896739E+02  0.10828524471E+03  0.82642926545E+02 0.  0.
          5    1    3    3  501    0  0.53063876572E+02  0.12384934300E+02 -0.23675063478E+02  0.59596646090E+02  0.47000000000E+01 0. -1.
        -13    1    4    4    0    0 -0.36504893015E+02 -0.95682433478E+00  0.43153774056E+02  0.56531150193E+02  0.00000000000E+00 0.  1.
         14    1    4    4    0    0 -0.94736262868E+01  0.78136642822E+02  0.37433607213E+02  0.87157096644E+02  0.00000000000E+00 0. -1.
         -5    1    5    5    0  502 -0.47054108972E+02 -0.88426657690E+02  0.26413979055E+02  0.10369740233E+03  0.47000000000E+01 0.  1.
         11    1    6    6    0    0  0.49275889610E+02 -0.12701124710E+02  0.71544489110E+02  0.87795477034E+02  0.00000000000E+00 0. -1.
        -12    1    6    6    0    0 -0.93071379072E+01  0.11563029613E+02 -0.14124592371E+02  0.20489767678E+02  0.00000000000E+00 0.  1.
</event>
<event>
12    1  0.8691829E-002  0.2068252E+03  0.7818608E-02  0.1145646E+00
         21   -1    0    0  503  502  0.00000000000E+00  0.00000000000E+00  0.11384347963E+04  0.11384347963E+04  0.00000000000E+00 0. -1.
         21   -1    0    0  501  503 -0.00000000000E+00 -0.00000000000E+00 -0.12310494285E+03  0.12310494285E+03  0.00000000000E+00 0.  1.
          6    2    1    2  501    0  0.14963892038E+02 -0.11163969005E+03 -0.24951274374E+02  0.20089773074E+03  0.16446882277E+03 0.  0.
         24    2    3    3    0    0 -0.53710433292E+02 -0.57718754602E+02  0.12422393469E+02  0.10580561073E+03  0.69456793234E+02 0.  0.
         -6    2    1    2    0  502 -0.14963892038E+02  0.11163969005E+03  0.10402811279E+04  0.10606420084E+04  0.17346269519E+03 0.  0.
        -24    2    5    5    0    0 -0.32913414345E+02  0.86280843735E+01  0.70682048935E+03  0.71113998600E+03  0.70477931545E+02 0.  0.
          5    1    3    3  501    0  0.68674325330E+02 -0.53920935448E+02 -0.37373667842E+02  0.95092120005E+02  0.47000000000E+01 0. -1.
        -13    1    4    4    0    0  0.32065167046E+01 -0.38468126010E+02  0.22799355557E+02  0.44831786513E+02  0.00000000000E+00 0.  1.
         14    1    4    4    0    0 -0.56916949996E+02 -0.19250628592E+02 -0.10376962089E+02  0.60973824222E+02  0.00000000000E+00 0. -1.
         -5    1    5    5    0  502  0.17949522307E+02  0.10301160568E+03  0.33346063851E+03  0.34950202244E+03  0.47000000000E+01 0.  1.
         11    1    6    6    0    0 -0.40274009060E+02  0.33183382238E+02  0.43707354009E+03  0.44017770515E+03  0.00000000000E+00 0. -1.
        -12    1    6    6    0    0  0.73605947150E+01 -0.24555297864E+02  0.26974694926E+03  0.27096228085E+03  0.00000000000E+00 0.  1.
</event>
<event>
12    1  0.8691829E-002  0.1980977E+03  0.7818608E-02  0.1151527E+00
         21   -1    0    0  501  502  0.00000000000E+00  0.00000000000E+00  0.19416332556E+03  0.19416332556E+03  0.00000000000E+00 0.  1.
         21   -1    0    0  502  503 -0.00000000000E+00 -0.00000000000E+00 -0.33041330458E+03  0.33041330458E+03  0.00000000000E+00 0. -1.
         -6    2    1    2    0  503  0.94732959781E+02  0.21152979058E+02  0.95924974554E+02  0.21937523269E+03  0.17176178208E+03 0.  0.
        -24    2    3    3    0    0  0.90417279916E+02 -0.30506623813E+01  0.10991467854E+01  0.12130143923E+03  0.80797524633E+02 0.  0.
          6    2    1    2  501    0 -0.94732959781E+02 -0.21152979058E+02 -0.23217495357E+03  0.30520139745E+03  0.17268729469E+03 0.  0.
         24    2    5    5    0    0 -0.86968224129E+01 -0.55755280314E+02 -0.16138618256E+03  0.18844234518E+03  0.79251066448E+02 0.  0.
          5    1    5    5  501    0 -0.86036137368E+02  0.34602301256E+02 -0.70788771018E+02  0.11675905227E+03  0.47000000000E+01 0. -1.
        -11    1    6    6    0    0  0.15671419827E+02 -0.37690174524E+02 -0.23168808575E+02  0.46935448713E+02  0.00000000000E+00 0.  1.
         12    1    6    6    0    0 -0.24368242240E+02 -0.18065105790E+02 -0.13821737398E+03  0.14150689646E+03  0.00000000000E+00 0. -1.
         -5    1    3    3    0  503  0.43156798651E+01  0.24203641440E+02  0.94825827769E+02  0.98073793460E+02  0.47000000000E+01 0.  1.
         13    1    4    4    0    0  0.10564364494E+03  0.54709185233E+00  0.56111544351E+00  0.10564655165E+03  0.00000000000E+00 0. -1.
        -14    1    4    4    0    0 -0.15226365022E+02 -0.35977542337E+01  0.53803134185E+00  0.15654887577E+02  0.00000000000E+00 0.  1.
</event>
<event>
12    1  0.8691829E-002  0.2524725E+03  0.7818608E-02  0.1111931E+00
         21   -1    0    0  501  502  0.00000000000E+00  0.00000000000E+00  0.10288239508E+04  0.10288239508E+04  0.00000000000E+00 0.  1.
         21   -1    0    0  502  503 -0.00000000000E+00 -0.00000000000E+00 -0.61677879846E+02  0.61677879846E+02  0.00000000000E+00 0.  1.
         -6    2    1    2    0  503  0.64575472916E+02 -0.16798350835E+03  0.48160199798E+03  0.54376726437E+03  0.17707033223E+03 0.  0.
        -24    2    3    3    0    0 -0.28022839417E+02 -0.61970909426E+02  0.15764626515E+03  0.19052156317E+03  0.82586003500E+02 0.  0.
          6    2    1    2  501    0 -0.64575472916E+02  0.16798350835E+03  0.48554407296E+03  0.54673456627E+03  0.17543428510E+03 0.  0.
         24    2    5    5    0    0  0.11626691675E+02  0.14644663310E+03  0.37270506858E+03  0.40880219953E+03  0.81414825997E+02 0.  0.
          5    1    5    5  501    0 -0.76202164590E+02  0.21536875244E+02  0.11283900439E+03  0.13793236674E+03  0.47000000000E+01 0. -1.
        -13    1    6    6    0    0  0.42282434754E+01  0.44653332447E+01  0.10933379727E+03  0.10950660468E+03  0.00000000000E+00 0.  1.
         14    1    6    6    0    0  0.73984481992E+01  0.14198129986E+03  0.26337127131E+03  0.29929559485E+03  0.00000000000E+00 0. -1.
         -5    1    3    3    0  503  0.92598312333E+02 -0.10601259892E+03  0.32395573283E+03  0.35324570119E+03  0.47000000000E+01 0.  1.
         13    1    4    4    0    0 -0.41481746265E+02 -0.35645174784E+01  0.95502272024E+02  0.10418313213E+03  0.00000000000E+00 0. -1.
        -14    1    4    4    0    0  0.13458906847E+02 -0.58406391948E+02  0.62143993124E+02  0.86338431045E+02  0.00000000000E+00 0.  1.
</event>
<event>
12    1  0.8691829E-002  0.2492986E+03  0.7818608E-02  0.1113788E+00
         21   -1    0    0  501  502  0.00000000000E+00  0.00000000000E+00  0.17392817795E+03  0.17392817795E+03  0.00000000000E+00 0.  1.
         21   -1    0    0  502  503 -0.00000000000E+00 -0.00000000000E+00 -0.74126526265E+03  0.74126526265E+03  0.00000000000E+00 0.  1.
         -6    2    1    2    0  503 -0.16753226503E+03  0.64781310637E+02 -0.61307777567E+03  0.66173334152E+03  0.17251950097E+03 0.  0.
        -24    2    3    3    0    0 -0.18900161352E+03  0.76815744926E+02 -0.58298651990E+03  0.62257552995E+03  0.78132832529E+02 0.  0.
          6    2    1    2  501    0  0.16753226503E+03 -0.64781310637E+02  0.45740690978E+02  0.25346009908E+03  0.17287606248E+03 0.  0.
         24    2    5    5    0    0  0.12030786137E+03  0.11093205086E+02 -0.13001251562E+02  0.14640967987E+03  0.81668360539E+02 0.  0.
          5    1    5    5  501    0  0.47224403666E+02 -0.75874515724E+02  0.58741942540E+02  0.10705041920E+03  0.47000000000E+01 0. -1.
        -13    1    6    6    0    0  0.88018234617E+02 -0.43610035870E+01  0.27536943705E+02  0.92328279774E+02  0.00000000000E+00 0.  1.
         14    1    6    6    0    0  0.32289626750E+02  0.15454208673E+02 -0.40538195267E+02  0.54081400101E+02  0.00000000000E+00 0. -1.
         -5    1    3    3    0  503  0.21469348486E+02 -0.12034434288E+02 -0.30091255772E+02  0.39157811571E+02  0.47000000000E+01 0.  1.
         13    1    4    4    0    0 -0.10003077365E+03  0.15163398112E+02 -0.19384129162E+03  0.21865619281E+03  0.00000000000E+00 0. -1.
        -14    1    4    4    0    0 -0.88970839872E+02  0.61652346814E+02 -0.38914522828E+03  0.40391933713E+03  0.00000000000E+00 0.  1.
</event>
<event>
12    1  0.8691829E-002  0.2544076E+03  0.7818608E-02  0.1110579E+00
         21   -1    0    0  501  502  0.00000000000E+00  0.00000000000E+00  0.58237804291E+02  0.58237804291E+02  0.00000000000E+00 0. -1.
         21   -1    0    0  502  503 -0.00000000000E+00 -0.00000000000E+00 -0.14011483634E+04  0.14011483634E+04  0.00000000000E+00 0.  1.
         -6    2    1    2    0  503  0.18733906303E+03  0.54428488550E+01 -0.10035652171E+04  0.10352653294E+04  0.17177196525E+03 0.  0.
        -24    2    3    3    0    0  0.17564667313E+03  0.40970404076E+02 -0.93424750432E+03  0.95636061171E+03  0.96316626317E+02 0.  0.
          6    2    1    2  501    0 -0.18733906303E+03 -0.54428488550E+01 -0.33934534197E+03  0.42412083830E+03  0.17203974896E+03 0.  0.
         24    2    5    5    0    0 -0.90798593777E+02  0.61377000185E+02 -0.20624800963E+03  0.24657663450E+03  0.79058677059E+02 0.  0.
          5    1    5    5  501    0 -0.96540469249E+02 -0.66819849040E+02 -0.13309733233E+03  0.17754420380E+03  0.47000000000E+01 0. -1.
        -13    1    6    6    0    0  0.13351874565E+00 -0.68836096931E+01  0.37003888098E+01  0.78163154367E+01  0.00000000000E+00 0.  1.
         14    1    6    6    0    0 -0.90932112522E+02  0.68260609878E+02 -0.20994839844E+03  0.23876031906E+03  0.00000000000E+00 0. -1.
         -5    1    3    3    0  503  0.11692389894E+02 -0.35527555221E+02 -0.69317712779E+02  0.78904717643E+02  0.47000000000E+01 0.  1.
         11    1    4    4    0    0  0.14453851634E+03  0.61456912497E+02 -0.60663099813E+03  0.62663346758E+03  0.00000000000E+00 0. -1.
        -12    1    4    4    0    0  0.31108156792E+02 -0.20486508421E+02 -0.32761650619E+03  0.32972714413E+03  0.00000000000E+00 0.  1.
</event>
<event>
12    1  0.8691829E-002  0.2017104E+03  0.7818608E-02  0.1148329E+00
         21   -1    0    0  503  502  0.00000000000E+00  0.00000000000E+00  0.27449527478E+03  0.27449527478E+03  0.00000000000E+00 0. -1.
         21   -1    0    0  501  503 -0.00000000000E+00 -0.00000000000E+00 -0.16197540700E+03  0.16197540700E+03  0.00000000000E+00 0.  1.
          6    2    1    2  501    0  0.81102229906E+02 -0.65069839600E+02 -0.75423651096E+01  0.20173244307E+03  0.17270621180E+03 0.  0.
         24    2    3    3    0    0  0.34188453605E+02  0.32228640176E+02  0.12767731314E+02  0.91721140965E+02  0.77731699644E+02 0.  0.
         -6    2    1    2    0  502 -0.81102229906E+02  0.65069839600E+02  0.12006223289E+03  0.23473823872E+03  0.17284514812E+03 0.  0.
        -24    2    5    5    0    0 -0.19674383199E+02  0.75557949136E+02  0.13087812926E+03  0.17131541627E+03  0.78254725755E+02 0.  0.
          5    1    3    3  501    0  0.46913776301E+02 -0.97298479776E+02 -0.20310096424E+02  0.11001130210E+03  0.47000000000E+01 0. -1.
        -11    1    4    4    0    0  0.32417081355E+02  0.12438271686E+02 -0.29148205429E+02  0.45334265692E+02  0.00000000000E+00 0.  1.
         12    1    4    4    0    0  0.17713722508E+01  0.19790368490E+02  0.41915936743E+02  0.46386875274E+02  0.00000000000E+00 0. -1.
         -5    1    5    5    0  502 -0.61427846707E+02 -0.10488109535E+02 -0.10815896364E+02  0.63422822445E+02  0.47000000000E+01 0.  1.
         11    1    6    6    0    0 -0.39479922389E+01 -0.41926577810E+01  0.68787002879E+02  0.69027652336E+02  0.00000000000E+00 0. -1.
        -12    1    6    6    0    0 -0.15726390960E+02  0.79750606917E+02  0.62091126379E+02  0.10228776394E+03  0.00000000000E+00 0.  1.
</event>
<event>
12    1  0.8691829E-002  0.3299615E+03  0.7818608E-02  0.1072621E+00
         21   -1    0    0  501  502  0.00000000000E+00  0.00000000000E+00  0.81017902751E+02  0.81017902751E+02  0.00000000000E+00 0. -1.
         21   -1    0    0  502  503 -0.00000000000E+00 -0.00000000000E+00 -0.19553181362E+04  0.19553181362E+04  0.00000000000E+00 0. -1.
         -6    2    1    2    0  503 -0.26705395310E+03  0.17159550546E+02 -0.35639414826E+03  0.48568653138E+03  0.19303459225E+03 0.  0.
        -24    2    3    3    0    0 -0.23686583842E+03 -0.20599145140E+02 -0.19827705804E+03  0.32027750627E+03  0.82061800403E+02 0.  0.
          6    2    1    2  501    0  0.26705395310E+03 -0.17159550546E+02 -0.15179060852E+04  0.15506495076E+04  0.16989039950E+03 0.  0.
         24    2    5    5    0    0  0.12926692327E+03 -0.65392565524E+02 -0.94624194908E+03  0.96062097959E+03  0.80204209041E+02 0.  0.
          5    1    5    5  501    0  0.13778702983E+03  0.48233014978E+02 -0.57166413611E+03  0.59002852798E+03  0.47000000000E+01 0. -1.
        -13    1    6    6    0    0  0.25230539226E+02 -0.37931277027E+01 -0.41546721508E+03  0.41624989458E+03  0.00000000000E+00 0.  1.
         14    1    6    6    0    0  0.10403638405E+03 -0.61599437822E+02 -0.53077473400E+03  0.54437108501E+03  0.00000000000E+00 0. -1.
         -5    1    3    3    0  503 -0.30188114688E+02  0.37758695687E+02 -0.15811709022E+03  0.16540902511E+03  0.47000000000E+01 0.  1.
         11    1    4    4    0    0 -0.19148928070E+03 -0.11097290117E+01 -0.11474593926E+03  0.22323979640E+03  0.00000000000E+00 0. -1.
        -12    1    4    4    0    0 -0.45376557720E+02 -0.19489416129E+02 -0.83531118776E+02  0.97037709863E+02  0.00000000000E+00 0.  1.
</event>
<event>
12    1  0.8691829E-002  0.2591130E+03  0.7818608E-02  0.1108273E+00
         21   -1    0    0  503  502  0.00000000000E+00  0.00000000000E+00  0.99456965694E+02  0.99456965694E+02  0.00000000000E+00 0.  1.
         21   -1    0    0  501  503 -0.00000000000E+00 -0.00000000000E+00 -0.70078639794E+03  0.70078639794E+03  0.00000000000E+00 0. -1.
          6    2    1    2  501    0  0.86268535022E+02  0.17214232428E+03 -0.38903925791E+03  0.46527069407E+03  0.16748144560E+03 0.  0.
         24    2    3    3    0    0  0.11258637558E+02  0.25822443255E+02 -0.81232733875E+02  0.11626791680E+03  0.78268230651E+02 0.  0.
         -6    2    1    2    0  502 -0.86268535022E+02 -0.17214232428E+03 -0.21229017433E+03  0.33497266956E+03  0.17339068975E+03 0.  0.
        -24    2    5    5    0    0 -0.49673311056E+02 -0.19342099577E+03 -0.18981960041E+03  0.28681657992E+03  0.79706652055E+02 0.  0.
          5    1    3    3  501    0  0.75009897464E+02  0.14631988103E+03 -0.30780652404E+03  0.34900277727E+03  0.47000000000E+01 0. -1.
        -11    1    4    4    0    0 -0.86423579349E+01  0.41821671810E+02 -0.14966157765E+02  0.45251833796E+02  0.00000000000E+00 0.  1.
         12    1    4    4    0    0  0.19900995493E+02 -0.15999228556E+02 -0.66266576110E+02  0.71016083005E+02  0.00000000000E+00 0. -1.
         -5    1    5    5    0  502 -0.36595223966E+02  0.21278671484E+02 -0.22470573924E+02  0.48156089643E+02  0.47000000000E+01 0.  1.
         11    1    6    6    0    0  0.28776959343E+01 -0.79237496582E+02 -0.11765275383E+03  0.14187682151E+03  0.00000000000E+00 0. -1.
        -12    1    6    6    0    0 -0.52551006990E+02 -0.11418349919E+03 -0.72166846579E+02  0.14493975841E+03  0.00000000000E+00 0.  1.
</event>
<event>
12    1  0.8691829E-002  0.1875154E+03  0.7818608E-02  0.1161156E+00
         21   -1    0    0  501  502  0.00000000000E+00  0.00000000000E+00  0.46811787283E+03  0.46811787283E+03  0.00000000000E+00 0. -1.
         21   -1    0    0  502  503 -0.00000000000E+00 -0.00000000000E+00 -0.12864478785E+03  0.12864478785E+03  0.00000000000E+00 0. -1.
         -6    2    1    2    0  503  0.45934351618E+02 -0.58050809060E+02 -0.24583757413E+02  0.18725149430E+03  0.17023190036E+03 0.  0.
        -24    2    3    3    0    0  0.80792320616E+02 -0.30182796899E+02  0.25412927374E+02  0.12006918566E+03  0.79576329198E+02 0.  0.
          6    2    1    2  501    0 -0.45934351618E+02  0.58050809060E+02  0.36405684239E+03  0.40951116638E+03  0.17228508294E+03 0.  0.
         24    2    5    5    0    0 -0.61508884012E+02  0.26124844244E+02  0.35826781349E+03  0.37321466318E+03  0.80420820241E+02 0.  0.
          5    1    5    5  501    0  0.15574532394E+02  0.31925964816E+02  0.57890289014E+01  0.36296503197E+02  0.47000000000E+01 0. -1.
        -11    1    6    6    0    0 -0.49435146829E+02 -0.22594404211E+02  0.18301733344E+03  0.19091800644E+03  0.00000000000E+00 0.  1.
         12    1    6    6    0    0 -0.12073737183E+02  0.48719248455E+02  0.17525048005E+03  0.18229665674E+03  0.00000000000E+00 0. -1.
         -5    1    3    3    0  503 -0.34857968998E+02 -0.27868012161E+02 -0.49996684787E+02  0.67182308640E+02  0.47000000000E+01 0.  1.
         13    1    4    4    0    0  0.29773370891E+02 -0.39161495786E+02 -0.18097806546E+02  0.52417620780E+02  0.00000000000E+00 0. -1.
        -14    1    4    4    0    0  0.51018949725E+02  0.89786988867E+01  0.43510733921E+02  0.67651564882E+02  0.00000000000E+00 0.  1.
</event>
<event>
12    1  0.8691829E-002  0.3278346E+03  0.7818608E-02  0.1072107E+00
         21   -1    0    0  503  502  0.00000000000E+00  0.00000000000E+00  0.86298700683E+03  0.86298700683E+03  0.00000000000E+00 0. -1.
         21   -1    0    0  501  503 -0.00000000000E+00 -0.00000000000E+00 -0.24463554215E+03  0.24463554215E+03  0.00000000000E+00 0.  1.
          6    2    1    2  501    0  0.27714234759E+03 -0.34481696215E+02 -0.78920816280E+02  0.33712648357E+03  0.17154854264E+03 0.  0.
         24    2    3    3    0    0  0.27611452625E+03 -0.68103873017E+02 -0.69612621959E+02  0.30190944691E+03  0.73661576617E+02 0.  0.
         -6    2    1    2    0  502 -0.27714234759E+03  0.34481696215E+02  0.69727228096E+03  0.77049606541E+03  0.17169357828E+03 0.  0.
        -24    2    5    5    0    0 -0.74851498438E+02 -0.21862942823E+02  0.31831953110E+03  0.33722526947E+03  0.79453278076E+02 0.  0.
          5    1    3    3  501    0  0.10278213353E+01  0.33622176802E+02 -0.93081943208E+01  0.35217036660E+02  0.47000000000E+01 0. -1.
        -11    1    4    4    0    0  0.11568560058E+03  0.17135992003E+01 -0.63905791644E+01  0.11587464824E+03  0.00000000000E+00 0.  1.
         12    1    4    4    0    0  0.16042892568E+03 -0.69817472217E+02 -0.63222042794E+02  0.18603479867E+03  0.00000000000E+00 0. -1.
         -5    1    5    5    0  502 -0.20229084915E+03  0.56344639037E+02  0.37895274985E+03  0.43327079595E+03  0.47000000000E+01 0.  1.
         11    1    6    6    0    0 -0.58106522521E+02  0.25506793579E+01  0.29160669342E+03  0.29735052980E+03  0.00000000000E+00 0. -1.
        -12    1    6    6    0    0 -0.16744975917E+02 -0.24413622181E+02  0.26712837687E+02  0.39874739670E+02  0.00000000000E+00 0.  1.
</event>
<event>
12    1  0.8691829E-002  0.1788828E+03  0.7818608E-02  0.1169090E+00
         21   -1    0    0  503  502  0.00000000000E+00  0.00000000000E+00  0.18554760191E+04  0.18554760191E+04  0.00000000000E+00 0.  1.
         21   -1    0    0  501  503 -0.00000000000E+00 -0.00000000000E+00 -0.24385142884E+02  0.24385142884E+02  0.00000000000E+00 0.  1.
          6    2    1    2  501    0 -0.89525885674E+01 -0.43328726960E+02  0.40265922759E+03  0.44027232645E+03  0.17247533288E+03 0.  0.
         24    2    3    3    0    0  0.73834836922E+01 -0.87181075939E+02  0.20558457261E+03  0.23766333010E+03  0.81017196589E+02 0.  0.
         -6    2    1    2    0  502  0.89525885674E+01  0.43328726960E+02  0.14284316486E+04  0.14395888355E+04  0.17332487756E+03 0.  0.
        -24    2    5    5    0    0  0.32926783725E+02 -0.17210641381E+02  0.11639550769E+04  0.11671742174E+04  0.78255054703E+02 0.  0.
          5    1    3    3  501    0 -0.16336072260E+02  0.43852348979E+02  0.19707465498E+03  0.20260899635E+03  0.47000000000E+01 0. -1.
        -13    1    4    4    0    0  0.35843274962E+02 -0.78056319411E+02  0.17477019005E+03  0.19473610012E+03  0.00000000000E+00 0.  1.
         14    1    4    4    0    0 -0.28459791270E+02 -0.91247565283E+01  0.30814382565E+02  0.42927229979E+02  0.00000000000E+00 0. -1.
         -5    1    5    5    0  502 -0.23974195158E+02  0.60539368341E+02  0.26447657174E+03  0.27241461809E+03  0.47000000000E+01 0.  1.
         11    1    6    6    0    0  0.11347933954E+02 -0.22723663915E+02  0.10658580151E+03  0.10957040472E+03  0.00000000000E+00 0. -1.
        -12    1    6    6    0    0  0.21578849771E+02  0.55130225342E+01  0.10573692754E+04  0.10576038127E+04  0.00000000000E+00 0.  1.
</event>
<event>
12    1  0.8691829E-002  0.1947681E+03  0.7818608E-02  0.1154515E+00
         21   -1    0    0  503  502  0.00000000000E+00  0.00000000000E+00  0.23357460036E+04  0.23357460036E+04  0.00000000000E+00 0. -1.
         21   -1    0    0  501  503 -0.00000000000E+00 -0.00000000000E+00 -0.17386214795E+02  0.17386214795E+02  0.00000000000E+00 0.  1.
          6    2    1    2  501    0 -0.88804442877E+02  0.27826319590E+02  0.14715204560E+04  0.14841837409E+04  0.16961247304E+03 0.  0.
         24    2    3    3    0    0  0.16942440862E+02  0.10190358864E+02  0.77580644923E+03  0.78024233720E+03  0.80694289692E+02 0.  0.
         -6    2    1    2    0  502  0.88804442877E+02 -0.27826319590E+02  0.84683933281E+03  0.86894847757E+03  0.17109666251E+03 0.  0.
        -24    2    5    5    0    0  0.11592300754E+01  0.32259465160E+02  0.33157648154E+03  0.34282122988E+03  0.80879018522E+02 0.  0.
          5    1    3    3  501    0 -0.10574688374E+03  0.17635960726E+02  0.69571400681E+03  0.70394140367E+03  0.47000000000E+01 0. -1.
        -13    1    4    4    0    0  0.12921700800E+02 -0.88021863760E+01  0.27118582572E+02  0.31302817082E+02  0.00000000000E+00 0.  1.
         14    1    4    4    0    0  0.40207400613E+01  0.18992545240E+02  0.74868786665E+03  0.74893952012E+03  0.00000000000E+00 0. -1.
         -5    1    5    5    0  502  0.87645212801E+02 -0.60085784750E+02  0.51526285127E+03  0.52612724769E+03  0.47000000000E+01 0.  1.
         11    1    6    6    0    0  0.14984605588E+02  0.27459341839E+02  0.32545941939E+03  0.32695930561E+03  0.00000000000E+00 0. -1.
        -12    1    6    6    0    0 -0.13825375512E+02  0.48001233214E+01  0.61170621517E+01  0.15861924263E+02  0.00000000000E+00 0.  1.
</event>
<event>
12    1  0.8691829E-002  0.1922108E+03  0.7818608E-02  0.1156649E+00
         21   -1    0    0  501  502  0.00000000000E+00  0.00000000000E+00  0.12230238906E+03  0.12230238906E+03  0.00000000000E+00 0.  1.
         21   -1    0    0  502  503 -0.00000000000E+00 -0.00000000000E+00 -0.37728595835E+03  0.37728595835E+03  0.00000000000E+00 0.  1.
         -6    2    1    2    0  503 -0.82191628975E+02 -0.16090423103E+02 -0.23968815453E+03  0.30676989055E+03  0.17217139348E+03 0.  0.
        -24    2    3    3    0    0 -0.90243692395E+02 -0.10863366103E+02 -0.74716121341E+02  0.14145195569E+03  0.78512548298E+02 0.  0.
          6    2    1    2  501    0  0.82191628975E+02  0.16090423103E+02 -0.15295414759E+02  0.19281845686E+03  0.17300474561E+03 0.  0.
         24    2    5    5    0    0  0.44872647104E+02 -0.65098954590E+02 -0.31178419178E+02  0.10194061969E+03  0.56288256095E+02 0.  0.
          5    1    5    5  501    0  0.37318981871E+02  0.81189377693E+02  0.15883004419E+02  0.90877837163E+02  0.47000000000E+01 0. -1.
        -13    1    6    6    0    0 -0.93280535848E+01 -0.92453067621E+01  0.74002329895E+01  0.15074870782E+02  0.00000000000E+00 0.  1.
         14    1    6    6    0    0  0.54200700689E+02 -0.55853647828E+02 -0.38578652167E+02  0.86865748911E+02  0.00000000000E+00 0. -1.
         -5    1    3    3    0  503  0.80520634191E+01 -0.52270570002E+01 -0.16497203319E+03  0.16531793486E+03  0.47000000000E+01 0.  1.
         11    1    4    4    0    0 -0.91374547171E+01  0.27443135637E+02 -0.91191912850E+01  0.30327848951E+02  0.00000000000E+00 0. -1.
        -12    1    4    4    0    0 -0.81106237677E+02 -0.38306501740E+02 -0.65596930056E+02  0.11112410674E+03  0.00000000000E+00 0.  1.
</event>
<event>
12    1  0.8691829E-002  0.1770535E+03  0.7818608E-02  0.1170886E+00
         21   -1    0    0  501  502  0.00000000000E+00  0.00000000000E+00  0.25859846278E+03  0.25859846278E+03  0.00000000000E+00 0. -1.
         21   -1    0    0  502  503 -0.00000000000E+00 -0.00000000000E+00 -0.12561123225E+03  0.12561123225E+03  0.00000000000E+00 0. -1.
         -6    2    1    2    0  503  0.36096953136E+02 -0.72208643338E+01  0.28530606352E+02  0.17933752156E+03  0.17318435331E+03 0.  0.
        -24    2    3    3    0    0  0.65159572038E+02 -0.56425344459E+02  0.10963410530E+02  0.11936742025E+03  0.81846168643E+02 0.  0.
          6    2    1    2  501    0 -0.36096953136E+02  0.72208643338E+01  0.10445662417E+03  0.20487217348E+03  0.17235512822E+03 0.  0.
         24    2    5    5    0    0  0.13775632735E+02 -0.23754034500E+02 -0.22655385182E+01  0.82977016931E+02  0.78268962314E+02 0.  0.
          5    1    5    5  501    0 -0.49872585871E+02  0.30974898833E+02  0.10672216269E+03  0.12189515654E+03  0.47000000000E+01 0. -1.
        -11    1    6    6    0    0  0.43616698741E+02  0.16084796353E+01  0.11832443345E+01  0.43662382928E+02  0.00000000000E+00 0.  1.
         12    1    6    6    0    0 -0.29841066006E+02 -0.25362514135E+02 -0.34487828528E+01  0.39314634003E+02  0.00000000000E+00 0. -1.
         -5    1    3    3    0  503 -0.29062618902E+02  0.49204480125E+02  0.17567195822E+02  0.59970101308E+02  0.47000000000E+01 0.  1.
         11    1    4    4    0    0  0.52127214019E+02  0.55968555419E+01  0.18386664401E+02  0.55557543692E+02  0.00000000000E+00 0. -1.
        -12    1    4    4    0    0  0.13032358019E+02 -0.62022200001E+02 -0.74232538710E+01  0.63809876559E+02  0.00000000000E+00 0.  1.
</event>
<event>
12    1  0.8691829E-002  0.2047154E+03  0.7818608E-02  0.1145996E+00
         21   -1    0    0  503  502  0.00000000000E+00  0.00000000000E+00  0.86293411140E+02  0.86293411140E+02  0.00000000000E+00 0. -1.
         21   -1    0    0  501  503 -0.00000000000E+00 -0.00000000000E+00 -0.48822932068E+03  0.48822932068E+03  0.00000000000E+00 0. -1.
          6    2    1    2  501    0  0.35986923015E+02  0.10534995128E+03 -0.22927892352E+03  0.30737148631E+03  0.17179853015E+03 0.  0.
         24    2    3    3    0    0  0.81736053169E+02  0.37169580921E+02 -0.12339648459E+03  0.17330162883E+03  0.82124308281E+02 0.  0.
         -6    2    1    2    0  502 -0.35986923015E+02 -0.10534995128E+03 -0.17265698602E+03  0.26715124551E+03  0.17077963080E+03 0.  0.
        -24    2    5    5    0    0 -0.33512203926E+02 -0.13329126936E+03 -0.97972901843E+02  0.18723476461E+03  0.81046513093E+02 0.  0.
          5    1    3    3  501    0 -0.45749130153E+02  0.68180370359E+02 -0.10588243893E+03  0.13406985748E+03  0.47000000000E+01 0. -1.
        -11    1    4    4    0    0  0.21791548293E+02 -0.11017157395E+01 -0.93740470379E+02  0.96246356510E+02  0.00000000000E+00 0.  1.
         12    1    4    4    0    0  0.59944504876E+02  0.38271296660E+02 -0.29656014216E+02  0.77055272318E+02  0.00000000000E+00 0. -1.
         -5    1    5    5    0  502 -0.24747190890E+01  0.27941318076E+02 -0.74684084180E+02  0.79916480905E+02  0.47000000000E+01 0.  1.
         13    1    6    6    0    0  0.29263974300E+01 -0.11806332021E+03 -0.85566222055E+02  0.14583925994E+03  0.00000000000E+00 0. -1.
        -14    1    6    6    0    0 -0.36438601356E+02 -0.15227949142E+02 -0.12406679788E+02  0.41395504674E+02  0.00000000000E+00 0.  1.
</event>
<event>
12    1  0.8691829E-002  0.2939125E+03  0.7818608E-02  0.1088399E+00
         21   -1    0    0  503  502  0.00000000000E+00  0.00000000000E+00  0.77781523575E+03  0.77781523575E+03  0.00000000000E+00 0. -1.
         21   -1    0    0  501  503 -0.00000000000E+00 -0.00000000000E+00 -0.30004256230E+03  0.30004256230E+03  0.00000000000E+00 0.  1.
          6    2    1    2  501    0  0.20733486874E+02 -0.23671549458E+03 -0.18898578009E+03  0.34942832874E+03  0.17297522655E+03 0.  0.
         24    2    3    3    0    0 -0.32141280220E+02 -0.22155339120E+03 -0.14133477885E+03  0.27650139069E+03  0.79740405664E+02 0.  0.
         -6    2    1    2    0  502 -0.20733486874E+02  0.23671549458E+03  0.66675845354E+03  0.72842946930E+03  0.17198416651E+03 0.  0.
        -24    2    5    5    0    0 -0.64985625604E+02  0.15705464026E+03  0.32969007694E+03  0.37922854720E+03  0.78926881468E+02 0.  0.
          5    1    3    3  501    0  0.52874767094E+02 -0.15162103380E+02 -0.47651001249E+02  0.72926938056E+02  0.47000000000E+01 0. -1.
        -11    1    4    4    0    0 -0.67930788081E+00 -0.69150762696E+02 -0.88168879053E+02  0.11205374012E+03  0.00000000000E+00 0.  1.
         12    1    4    4    0    0 -0.31461972339E+02 -0.15240262850E+03 -0.53165899792E+02  0.16444765057E+03  0.00000000000E+00 0. -1.
         -5    1    5    5    0  502  0.44252138730E+02  0.79660854322E+02  0.33706837660E+03  0.34920092210E+03  0.47000000000E+01 0.  1.
         13    1    6    6    0    0 -0.21485960926E+02  0.13256042636E+03  0.26889273372E+03  0.30056150020E+03  0.00000000000E+00 0. -1.
        -14    1    6    6    0    0 -0.43499664677E+02  0.24494213891E+02  0.60797343217E+02  0.78667046998E+02  0.00000000000E+00 0.  1.
</event>
<event>
12    1  0.8691829E-002  0.2066567E+03  0.7818608E-02  0.1144715E+00
         21   -1    0    0  503  502  0.00000000000E+00  0.00000000000E+00  0.67383970648E+03  0.67383970648E+03  0.00000000000E+00 0. -1.
         21   -1    0    0  501  503 -0.00000000000E+00 -0.00000000000E+00 -0.68269336210E+02  0.68269336210E+02  0.00000000000E+00 0.  1.
          6    2    1    2  501    0 -0.11122939471E+03  0.69066236460E+01  0.19490186702E+03  0.28237476180E+03  0.17125737542E+03 0.  0.
         24    2    3    3    0    0 -0.12460431906E+03 -0.42438196279E+02  0.13824771099E+03  0.20591834775E+03  0.77218517934E+02 0.  0.
         -6    2    1    2    0  502  0.11122939471E+03 -0.69066236460E+01  0.41066850325E+03  0.45973428090E+03  0.17403249630E+03 0.  0.
        -24    2    5    5    0    0 -0.43649908932E+01 -0.33981478503E+02  0.16434730234E+03  0.18625423817E+03  0.80664809076E+02 0.  0.
          5    1    3    3  501    0  0.13374924348E+02  0.49344819925E+02  0.56654156022E+02  0.76456414049E+02  0.47000000000E+01 0. -1.
        -11    1    4    4    0    0 -0.19905707853E+01 -0.28513957182E+02  0.19057339010E+02  0.34353897834E+02  0.00000000000E+00 0.  1.
         12    1    4    4    0    0 -0.12261374827E+03 -0.13924239097E+02  0.11919037198E+03  0.17156444991E+03  0.00000000000E+00 0. -1.
         -5    1    5    5    0  502  0.11559438560E+03  0.27074854857E+02  0.24632120092E+03  0.27348004273E+03  0.47000000000E+01 0.  1.
         13    1    6    6    0    0 -0.15469635239E+01  0.26386468780E+02  0.61952913062E+02  0.67355788673E+02  0.00000000000E+00 0. -1.
        -14    1    6    6    0    0 -0.28180273693E+01 -0.60367947283E+02  0.10239438928E+03  0.11889844950E+03  0.00000000000E+00 0.  1.
</event>
<event>
12    1  0.8691829E-002  0.2144293E+03  0.7818608E-02  0.1138330E+00
         21   -1    0    0  501  502  0.00000000000E+00  0.00000000000E+00  0.35213089189E+04  0.35213089189E+04  0.00000000000E+00 0.  1.
         21   -1    0    0  502  503 -0.00000000000E+00 -0.00000000000E+00 -0.15893440254E+02  0.15893440254E+02  0.00000000000E+00 0. -1.
         -6    2    1    2    0  503  0.89212098740E+02  0.92286219725E+02  0.10002853921E+04  0.10230106400E+04  0.17176832952E+03 0.  0.
        -24    2    3    3    0    0  0.77966865265E+02  0.13167916876E+03  0.84120338513E+03  0.85867125140E+03  0.79214564689E+02 0.  0.
          6    2    1    2  501    0 -0.89212098740E+02 -0.92286219725E+02  0.25051300866E+04  0.25141917192E+04  0.17031648525E+03 0.  0.
         24    2    5    5    0    0 -0.59775974295E+02 -0.13071366597E+03  0.19646239478E+04  0.19715020011E+04  0.80085295005E+02 0.  0.
          5    1    5    5  501    0 -0.29436124445E+02  0.38427446243E+02  0.54050613879E+03  0.54268971809E+03  0.47000000000E+01 0. -1.
        -13    1    6    6    0    0 -0.30366285311E+02 -0.78781938294E+01  0.66921482561E+03  0.66994974441E+03  0.00000000000E+00 0.  1.
         14    1    6    6    0    0 -0.29409688984E+02 -0.12283547214E+03  0.12954091222E+04  0.13015522567E+04  0.00000000000E+00 0. -1.
         -5    1    3    3    0  503  0.11245233475E+02 -0.39392949036E+02  0.15908200695E+03  0.16433938860E+03  0.47000000000E+01 0.  1.
         11    1    4    4    0    0 -0.84596806584E+01  0.10287212622E+02  0.19815218750E+02  0.23875423232E+02  0.00000000000E+00 0. -1.
        -12    1    4    4    0    0  0.86426545923E+02  0.12139195614E+03  0.82138816638E+03  0.83479582817E+03  0.00000000000E+00 0.  1.
</event>
<event>
12    1  0.8691829E-002  0.2397774E+03  0.7818608E-02  0.1120166E+00
         21   -1    0    0  501  502  0.00000000000E+00  0.00000000000E+00  0.41475283267E+03  0.41475283267E+03  0.00000000000E+00 0. -1.
         21   -1    0    0  502  503 -0.00000000000E+00 -0.00000000000E+00 -0.41182437353E+03  0.41182437353E+03  0.00000000000E+00 0. -1.
         -6    2    1    2    0  503  0.16198498234E+03  0.32176805778E+02 -0.33563209658E+03  0.41248285563E+03  0.17383532610E+03 0.  0.
        -24    2    3    3    0    0  0.17245566250E+03 -0.14509945847E+02 -0.26031519668E+03  0.32312954942E+03  0.81836483457E+02 0.  0.
          6    2    1    2  501    0 -0.16198498234E+03 -0.32176805778E+02  0.33856055572E+03  0.41409435057E+03  0.17197790543E+03 0.  0.
         24    2    5    5    0    0 -0.14943500558E+03  0.30607380634E+02  0.27181123707E+03  0.32148270163E+03  0.78753705988E+02 0.  0.
          5    1    5    5  501    0 -0.12549976755E+02 -0.62784186413E+02  0.66749318646E+02  0.92611648942E+02  0.47000000000E+01 0. -1.
        -11    1    6    6    0    0 -0.45166367158E+02  0.47815054220E+02  0.11216032696E+03  0.13002391733E+03  0.00000000000E+00 0.  1.
         12    1    6    6    0    0 -0.10426863842E+03 -0.17207673586E+02  0.15965091011E+03  0.19145878430E+03  0.00000000000E+00 0. -1.
         -5    1    3    3    0  503 -0.10470680169E+02  0.46686751626E+02 -0.75316899895E+02  0.89353306208E+02  0.47000000000E+01 0.  1.
         13    1    4    4    0    0  0.73496159262E+02  0.31559775657E+02 -0.85909864291E+02  0.11738061871E+03  0.00000000000E+00 0. -1.
        -14    1    4    4    0    0  0.98959503242E+02 -0.46069721504E+02 -0.17440533239E+03  0.20574893071E+03  0.00000000000E+00 0.  1.
</event>
<event>
12    1  0.8691829E-002  0.1800977E+03  0.7818608E-02  0.1167977E+00
         21   -1    0    0  501  502  0.00000000000E+00  0.00000000000E+00  0.12738350835E+04  0.12738350835E+04  0.00000000000E+00 0.  1.
         21   -1    0    0  502  503 -0.00000000000E+00 -0.00000000000E+00 -0.30265884715E+02  0.30265884715E+02  0.00000000000E+00 0.  1.
         -6    2    1    2    0  503 -0.47797514918E+02  0.14647971775E+02  0.88413249795E+03  0.90206872929E+03  0.17186783562E+03 0.  0.
        -24    2    3    3    0    0  0.29989839394E+02  0.35709186635E+02  0.36208886348E+03  0.37382059294E+03  0.80367618947E+02 0.  0.
          6    2    1    2  501    0  0.47797514918E+02 -0.14647971775E+02  0.35943670082E+03  0.40203223891E+03  0.17302026967E+03 0.  0.
         24    2    5    5    0    0  0.65789503609E+02  0.48166334088E+02  0.23473851093E+03  0.26117388012E+03  0.80382663688E+02 0.  0.
          5    1    5    5  501    0 -0.17991988691E+02 -0.62814305863E+02  0.12469818990E+03  0.14085835879E+03  0.47000000000E+01 0. -1.
        -13    1    6    6    0    0  0.44534717222E+02  0.17270231132E+02  0.21200668887E+03  0.21732104833E+03  0.00000000000E+00 0.  1.
         14    1    6    6    0    0  0.21254786387E+02  0.30896102956E+02  0.22731822056E+02  0.43852831793E+02  0.00000000000E+00 0. -1.
         -5    1    3    3    0  503 -0.77787354312E+02 -0.21061214860E+02  0.52204363447E+03  0.52824813635E+03  0.47000000000E+01 0.  1.
         13    1    4    4    0    0  0.27004116376E+00 -0.21404559397E+02  0.16737534395E+03  0.16873865547E+03  0.00000000000E+00 0. -1.
        -14    1    4    4    0    0  0.29719798230E+02  0.57113746032E+02  0.19471351952E+03  0.20508193747E+03  0.00000000000E+00 0.  1.
</event>
<event>
12    1  0.8691829E-002  0.2052294E+03  0.7818608E-02  0.1145782E+00
         21   -1    0    0  503  502  0.00000000000E+00  0.00000000000E+00  0.35635643824E+02  0.35635643824E+02  0.00000000000E+00 0.  1.
         21   -1    0    0  501  503 -0.00000000000E+00 -0.00000000000E+00 -0.12123194186E+04  0.12123194186E+04  0.00000000000E+00 0.  1.
          6    2    1    2  501    0  0.10054914611E+03 -0.40896644168E+02 -0.47607902828E+03  0.51843066497E+03  0.17417361143E+03 0.  0.
         24    2    3    3    0    0  0.12477278273E+02  0.71519080426E+01 -0.31940829063E+03  0.33233088713E+03  0.90638458481E+02 0.  0.
         -6    2    1    2    0  502 -0.10054914611E+03  0.40896644168E+02 -0.70060474654E+03  0.72952439750E+03  0.17197723510E+03 0.  0.
        -24    2    5    5    0    0 -0.12164545426E+03  0.55767918529E+02 -0.67783175851E+03  0.69478381601E+03  0.73218719337E+02 0.  0.
          5    1    3    3  501    0  0.88071867838E+02 -0.48048552210E+02 -0.15667073765E+03  0.18609977783E+03  0.47000000000E+01 0. -1.
        -13    1    4    4    0    0 -0.26660672491E+02  0.34805112284E+02 -0.15479749191E+03  0.16088645313E+03  0.00000000000E+00 0.  1.
         14    1    4    4    0    0  0.39137950763E+02 -0.27653204241E+02 -0.16461079872E+03  0.17144443400E+03  0.00000000000E+00 0. -1.
         -5    1    5    5    0  502  0.21096308152E+02 -0.14871274362E+02 -0.22772988024E+02  0.34740581491E+02  0.47000000000E+01 0.  1.
         11    1    6    6    0    0 -0.10599402840E+03  0.27185113404E+02 -0.38829154283E+03  0.40341552608E+03  0.00000000000E+00 0. -1.
        -12    1    6    6    0    0 -0.15651425860E+02  0.28582805125E+02 -0.28954021568E+03  0.29136828993E+03  0.00000000000E+00 0.  1.
</event>
<event>
12    1  0.8691829E-002  0.2564353E+03  0.7818608E-02  0.1109393E+00
         21   -1    0    0  503  502  0.00000000000E+00  0.00000000000E+00  0.10269505986E+03  0.10269505986E+03  0.00000000000E+00 0. -1.
         21   -1    0    0  501  503 -0.00000000000E+00 -0.00000000000E+00 -0.65952025637E+03  0.65952025637E+03  0.00000000000E+00 0.  1.
          6    2    1    2  501    0 -0.15198293262E+03 -0.11343062988E+03 -0.21069917180E+03  0.33144590737E+03  0.17174669987E+03 0.  0.
         24    2    3    3    0    0 -0.17186889861E+03 -0.10783534070E+03 -0.21861883652E+03  0.30882799425E+03  0.80082178637E+02 0.  0.
         -6    2    1    2    0  502  0.15198293262E+03  0.11343062988E+03 -0.34612602471E+03  0.43076940886E+03  0.17260862963E+03 0.  0.
        -24    2    5    5    0    0  0.14578767335E+03  0.31493099411E+02 -0.18259793396E+03  0.24769656379E+03  0.75932346299E+02 0.  0.
          5    1    3    3  501    0  0.19885965994E+02 -0.55952891763E+01  0.79196647282E+01  0.22617913120E+02  0.47000000000E+01 0. -1.
        -13    1    4    4    0    0 -0.99630160804E+02 -0.89353779714E+02 -0.18158185801E+03  0.22557091579E+03  0.00000000000E+00 0.  1.
         14    1    4    4    0    0 -0.72238737807E+02 -0.18481560987E+02 -0.37036978513E+02  0.83257078460E+02  0.00000000000E+00 0. -1.
         -5    1    5    5    0  502  0.61952592642E+01  0.81937530467E+02 -0.16352809075E+03  0.18307284507E+03  0.47000000000E+01 0.  1.
         13    1    6    6    0    0  0.12576096303E+03  0.53891964507E+02 -0.15672845635E+03  0.20804800574E+03  0.00000000000E+00 0. -1.
        -14    1    6    6    0    0  0.20026710322E+02 -0.22398865096E+02 -0.25869477608E+02  0.39648558053E+02  0.00000000000E+00 0.  1.
</event>
<event>
12    1  0.8691829E-002  0.2261049E+03  0.7818608E-02  0.1129647E+00
         21   -1    0    0  501  502  0.00000000000E+00  0.00000000000E+00  0.16295553406E+03  0.16295553406E+03  0.00000000000E+00 0.  1.
         21   -1    0    0  502  503 -0.00000000000E+00 -0.00000000000E+00 -0.13097040855E+04  0.13097040855E+04  0.00000000000E+00 0.  1.
         -6    2    1    2    0  503 -0.85950980790E+02 -0.11671549856E+03 -0.12164616319E+04  0.12372963809E+04  0.17353199616E+03 0.  0.
        -24    2    3    3    0    0 -0.11017903238E+03 -0.40942071332E+02 -0.87858836970E+03  0.89015225803E+03  0.81472981566E+02 0.  0.
          6    2    1    2  501    0  0.85950980790E+02  0.11671549856E+03  0.69713080486E+02  0.23536323859E+03  0.17183091045E+03 0.  0.
         24    2    5    5    0    0  0.11677439366E+02  0.93928951052E+02  0.92293311036E+02  0.15432162882E+03  0.79612181374E+02 0.  0.
          5    1    5    5  501    0  0.74273541425E+02  0.22786547507E+02 -0.22580230550E+02  0.81041609774E+02  0.47000000000E+01 0. -1.
        -11    1    6    6    0    0 -0.23589376828E+02  0.51948428095E+01  0.44200618710E+01  0.24555692576E+02  0.00000000000E+00 0.  1.
         12    1    6    6    0    0  0.35266816193E+02  0.88734108243E+02  0.87873249165E+02  0.12976593624E+03  0.00000000000E+00 0. -1.
         -5    1    3    3    0  503  0.24228051589E+02 -0.75773427227E+02 -0.33787326219E+03  0.34714412289E+03  0.47000000000E+01 0.  1.
         13    1    4    4    0    0 -0.63111752862E+02 -0.53884077179E+02 -0.70379991904E+03  0.70867546392E+03  0.00000000000E+00 0. -1.
        -14    1    4    4    0    0 -0.47067279517E+02  0.12942005847E+02 -0.17478845066E+03  0.18147679411E+03  0.00000000000E+00 0.  1.
</event>
<event>
12    1  0.8691829E-002  0.2991354E+03  0.7818608E-02  0.1086956E+00
         21   -1    0    0  501  502  0.00000000000E+00  0.00000000000E+00  0.36704018429E+03  0.36704018429E+03  0.00000000000E+00 0.  1.
         21   -1    0    0  502  503 -0.00000000000E+00 -0.00000000000E+00 -0.32149183316E+03  0.32149183316E+03  0.00000000000E+00 0. -1.
         -6    2    1    2    0  503  0.22951348073E+02  0.23526187710E+03 -0.15535432538E+03  0.32819343815E+03  0.16643632787E+03 0.  0.
        -24    2    3    3    0    0  0.11017693322E+02  0.10726591256E+03 -0.14764782880E+03  0.19932583499E+03  0.79394846061E+02 0.  0.
          6    2    1    2  501    0 -0.22951348073E+02 -0.23526187710E+03  0.20090267651E+03  0.36033857930E+03  0.18332236935E+03 0.  0.
         24    2    5    5    0    0 -0.76438807651E+02 -0.18967436319E+03  0.16827300021E+03  0.28271180858E+03  0.98949020933E+02 0.  0.
          5    1    5    5  501    0  0.53487459578E+02 -0.45587513910E+02  0.32629676302E+02  0.77626770718E+02  0.47000000000E+01 0. -1.
        -11    1    6    6    0    0  0.22896627496E+02 -0.26095616772E+02  0.36382532123E+02  0.50288422217E+02  0.00000000000E+00 0.  1.
         12    1    6    6    0    0 -0.99335435148E+02 -0.16357874642E+03  0.13189046809E+03  0.23242338636E+03  0.00000000000E+00 0. -1.
         -5    1    3    3    0  503  0.11933654751E+02  0.12799596454E+03 -0.77064965796E+01  0.12886760316E+03  0.47000000000E+01 0.  1.
         11    1    4    4    0    0 -0.27364270214E+02  0.84368276932E+02 -0.89716038149E+02  0.12615774625E+03  0.00000000000E+00 0. -1.
        -12    1    4    4    0    0  0.38381963535E+02  0.22897635630E+02 -0.57931790654E+02  0.73168088745E+02  0.00000000000E+00 0.  1.
</event>
<event>
12    1  0.8691829E-002  0.1788616E+03  0.7818608E-02  0.1169145E+00
         21   -1    0    0  501  502  0.00000000000E+00  0.00000000000E+00  0.14249669004E+03  0.14249669004E+03  0.00000000000E+00 0.  1.
         21   -1    0    0  502  503 -0.00000000000E+00 -0.00000000000E+00 -0.29274175232E+03  0.29274175232E+03  0.00000000000E+00 0.  1.
         -6    2    1    2    0  503  0.46208566546E+02  0.62488025437E+01 -0.18126590380E+03  0.25465426290E+03  0.17267653743E+03 0.  0.
        -24    2    3    3    0    0  0.33804128506E+01 -0.59361579560E+02 -0.12116173115E+03  0.15579287226E+03  0.77820496233E+02 0.  0.
          6    2    1    2  501    0 -0.46208566546E+02 -0.62488025437E+01  0.31020841515E+02  0.18058417946E+03  0.17168015059E+03 0.  0.
         24    2    5    5    0    0 -0.79099703089E+02 -0.31003524763E+02  0.60243375062E+02  0.12988240827E+03  0.77602797387E+02 0.  0.
          5    1    5    5  501    0  0.32891136543E+02  0.24754722219E+02 -0.29222533547E+02  0.50701771193E+02  0.47000000000E+01 0. -1.
        -11    1    6    6    0    0 -0.72496985788E+02 -0.38831289180E+02  0.15130528952E+02  0.83621856438E+02  0.00000000000E+00 0.  1.
         12    1    6    6    0    0 -0.66027173008E+01  0.78277644175E+01  0.45112846109E+02  0.46260551830E+02  0.00000000000E+00 0. -1.
         -5    1    3    3    0  503  0.42828153695E+02  0.65610382104E+02 -0.60104172647E+02  0.98861390635E+02  0.47000000000E+01 0.  1.
         13    1    4    4    0    0  0.14201370703E+02 -0.75205136096E+02 -0.81901211716E+02  0.11209504853E+03  0.00000000000E+00 0. -1.
        -14    1    4    4    0    0 -0.10820957853E+02  0.15843556536E+02 -0.39260519434E+02  0.43697823730E+02  0.00000000000E+00 0.  1.
</event>
<event>
12    1  0.8691829E-002  0.2418903E+03  0.7818608E-02  0.1118733E+00
         21   -1    0    0  503  502  0.00000000000E+00  0.00000000000E+00  0.18793981415E+03  0.18793981415E+03  0.00000000000E+00 0.  1.
         21   -1    0    0  501  503 -0.00000000000E+00 -0.00000000000E+00 -0.31221799645E+03  0.31221799645E+03  0.00000000000E+00 0.  1.
          6    2    1    2  501    0 -0.28753141869E+02 -0.16763898132E+03 -0.40412382887E+02  0.24524291920E+03  0.17199231815E+03 0.  0.
         24    2    3    3    0    0 -0.57732351622E+02 -0.11491005033E+03  0.28640882317E+02  0.15353371467E+03  0.78835000524E+02 0.  0.
         -6    2    1    2    0  502  0.28753141869E+02  0.16763898132E+03 -0.83865799414E+02  0.25491489139E+03  0.17034834404E+03 0.  0.
        -24    2    5    5    0    0 -0.52959843710E+01  0.16018527317E+02 -0.10213859345E+02  0.82883489182E+02  0.80502852052E+02 0.  0.
          5    1    3    3  501    0  0.28979209752E+02 -0.52728930987E+02 -0.69053265204E+02  0.91709204534E+02  0.47000000000E+01 0. -1.
        -13    1    4    4    0    0 -0.23950940167E+02 -0.87677157159E+02 -0.14854381940E+02  0.92095516097E+02  0.00000000000E+00 0.  1.
         14    1    4    4    0    0 -0.33781411455E+02 -0.27232893175E+02  0.43495264257E+02  0.61438198569E+02  0.00000000000E+00 0. -1.
         -5    1    5    5    0  502  0.34049126240E+02  0.15162045400E+03 -0.73651940069E+02  0.17203140221E+03  0.47000000000E+01 0.  1.
         11    1    6    6    0    0  0.19449597711E+02  0.17547295095E+02  0.27352815706E+02  0.37873089963E+02  0.00000000000E+00 0. -1.
        -12    1    6    6    0    0 -0.24745582082E+02 -0.15287677784E+01 -0.37566675052E+02  0.45010399220E+02  0.00000000000E+00 0.  1.
</event>
<event>
12    1  0.8691829E-002  0.2565895E+03  0.7818608E-02  0.1109236E+00
         21   -1    0    0  503  502  0.00000000000E+00  0.00000000000E+00  0.31744964352E+03  0.31744964352E+03  0.00000000000E+00 0. -1.
         21   -1    0    0  501  503 -0.00000000000E+00 -0.00000000000E+00 -0.43474470508E+03  0.43474470508E+03  0.00000000000E+00 0.  1.
          6    2    1    2  501    0 -0.17524389651E+03 -0.77110552243E+02 -0.33069506794E+03  0.41846131649E+03  0.17057017589E+03 0.  0.
         24    2    3    3    0    0 -0.12262261950E+03 -0.80699481641E+02 -0.32617980003E+03  0.36531663799E+03  0.74258136864E+02 0.  0.
         -6    2    1    2    0  502  0.17524389651E+03  0.77110552243E+02  0.21340000638E+03  0.33373303211E+03  0.17082655961E+03 0.  0.
        -24    2    5    5    0    0  0.94965015594E+02 -0.26009205471E+02  0.12797827177E+03  0.17753653441E+03  0.73796680465E+02 0.  0.
          5    1    3    3  501    0 -0.52621277012E+02  0.35889293986E+01 -0.45152679070E+01  0.53144678500E+02  0.47000000000E+01 0. -1.
        -11    1    4    4    0    0 -0.45894689282E+02 -0.13377054376E+02 -0.18515201674E+03  0.19122378877E+03  0.00000000000E+00 0.  1.
         12    1    4    4    0    0 -0.76727930217E+02 -0.67322427265E+02 -0.14102778329E+03  0.17409284922E+03  0.00000000000E+00 0. -1.
         -5    1    5    5    0  502  0.80278880917E+02  0.10311975771E+03  0.85421734606E+02  0.15619649770E+03  0.47000000000E+01 0.  1.
         13    1    6    6    0    0  0.44453850811E+02 -0.20379125403E+02  0.11517180172E+03  0.12512392863E+03  0.00000000000E+00 0. -1.
        -14    1    6    6    0    0  0.50511164783E+02 -0.56300800680E+01  0.12806470052E+02  0.52412605779E+02  0.00000000000E+00 0.  1.
</event>
<event>
12    1  0.8691829E-002  0.1736407E+03  0.7818608E-02  0.1174558E+00
         21   -1    0    0  503  502  0.00000000000E+00  0.00000000000E+00  0.10323116819E+03  0.10323116819E+03  0.00000000000E+00 0. -1.
         21   -1    0    0  501  503 -0.00000000000E+00 -0.00000000000E+00 -0.31210146231E+03  0.31210146231E+03  0.00000000000E+00 0. -1.
          6    2    1    2  501    0 -0.26055161894E+02 -0.15622817444E+02 -0.16033566216E+03  0.23503644903E+03  0.16914982686E+03 0.  0.
         24    2    3    3    0    0 -0.33132594165E+02 -0.65722065224E+02 -0.62188944361E+02  0.12451544247E+03  0.78863628878E+02 0.  0.
         -6    2    1    2    0  502  0.26055161894E+02  0.15622817444E+02 -0.48534631965E+02  0.18029618147E+03  0.17096244812E+03 0.  0.
        -24    2    5    5    0    0  0.33635213379E+02  0.61616963091E+02 -0.68388298392E+02  0.12941222835E+03  0.84513831825E+02 0.  0.
          5    1    3    3  501    0  0.70774322709E+01  0.50099247781E+02 -0.98146717799E+02  0.11052100656E+03  0.47000000000E+01 0. -1.
        -11    1    4    4    0    0  0.25417032485E+02 -0.11221902924E+02 -0.18400407072E+02  0.33324639923E+02  0.00000000000E+00 0.  1.
         12    1    4    4    0    0 -0.58549626650E+02 -0.54500162301E+02 -0.43788537289E+02  0.91190802549E+02  0.00000000000E+00 0. -1.
         -5    1    5    5    0  502 -0.75800514857E+01 -0.45994145648E+02  0.19853666427E+02  0.50883953119E+02  0.47000000000E+01 0.  1.
         11    1    6    6    0    0  0.34367502666E+02  0.82284841429E+02 -0.54769661238E+02  0.10465006527E+03  0.00000000000E+00 0. -1.
        -12    1    6    6    0    0 -0.73228928632E+00 -0.20667878337E+02 -0.13618637155E+02  0.24762163082E+02  0.00000000000E+00 0.  1.
</event>
<event>
12    1  0.8691829E-002  0.1901198E+03  0.7818608E-02  0.1158363E+00
         21   -1    0    0  503  502  0.00000000000E+00  0.00000000000E+00  0.33943555677E+03  0.33943555677E+03  0.00000000000E+00 0. -1.
         21   -1    0    0  501  503 -0.00000000000E+00 -0.00000000000E+00 -0.25691452273E+03  0.25691452273E+03  0.00000000000E+00 0. -1.
          6    2    1    2  501    0 -0.67551032378E+02  0.42776494242E+02 -0.18691910298E+03  0.26658724576E+03  0.17244430437E+03 0.  0.
         24    2    3    3    0    0 -0.64361682078E+02  0.99637859323E+01 -0.34886692656E+02  0.11095052268E+03  0.82772181373E+02 0.  0.
         -6    2    1    2    0  502  0.67551032378E+02 -0.42776494242E+02  0.26944013702E+03  0.32976283374E+03  0.17248932907E+03 0.  0.
        -24    2    5    5    0    0  0.73278805872E+02 -0.77897194616E+02  0.26078645748E+03  0.29284065675E+03  0.79424917525E+02 0.  0.
          5    1    3    3  501    0 -0.31893502999E+01  0.32812708310E+02 -0.15203241032E+03  0.15563672308E+03  0.47000000000E+01 0. -1.
        -13    1    4    4    0    0 -0.83259091986E+02  0.12055969531E+02 -0.36834935283E+02  0.91838092625E+02  0.00000000000E+00 0.  1.
         14    1    4    4    0    0  0.18897409908E+02 -0.20921835987E+01  0.19482426275E+01  0.19112430059E+02  0.00000000000E+00 0. -1.
         -5    1    5    5    0  502 -0.57277734931E+01  0.35120700374E+02  0.86536795449E+01  0.36922176989E+02  0.47000000000E+01 0.  1.
         11    1    6    6    0    0  0.42496043320E+02 -0.23082310657E+02  0.19863746361E+03  0.20443959673E+03  0.00000000000E+00 0. -1.
        -12    1    6    6    0    0  0.30782762551E+02 -0.54814883960E+02  0.62148993874E+02  0.88401060024E+02  0.00000000000E+00 0.  1.
</event>
<event>
12    1  0.8691829E-002  0.1825081E+03  0.7818608E-02  0.1165697E+00
         21   -1    0    0  503  502  0.00000000000E+00  0.00000000000E+00  0.68037320575E+02  0.68037320575E+02  0.00000000000E+00 0. -1.
         21   -1    0    0  501  503 -0.00000000000E+00 -0.00000000000E+00 -0.48649255248E+03  0.48649255248E+03  0.00000000000E+00 0. -1.
          6    2    1    2  501    0 -0.36564735911E+02 -0.48071000071E+02 -0.20177104510E+03  0.27122573437E+03  0.17089190556E+03 0.  0.
         24    2    3    3    0    0  0.31319552011E+02  0.16615107887E+02 -0.10023706928E+03  0.13293687960E+03  0.79798294162E+02 0.  0.
         -6    2    1    2    0  502  0.36564735911E+02  0.48071000071E+02 -0.21668418680E+03  0.28330413868E+03  0.17222484496E+03 0.  0.
        -24    2    5    5    0    0  0.21739735261E+02  0.90906923391E+02 -0.98424225701E+02  0.15656738248E+03  0.78034173559E+02 0.  0.
          5    1    3    3  501    0 -0.67884287922E+02 -0.64686107958E+02 -0.10153397581E+03  0.13828885477E+03  0.47000000000E+01 0. -1.
        -13    1    4    4    0    0  0.11688696933E+01  0.34212220242E+02 -0.92165331629E+01  0.35451188327E+02  0.00000000000E+00 0.  1.
         14    1    4    4    0    0  0.30150682318E+02 -0.17597112355E+02 -0.91020536122E+02  0.97485691275E+02  0.00000000000E+00 0. -1.
         -5    1    5    5    0  502  0.14825000650E+02 -0.42835923320E+02 -0.11825996110E+03  0.12673675620E+03  0.47000000000E+01 0.  1.
         11    1    6    6    0    0  0.12647968604E+02  0.45640427695E+02  0.53915460037E+00  0.47363598234E+02  0.00000000000E+00 0. -1.
        -12    1    6    6    0    0  0.90917666577E+01  0.45266495696E+02 -0.98963380302E+02  0.10920378425E+03  0.00000000000E+00 0.  1.
</event>
<event>
12    1  0.8691829E-002  0.1782268E+03  0.7818608E-02  0.1169687E+00
         21   -1    0    0  501  502  0.00000000000E+00  0.00000000000E+00  0.17474206108E+03  0.17474206108E+03  0.00000000000E+00 0.  1.
         21   -1    0    0  502  503 -0.00000000000E+00 -0.00000000000E+00 -0.18113385012E+03  0.18113385012E+03  0.00000000000E+00 0.  1.
         -6    2    1    2    0  503 -0.34194064201E+01 -0.42097988794E+02 -0.26488374519E+01  0.17824646439E+03  0.17314979852E+03 0.  0.
        -24    2    3    3    0    0 -0.44577419946E+02  0.25200930506E+02  0.21430930810E+02  0.95632592337E+02  0.77872168675E+02 0.  0.
          6    2    1    2  501    0  0.34194064201E+01  0.42097988794E+02 -0.37429515891E+01  0.17762944681E+03  0.17249428306E+03 0.  0.
         24    2    5    5    0    0 -0.27386646879E+02  0.88497449827E+02  0.15260354316E+02  0.11859438486E+03  0.72456349990E+02 0.  0.
          5    1    5    5  501    0  0.30806053299E+02 -0.46399461034E+02 -0.19003305905E+02  0.59035061950E+02  0.47000000000E+01 0. -1.
        -13    1    6    6    0    0 -0.51479982395E+02  0.55598444687E+02  0.17459128823E+02  0.77757294309E+02  0.00000000000E+00 0.  1.
         14    1    6    6    0    0  0.24093335516E+02  0.32899005141E+02 -0.21987745073E+01  0.40837090554E+02  0.00000000000E+00 0. -1.
         -5    1    3    3    0  503  0.41158013526E+02 -0.67298919299E+02 -0.24079768262E+02  0.82613872054E+02  0.47000000000E+01 0.  1.
         11    1    4    4    0    0 -0.50442174951E+01  0.24253785379E+02 -0.24624586671E+02  0.34929364495E+02  0.00000000000E+00 0. -1.
        -12    1    4    4    0    0 -0.39533202451E+02  0.94714512727E+00  0.46055517481E+02  0.60703227841E+02  0.00000000000E+00 0.  1.
</event>
<event>
12    1  0.8691829E-002  0.1783554E+03  0.7818608E-02  0.1169429E+00
         21   -1    0    0  501  502  0.00000000000E+00  0.00000000000E+00  0.30637325850E+03  0.30637325850E+03  0.00000000000E+00 0. -1.
         21   -1    0    0  502  503 -0.00000000000E+00 -0.00000000000E+00 -0.13051771470E+03  0.13051771470E+03  0.00000000000E+00 0. -1.
         -6    2    1    2    0  503  0.29074464028E+02  0.37500201904E+02 -0.10939533126E+02  0.17869060202E+03  0.17192750874E+03 0.  0.
        -24    2    3    3    0    0  0.15841414745E+02  0.22224256102E+02 -0.74578252967E+02  0.11175447742E+03  0.78627472467E+02 0.  0.
          6    2    1    2  501    0 -0.29074464028E+02 -0.37500201904E+02  0.18679507693E+03  0.25820037119E+03  0.17182386713E+03 0.  0.
         24    2    5    5    0    0 -0.11569166207E+02  0.15428868310E+01  0.19935355135E+02  0.85877839326E+02  0.82712506892E+02 0.  0.
          5    1    5    5  501    0 -0.17505297821E+02 -0.39043088735E+02  0.16685972179E+03  0.17232253186E+03  0.47000000000E+01 0. -1.
        -11    1    6    6    0    0  0.12520852258E+02  0.31762505636E+02  0.30534979932E+02  0.45804077384E+02  0.00000000000E+00 0.  1.
         12    1    6    6    0    0 -0.24090018465E+02 -0.30219618805E+02 -0.10599624797E+02  0.40073761942E+02  0.00000000000E+00 0. -1.
         -5    1    3    3    0  503  0.13233049283E+02  0.15275945801E+02  0.63638719841E+02  0.66936124600E+02  0.47000000000E+01 0.  1.
         13    1    4    4    0    0  0.33426364258E+02  0.39860958524E+02 -0.28351506325E+02  0.59245470315E+02  0.00000000000E+00 0. -1.
        -14    1    4    4    0    0 -0.17584949513E+02 -0.17636702421E+02 -0.46226746642E+02  0.52509007101E+02  0.00000000000E+00 0.  1.
</event>
<event>
12    1  0.8691829E-002  0.3639374E+03  0.7818608E-02  0.1057084E+00
         21   -1    0    0  503  502  0.00000000000E+00  0.00000000000E+00  0.88554526593E+03  0.88554526593E+03  0.00000000000E+00 0.  1.
         21   -1    0    0  501  503 -0.00000000000E+00 -0.00000000000E+00 -0.19616288315E+03  0.19616288315E+03  0.00000000000E+00 0.  1.
          6    2    1    2  501    0  0.28371000188E+03  0.14914486030E+03  0.80345924535E+02  0.37221829198E+03  0.17133427787E+03 0.  0.
         24    2    3    3    0    0  0.22548469221E+03  0.44959186326E+02  0.46675377468E+02  0.24811898865E+03  0.80745072984E+02 0.  0.
         -6    2    1    2    0  502 -0.28371000188E+03 -0.14914486030E+03  0.60903645824E+03  0.70948985710E+03  0.17238008973E+03 0.  0.
        -24    2    5    5    0    0 -0.11412776465E+03 -0.81581665501E+02  0.17279392112E+03  0.23657066562E+03  0.80169980948E+02 0.  0.
          5    1    3    3  501    0  0.58225309678E+02  0.10418567397E+03  0.33670547067E+02  0.12409930333E+03  0.47000000000E+01 0. -1.
        -13    1    4    4    0    0  0.21767808874E+03  0.59228005904E+02  0.51008814819E+02  0.23128684829E+03  0.00000000000E+00 0.  1.
         14    1    4    4    0    0  0.78066034645E+01 -0.14268819578E+02 -0.43334373510E+01  0.16832140360E+02  0.00000000000E+00 0. -1.
         -5    1    5    5    0  502 -0.16958223723E+03 -0.67563194796E+02  0.43624253712E+03  0.47291919148E+03  0.47000000000E+01 0.  1.
         11    1    6    6    0    0  0.24872628548E+01 -0.30588379752E+02  0.15964626454E+02  0.34593420620E+02  0.00000000000E+00 0. -1.
        -12    1    6    6    0    0 -0.11661502751E+03 -0.50993285748E+02  0.15682929467E+03  0.20197724500E+03  0.00000000000E+00 0.  1.
</event>
<event>
12    1  0.8691829E-002  0.2042529E+03  0.7818608E-02  0.1146536E+00
         21   -1    0    0  503  502  0.00000000000E+00  0.00000000000E+00  0.34219384789E+03  0.34219384789E+03  0.00000000000E+00 0.  1.
         21   -1    0    0  501  503 -0.00000000000E+00 -0.00000000000E+00 -0.44493849779E+03  0.44493849779E+03  0.00000000000E+00 0.  1.
          6    2    1    2  501    0  0.10058347535E+03  0.49050666858E+02 -0.38727029577E+03  0.43783276166E+03  0.17086907785E+03 0.  0.
         24    2    3    3    0    0  0.75348742634E+02  0.16675446761E+02 -0.38071092897E+03  0.39599902044E+03  0.76934447499E+02 0.  0.
         -6    2    1    2    0  502 -0.10058347535E+03 -0.49050666858E+02  0.28452564587E+03  0.34929958401E+03  0.16891522372E+03 0.  0.
        -24    2    5    5    0    0 -0.12873439426E+03 -0.26176318485E+02  0.16892623567E+03  0.22805180595E+03  0.78827718366E+02 0.  0.
          5    1    3    3  501    0  0.25234732713E+02  0.32375220097E+02 -0.65593667998E+01  0.41833741218E+02  0.47000000000E+01 0. -1.
        -13    1    4    4    0    0  0.59881840465E+02  0.45847266138E+02 -0.28208895962E+03  0.29199655438E+03  0.00000000000E+00 0.  1.
         14    1    4    4    0    0  0.15466902169E+02 -0.29171819378E+02 -0.98621969351E+02  0.10400246606E+03  0.00000000000E+00 0. -1.
         -5    1    5    5    0  502  0.28150918911E+02 -0.22874348374E+02  0.11559941019E+03  0.12124777807E+03  0.47000000000E+01 0.  1.
         13    1    6    6    0    0 -0.56118402762E+00 -0.20716776383E+02  0.79230078586E+01  0.22187244190E+02  0.00000000000E+00 0. -1.
        -14    1    6    6    0    0 -0.12817321023E+03 -0.54595421012E+01  0.16100322781E+03  0.20586456176E+03  0.00000000000E+00 0.  1.
</event>
<event>
12    1  0.8691829E-002  0.1778738E+03  0.7818608E-02  0.1170099E+00
         21   -1    0    0  503  502  0.00000000000E+00  0.00000000000E+00  0.48293827675E+02  0.48293827675E+02  0.00000000000E+00 0.  1.
         21   -1    0    0  501  503 -0.00000000000E+00 -0.00000000000E+00 -0.70380951226E+03  0.70380951226E+03  0.00000000000E+00 0.  1.
          6    2    1    2  501    0 -0.21219183899E+02 -0.38955303981E+02 -0.22477761726E+03  0.28608363412E+03  0.17132162449E+03 0.  0.
         24    2    3    3    0    0 -0.13233562408E+01  0.39429652536E+02 -0.15464264635E+03  0.17893397471E+03  0.80910879776E+02 0.  0.
         -6    2    1    2    0  502  0.21219183899E+02  0.38955303981E+02 -0.43073806733E+03  0.46601970582E+03  0.17225363303E+03 0.  0.
        -24    2    5    5    0    0  0.25030032844E+02  0.18690854021E+02 -0.92515839340E+02  0.12713692962E+03  0.81417244951E+02 0.  0.
          5    1    3    3  501    0 -0.19895827658E+02 -0.78384956517E+02 -0.70134970915E+02  0.10714965941E+03  0.47000000000E+01 0. -1.
        -13    1    4    4    0    0 -0.76335363915E+01 -0.21361139837E+02 -0.76128125803E+02  0.79435890574E+02  0.00000000000E+00 0.  1.
         14    1    4    4    0    0  0.63101801507E+01  0.60790792373E+02 -0.78514520544E+02  0.99498084138E+02  0.00000000000E+00 0. -1.
         -5    1    5    5    0  502 -0.38108489453E+01  0.20264449960E+02 -0.33822222799E+03  0.33888277620E+03  0.47000000000E+01 0.  1.
         13    1    6    6    0    0  0.10611015212E+02 -0.26070360182E+02 -0.69080379197E+02  0.74594611828E+02  0.00000000000E+00 0. -1.
        -14    1    6    6    0    0  0.14419017632E+02  0.44761214203E+02 -0.23435460143E+02  0.52542317788E+02  0.00000000000E+00 0.  1.
</event>
<event>
12    1  0.8691829E-002  0.1978261E+03  0.7818608E-02  0.1151719E+00
         21   -1    0    0  503  502  0.00000000000E+00  0.00000000000E+00  0.25614829999E+03  0.25614829999E+03  0.00000000000E+00 0.  1.
         21   -1    0    0  501  503 -0.00000000000E+00 -0.00000000000E+00 -0.27378092892E+03  0.27378092892E+03  0.00000000000E+00 0.  1.
          6    2    1    2  501    0  0.87708073865E+01  0.96572616353E+02 -0.18531939349E+03  0.27106909173E+03  0.17242963086E+03 0.  0.
         24    2    3    3    0    0 -0.25746666888E+02  0.12682177572E+03 -0.13503543564E+03  0.20282662629E+03  0.78469215612E+02 0.  0.
         -6    2    1    2    0  502 -0.87708073865E+01 -0.96572616353E+02  0.16768676456E+03  0.25886013718E+03  0.17171640085E+03 0.  0.
        -24    2    5    5    0    0  0.13410700715E+02  0.14617190551E+02  0.84977150723E+02  0.11843876173E+03  0.80081926689E+02 0.  0.
          5    1    3    3  501    0  0.34517474275E+02 -0.30249159370E+02 -0.50283957850E+02  0.68242465445E+02  0.47000000000E+01 0. -1.
        -11    1    4    4    0    0  0.13655587539E+02  0.10527474980E+03 -0.10038325276E+03  0.14610285915E+03  0.00000000000E+00 0.  1.
         12    1    4    4    0    0 -0.39402254427E+02  0.21547025925E+02 -0.34652182878E+02  0.56723767138E+02  0.00000000000E+00 0. -1.
         -5    1    5    5    0  502 -0.22181508102E+02 -0.11118980690E+03  0.82709613838E+02  0.14042137545E+03  0.47000000000E+01 0.  1.
         13    1    6    6    0    0 -0.23196798854E+02  0.25456641068E+02  0.68870370074E+02  0.77001687811E+02  0.00000000000E+00 0. -1.
        -14    1    6    6    0    0  0.36607499569E+02 -0.10839450518E+02  0.16106780649E+02  0.41437073921E+02  0.00000000000E+00 0.  1.
</event>
<event>
12    1  0.8691829E-002  0.1977768E+03  0.7818608E-02  0.1151919E+00
         21   -1    0    0  501  502  0.00000000000E+00  0.00000000000E+00  0.26230880626E+03  0.26230880626E+03  0.00000000000E+00 0. -1.
         21   -1    0    0  502  503 -0.00000000000E+00 -0.00000000000E+00 -0.24624633085E+03  0.24624633085E+03  0.00000000000E+00 0. -1.
         -6    2    1    2    0  503 -0.63184499611E+02 -0.72469516327E+02 -0.15248034794E+03  0.24973167580E+03  0.17283385549E+03 0.  0.
        -24    2    3    3    0    0 -0.57763707715E+02 -0.11700407250E+03 -0.11257205342E+03  0.18950316386E+03  0.78818671601E+02 0.  0.
          6    2    1    2  501    0  0.63184499611E+02  0.72469516327E+02  0.16854282335E+03  0.25882346130E+03  0.17128569418E+03 0.  0.
         24    2    5    5    0    0 -0.20404557028E+02  0.70972967143E+02  0.12368828926E+03  0.16383193917E+03  0.78029503254E+02 0.  0.
          5    1    5    5  501    0  0.83589056639E+02  0.14965491837E+01  0.44854534088E+02  0.94991522135E+02  0.47000000000E+01 0. -1.
        -11    1    6    6    0    0  0.18719795177E+02 -0.54605004996E+01  0.11794757388E+02  0.22789561186E+02  0.00000000000E+00 0.  1.
         12    1    6    6    0    0 -0.39124352206E+02  0.76433467642E+02  0.11189353188E+03  0.14104237798E+03  0.00000000000E+00 0. -1.
         -5    1    3    3    0  503 -0.54207918959E+01  0.44534556175E+02 -0.39908294526E+02  0.60228511939E+02  0.47000000000E+01 0.  1.
         11    1    4    4    0    0 -0.61044525045E+02 -0.59428309598E+02 -0.98325754945E+02  0.13010039241E+03  0.00000000000E+00 0. -1.
        -12    1    4    4    0    0  0.32808173304E+01 -0.57575762903E+02 -0.14246298473E+02  0.59402771454E+02  0.00000000000E+00 0.  1.
</event>
<event>
12    1  0.8691829E-002  0.2175460E+03  0.7818608E-02  0.1135736E+00
         21   -1    0    0  503  502  0.00000000000E+00  0.00000000000E+00  0.25962843550E+03  0.25962843550E+03  0.00000000000E+00 0. -1.
         21   -1    0    0  501  503 -0.00000000000E+00 -0.00000000000E+00 -0.18400672405E+03  0.18400672405E+03  0.00000000000E+00 0. -1.
          6    2    1    2  501    0  0.11280653574E+03 -0.70466797015E+02  0.16078460849E+02  0.21808768043E+03  0.17208380361E+03 0.  0.
         24    2    3    3    0    0 -0.89221873787E+01 -0.50874968539E+02  0.26191491720E+01  0.93970941646E+02  0.78458970679E+02 0.  0.
         -6    2    1    2    0  502 -0.11280653574E+03  0.70466797015E+02  0.59543250603E+02  0.22554747912E+03  0.17214930339E+03 0.  0.
        -24    2    5    5    0    0 -0.21058126353E+02  0.15718475192E+02 -0.33071641002E+02  0.84073956807E+02  0.72692376675E+02 0.  0.
          5    1    3    3  501    0  0.12172872312E+03 -0.19591828476E+02  0.13459311677E+02  0.12411673879E+03  0.47000000000E+01 0. -1.
        -11    1    4    4    0    0 -0.82017814423E+01 -0.70339595886E+02  0.12845318257E+02  0.71971731738E+02  0.00000000000E+00 0.  1.
         12    1    4    4    0    0 -0.72040593642E+00  0.19464627346E+02 -0.10226169085E+02  0.21999209909E+02  0.00000000000E+00 0. -1.
         -5    1    5    5    0  502 -0.91748409391E+02  0.54748321823E+02  0.92614891605E+02  0.14147352231E+03  0.47000000000E+01 0.  1.
         13    1    6    6    0    0 -0.43741949961E+02  0.26456016486E+02 -0.28616270268E+02  0.58584724278E+02  0.00000000000E+00 0. -1.
        -14    1    6    6    0    0  0.22683823608E+02 -0.10737541294E+02 -0.44553707333E+01  0.25489232528E+02  0.00000000000E+00 0.  1.
</event>
<event>
12    1  0.8691829E-002  0.2070103E+03  0.7818608E-02  0.1143971E+00
         21   -1    0    0  503  502  0.00000000000E+00  0.00000000000E+00  0.23967505418E+03  0.23967505418E+03  0.00000000000E+00 0. -1.
         21   -1    0    0  501  503 -0.00000000000E+00 -0.00000000000E+00 -0.33921451149E+03  0.33921451149E+03  0.00000000000E+00 0.  1.
          6    2    1    2  501    0  0.11212027138E+03 -0.22322216969E+02 -0.24885251255E+03  0.32364918387E+03  0.17248763606E+03 0.  0.
         24    2    3    3    0    0  0.61299004384E+02 -0.60362417944E+02 -0.84572459754E+02  0.14746778924E+03  0.84811900549E+02 0.  0.
         -6    2    1    2    0  502 -0.11212027138E+03  0.22322216969E+02  0.14931305524E+03  0.25524038181E+03  0.17258049547E+03 0.  0.
        -24    2    5    5    0    0 -0.76138190794E+02 -0.81245669130E+01  0.17206690215E+03  0.20268998389E+03  0.74921145664E+02 0.  0.
          5    1    3    3  501    0  0.50821266997E+02  0.38040200975E+02 -0.16428005279E+03  0.17618139463E+03  0.47000000000E+01 0. -1.
        -11    1    4    4    0    0  0.18991916471E+02 -0.10526240400E+02 -0.78918768784E+02  0.81851491706E+02  0.00000000000E+00 0.  1.
         12    1    4    4    0    0  0.42307087913E+02 -0.49836177544E+02 -0.56536909701E+01  0.65616297529E+02  0.00000000000E+00 0. -1.
         -5    1    5    5    0  502 -0.35982080586E+02  0.30446783882E+02 -0.22753846915E+02  0.52550397919E+02  0.47000000000E+01 0.  1.
         13    1    6    6    0    0  0.66769088225E+01 -0.31353023795E+00  0.73113673797E+02  0.73418585581E+02  0.00000000000E+00 0. -1.
        -14    1    6    6    0    0 -0.82815099617E+02 -0.78110366750E+01  0.98953228355E+02  0.12927139831E+03  0.00000000000E+00 0.  1.
</event>
<event>
12    1  0.8691829E-002  0.2165042E+03  0.7818608E-02  0.1136702E+00
         21   -1    0    0  503  502  0.00000000000E+00  0.00000000000E+00  0.44196892158E+02  0.44196892158E+02  0.00000000000E+00 0.  1.
         21   -1    0    0  501  503 -0.00000000000E+00 -0.00000000000E+00 -0.12021133498E+04  0.12021133498E+04  0.00000000000E+00 0. -1.
          6    2    1    2  501    0  0.12297297695E+02 -0.13062030965E+03 -0.79520706095E+03  0.82389790127E+03  0.17099881021E+03 0.  0.
         24    2    3    3    0    0 -0.42448541949E+02 -0.92727829651E+02 -0.33945059974E+03  0.36327985024E+03  0.79656831571E+02 0.  0.
         -6    2    1    2    0  502 -0.12297297695E+02  0.13062030965E+03 -0.36270939672E+03  0.42241234072E+03  0.17222424424E+03 0.  0.
        -24    2    5    5    0    0 -0.42301769143E+02  0.15414429024E+02 -0.21528067169E+03  0.23286028402E+03  0.76492483119E+02 0.  0.
          5    1    3    3  501    0  0.54745839644E+02 -0.37892480001E+02 -0.45575646121E+03  0.46061805103E+03  0.47000000000E+01 0. -1.
        -11    1    4    4    0    0 -0.48704982723E+02 -0.50557465338E+02 -0.28814518666E+03  0.29657356801E+03  0.00000000000E+00 0.  1.
         12    1    4    4    0    0  0.62564407737E+01 -0.42170364313E+02 -0.51305413080E+02  0.66706282229E+02  0.00000000000E+00 0. -1.
         -5    1    5    5    0  502  0.30004471449E+02  0.11520588063E+03 -0.14742872502E+03  0.18955205670E+03  0.47000000000E+01 0.  1.
         11    1    6    6    0    0 -0.38753128962E+02  0.10907872386E+02 -0.37598960016E+02  0.55086009826E+02  0.00000000000E+00 0. -1.
        -12    1    6    6    0    0 -0.35486401812E+01  0.45065566383E+01 -0.17768171168E+03  0.17777427419E+03  0.00000000000E+00 0.  1.
</event>
<event>
12    1  0.8691829E-002  0.1747871E+03  0.7818608E-02  0.1173495E+00
         21   -1    0    0  501  502  0.00000000000E+00  0.00000000000E+00  0.86986626025E+02  0.86986626025E+02  0.00000000000E+00 0.  1.
         21   -1    0    0  502  503 -0.00000000000E+00 -0.00000000000E+00 -0.41051200897E+03  0.41051200897E+03  0.00000000000E+00 0.  1.
         -6    2    1    2    0  503 -0.19458441562E+00 -0.28415601916E+02 -0.25885599553E+03  0.31113160415E+03  0.17026145890E+03 0.  0.
        -24    2    3    3    0    0 -0.54456184233E+01 -0.66207380784E+02 -0.90215631975E+02  0.13816497694E+03  0.80855603212E+02 0.  0.
          6    2    1    2  501    0  0.19458441562E+00  0.28415601916E+02 -0.64669387416E+02  0.18636703084E+03  0.17246175292E+03 0.  0.
         24    2    5    5    0    0  0.11450255008E+02  0.67578462572E+02 -0.90258653486E+02  0.13802119014E+03  0.78773520010E+02 0.  0.
          5    1    5    5  501    0 -0.11255670592E+02 -0.39162860657E+02  0.25589266070E+02  0.48345840703E+02  0.47000000000E+01 0. -1.
        -13    1    6    6    0    0  0.36045616813E+02  0.12259675421E+02 -0.58117066991E+02  0.69477907341E+02  0.00000000000E+00 0.  1.
         14    1    6    6    0    0 -0.24595361805E+02  0.55318787152E+02 -0.32141586495E+02  0.68543282798E+02  0.00000000000E+00 0. -1.
         -5    1    3    3    0  503  0.52510340076E+01  0.37791778869E+02 -0.16864036355E+03  0.17296662721E+03  0.47000000000E+01 0.  1.
         13    1    4    4    0    0  0.32130520180E+02 -0.60468877332E+01 -0.19831033530E+02  0.38238790111E+02  0.00000000000E+00 0. -1.
        -14    1    4    4    0    0 -0.37576138604E+02 -0.60160493051E+02 -0.70384598445E+02  0.99926186832E+02  0.00000000000E+00 0.  1.
</event>
<event>
12    1  0.8691829E-002  0.5500566E+03  0.7818608E-02  0.1001499E+00
         21   -1    0    0  503  502  0.00000000000E+00  0.00000000000E+00  0.69547908774E+03  0.69547908774E+03  0.00000000000E+00 0. -1.
         21   -1    0    0  501  503 -0.00000000000E+00 -0.00000000000E+00 -0.54638488726E+03  0.54638488726E+03  0.00000000000E+00 0.  1.
          6    2    1    2  501    0 -0.51244209919E+03 -0.99422509797E+02  0.35517415245E+03  0.65476024820E+03  0.17343749184E+03 0.  0.
         24    2    3    3    0    0 -0.46079459013E+03 -0.74842177947E+02  0.25239646830E+03  0.53704448772E+03  0.82339532947E+02 0.  0.
         -6    2    1    2    0  502  0.51244209919E+03  0.99422509797E+02 -0.20607995197E+03  0.58710372679E+03  0.17245317895E+03 0.  0.
        -24    2    5    5    0    0  0.43953614260E+03  0.33465999209E+02 -0.14251835947E+03  0.46993843399E+03  0.78858450421E+02 0.  0.
          5    1    3    3  501    0 -0.51647509059E+02 -0.24580331850E+02  0.10277768415E+03  0.11771576048E+03  0.47000000000E+01 0. -1.
        -13    1    4    4    0    0 -0.34910456068E+02  0.65549840611E+01  0.42288214456E+02  0.55226812698E+02  0.00000000000E+00 0.  1.
         14    1    4    4    0    0 -0.42588413406E+03 -0.81397162008E+02  0.21010825384E+03  0.48181767502E+03  0.00000000000E+00 0. -1.
         -5    1    5    5    0  502  0.72905956593E+02  0.65956510588E+02 -0.63561592498E+02  0.11716529280E+03  0.47000000000E+01 0.  1.
         11    1    6    6    0    0  0.24182865663E+03  0.16607634815E+02 -0.37012904738E+02  0.24520780538E+03  0.00000000000E+00 0. -1.
        -12    1    6    6    0    0  0.19770748597E+03  0.16858364394E+02 -0.10550545474E+03  0.22473062861E+03  0.00000000000E+00 0.  1.
</event>
<event>
12    1  0.8691829E-002  0.3256030E+03  0.7818608E-02  0.1073113E+00
         21   -1    0    0  501  502  0.00000000000E+00  0.00000000000E+00  0.26858895316E+03  0.26858895316E+03  0.00000000000E+00 0.  1.
         21   -1    0    0  502  503 -0.00000000000E+00 -0.00000000000E+00 -0.41693922459E+03  0.41693922459E+03  0.00000000000E+00 0. -1.
         -6    2    1    2    0  503  0.27470849616E+03 -0.31898810728E+02 -0.15357500241E+03  0.36000356179E+03  0.17185747335E+03 0.  0.
        -24    2    3    3    0    0  0.26065576506E+03 -0.16725993450E+02 -0.81397170671E+02  0.28477442494E+03  0.79055594306E+02 0.  0.
          6    2    1    2  501    0 -0.27470849616E+03  0.31898810728E+02  0.52247309879E+01  0.32552461597E+03  0.17162950154E+03 0.  0.
         24    2    5    5    0    0 -0.24302579040E+03  0.50171292424E+02  0.51367761575E+02  0.26645730941E+03  0.82353854963E+02 0.  0.
          5    1    5    5  501    0 -0.31682705759E+02 -0.18272481696E+02 -0.46143030587E+02  0.59067306552E+02  0.47000000000E+01 0. -1.
        -11    1    6    6    0    0 -0.14182628993E+03  0.70104977735E+02  0.34837335942E+02  0.16199705057E+03  0.00000000000E+00 0.  1.
         12    1    6    6    0    0 -0.10119950047E+03 -0.19933685310E+02  0.16530425633E+02  0.10446025885E+03  0.00000000000E+00 0. -1.
         -5    1    3    3    0  503  0.14052731099E+02 -0.15172817278E+02 -0.72177831744E+02  0.75229136847E+02  0.47000000000E+01 0.  1.
         13    1    4    4    0    0  0.36428579921E+02 -0.29618050546E+02 -0.36113233526E+01  0.47088342608E+02  0.00000000000E+00 0. -1.
        -14    1    4    4    0    0  0.22422718514E+03  0.12892057096E+02 -0.77785847318E+02  0.23768608233E+03  0.00000000000E+00 0.  1.
</event>
<event>
12    1  0.8691829E-002  0.2583643E+03  0.7818608E-02  0.1108130E+00
         21   -1    0    0  503  502  0.00000000000E+00  0.00000000000E+00  0.15280975632E+03  0.15280975632E+03  0.00000000000E+00 0. -1.
         21   -1    0    0  501  503 -0.00000000000E+00 -0.00000000000E+00 -0.73755704057E+03  0.73755704057E+03  0.00000000000E+00 0.  1.
          6    2    1    2  501    0 -0.83493455593E-01  0.19268382202E+03 -0.57664416170E+03  0.63187864247E+03  0.17211934043E+03 0.  0.
         24    2    3    3    0    0 -0.11651306775E+02  0.18895066843E+03 -0.58191058397E+03  0.61782247143E+03  0.85126790270E+02 0.  0.
         -6    2    1    2    0  502  0.83493455593E-01 -0.19268382202E+03 -0.81031225535E+01  0.25848815442E+03  0.17211450590E+03 0.  0.
        -24    2    5    5    0    0 -0.15275295414E+02 -0.54545745075E+02  0.46191651117E+02  0.10919638256E+03  0.81127112451E+02 0.  0.
          5    1    3    3  501    0  0.11567813319E+02  0.37331535874E+01  0.52664222717E+01  0.14056171037E+02  0.47000000000E+01 0. -1.
        -13    1    4    4    0    0 -0.40438411715E+02  0.43914470374E+02 -0.16948026478E+03  0.17968668844E+03  0.00000000000E+00 0.  1.
         14    1    4    4    0    0  0.28787104941E+02  0.14503619806E+03 -0.41243031919E+03  0.43813578300E+03  0.00000000000E+00 0. -1.
         -5    1    5    5    0  502  0.15358788870E+02 -0.13813807695E+03 -0.54294773671E+02  0.14929177186E+03  0.47000000000E+01 0.  1.
         11    1    6    6    0    0 -0.48372309758E+02 -0.40092689327E+02  0.28947353615E+02  0.69175525803E+02  0.00000000000E+00 0. -1.
        -12    1    6    6    0    0  0.33097014344E+02 -0.14453055748E+02  0.17244297502E+02  0.40020856753E+02  0.00000000000E+00 0.  1.
</event>
<event>
12    1  0.8691829E-002  0.2180398E+03  0.7818608E-02  0.1135676E+00
         21   -1    0    0  503  502  0.00000000000E+00  0.00000000000E+00  0.10249417060E+03  0.10249417060E+03  0.00000000000E+00 0.  1.
         21   -1    0    0  501  503 -0.00000000000E+00 -0.00000000000E+00 -0.46730986443E+03  0.46730986443E+03  0.00000000000E+00 0.  1.
          6    2    1    2  501    0 -0.10186494469E+03 -0.84911249798E+02 -0.14661341352E+03  0.26133429914E+03  0.17092026090E+03 0.  0.
         24    2    3    3    0    0 -0.12378571928E+03 -0.96049067621E+02 -0.97338472627E+02  0.20606512922E+03  0.91868011503E+02 0.  0.
         -6    2    1    2    0  502  0.10186494469E+03  0.84911249798E+02 -0.21820228031E+03  0.30846973588E+03  0.17307499970E+03 0.  0.
        -24    2    5    5    0    0  0.33120444391E+02  0.59306399085E+02 -0.61012255287E+02  0.13494103892E+03  0.99359830319E+02 0.  0.
          5    1    3    3  501    0  0.21920774587E+02  0.11137817824E+02 -0.49274940893E+02  0.55269169927E+02  0.47000000000E+01 0. -1.
        -13    1    4    4    0    0 -0.42649824130E+02  0.12192855881E+02 -0.37750111868E+02  0.58247267566E+02  0.00000000000E+00 0.  1.
         14    1    4    4    0    0 -0.81135895147E+02 -0.10824192350E+03 -0.59588360759E+02  0.14781786165E+03  0.00000000000E+00 0. -1.
         -5    1    5    5    0  502  0.68744500300E+02  0.25604850713E+02 -0.15719002502E+03  0.17352869696E+03  0.47000000000E+01 0.  1.
         13    1    6    6    0    0 -0.10712004599E+02 -0.23672235926E+02 -0.18620412975E+02  0.31966256828E+02  0.00000000000E+00 0. -1.
        -14    1    6    6    0    0  0.43832448990E+02  0.82978635010E+02 -0.42391842312E+02  0.10297478209E+03  0.00000000000E+00 0.  1.
</event>
<event>
12    1  0.8691829E-002  0.1846664E+03  0.7818608E-02  0.1163902E+00
         21   -1    0    0  501  502  0.00000000000E+00  0.00000000000E+00  0.60452368406E+03  0.60452368406E+03  0.00000000000E+00 0. -1.
         21   -1    0    0  502  503 -0.00000000000E+00 -0.00000000000E+00 -0.61995806625E+02  0.61995806625E+02  0.00000000000E+00 0. -1.
         -6    2    1    2    0  503  0.88759660555E+01  0.61820499902E+02  0.16364166273E+03  0.24502636127E+03  0.17134400181E+03 0.  0.
        -24    2    3    3    0    0  0.71271007983E+02  0.41851536056E+02  0.92265759341E+02  0.14802888523E+03  0.81046115675E+02 0.  0.
          6    2    1    2  501    0 -0.88759660555E+01 -0.61820499902E+02  0.37888621471E+03  0.42149312942E+03  0.17378474463E+03 0.  0.
         24    2    5    5    0    0  0.17923436119E+02 -0.97520643533E+02  0.33527001935E+03  0.35890582471E+03  0.81091797758E+02 0.  0.
          5    1    5    5  501    0 -0.26799402174E+02  0.35700143630E+02  0.43616195364E+02  0.62587304704E+02  0.47000000000E+01 0. -1.
        -11    1    6    6    0    0  0.40568387557E+02 -0.73118938155E+02  0.29518257169E+03  0.30679785497E+03  0.00000000000E+00 0.  1.
         12    1    6    6    0    0 -0.22644951438E+02 -0.24401705378E+02  0.40087447655E+02  0.52107969740E+02  0.00000000000E+00 0. -1.
         -5    1    3    3    0  503 -0.62395041927E+02  0.19968963846E+02  0.71375903388E+02  0.96997476043E+02  0.47000000000E+01 0.  1.
         11    1    4    4    0    0  0.11118272315E+02 -0.21272401075E+02  0.39172051124E+02  0.45941055888E+02  0.00000000000E+00 0. -1.
        -12    1    4    4    0    0  0.60152735668E+02  0.63123937132E+02  0.53093708217E+02  0.10208782934E+03  0.00000000000E+00 0.  1.
</event>
<event>
12    1  0.8691829E-002  0.2108785E+03  0.7818608E-02  0.1141102E+00
         21   -1    0    0  501  502  0.00000000000E+00  0.00000000000E+00  0.34875418919E+03  0.34875418919E+03  0.00000000000E+00 0.  1.
         21   -1    0    0  502  503 -0.00000000000E+00 -0.00000000000E+00 -0.27360524497E+03  0.27360524497E+03  0.00000000000E+00 0.  1.
         -6    2    1    2    0  503 -0.11958610070E+03 -0.96171945240E+01 -0.19030999249E+03  0.28405570662E+03  0.17342556130E+03 0.  0.
        -24    2    3    3    0    0 -0.13241047157E+03 -0.25232292196E+02 -0.20525970556E+03  0.25848463538E+03  0.80706619614E+02 0.  0.
          6    2    1    2  501    0  0.11958610070E+03  0.96171945240E+01  0.26545893671E+03  0.33830372754E+03  0.17201057840E+03 0.  0.
         24    2    5    5    0    0  0.10296058065E+03 -0.25165728128E+01  0.28249431147E+03  0.31117569371E+03  0.80125289616E+02 0.  0.
          5    1    5    5  501    0  0.16625520051E+02  0.12133767337E+02 -0.17035374759E+02  0.27128033838E+02  0.47000000000E+01 0. -1.
        -11    1    6    6    0    0  0.76033631419E+02 -0.37887243974E+02  0.16568939510E+03  0.18619756177E+03  0.00000000000E+00 0.  1.
         12    1    6    6    0    0  0.26926949227E+02  0.35370671161E+02  0.11680491637E+03  0.12497813193E+03  0.00000000000E+00 0. -1.
         -5    1    3    3    0  503  0.12824370870E+02  0.15615097672E+02  0.14949713072E+02  0.25571071242E+02  0.47000000000E+01 0.  1.
         11    1    4    4    0    0 -0.93973776178E+02 -0.52810542387E+02 -0.16063267383E+03  0.19344994158E+03  0.00000000000E+00 0. -1.
        -12    1    4    4    0    0 -0.38436695389E+02  0.27578250191E+02 -0.44627031734E+02  0.65034693798E+02  0.00000000000E+00 0.  1.
</event>
<event>
12    1  0.8691829E-002  0.2189208E+03  0.7818608E-02  0.1134886E+00
         21   -1    0    0  503  502  0.00000000000E+00  0.00000000000E+00  0.75678510888E+03  0.75678510888E+03  0.00000000000E+00 0. -1.
         21   -1    0    0  501  503 -0.00000000000E+00 -0.00000000000E+00 -0.55034267517E+03  0.55034267517E+03  0.00000000000E+00 0. -1.
          6    2    1    2  501    0 -0.62654775901E+02 -0.11927132530E+03 -0.51175192459E+03  0.55661150673E+03  0.17255453376E+03 0.  0.
         24    2    3    3    0    0 -0.83600258797E+02 -0.85451024135E+02 -0.22773385581E+03  0.26978249945E+03  0.81418714859E+02 0.  0.
         -6    2    1    2    0  502  0.62654775901E+02  0.11927132530E+03  0.71819435830E+03  0.75051627732E+03  0.17123164500E+03 0.  0.
        -24    2    5    5    0    0 -0.29403109654E+02  0.52694134477E+02  0.40591891010E+03  0.41818327839E+03  0.80410683885E+02 0.  0.
          5    1    3    3  501    0  0.20945482897E+02 -0.33820301170E+02 -0.28401806878E+03  0.28682900729E+03  0.47000000000E+01 0. -1.
        -11    1    4    4    0    0 -0.47790733717E+02 -0.10079968868E+02 -0.35995588486E+02  0.60673242802E+02  0.00000000000E+00 0.  1.
         12    1    4    4    0    0 -0.35809525080E+02 -0.75371055267E+02 -0.19173826732E+03  0.20910925664E+03  0.00000000000E+00 0. -1.
         -5    1    5    5    0  502  0.92057885554E+02  0.66577190827E+02  0.31227544820E+03  0.33233299894E+03  0.47000000000E+01 0.  1.
         13    1    6    6    0    0  0.15063642516E+02  0.51584543950E+02  0.17680239484E+03  0.18478897511E+03  0.00000000000E+00 0. -1.
        -14    1    6    6    0    0 -0.44466752170E+02  0.11095905274E+01  0.22911651526E+03  0.23339430328E+03  0.00000000000E+00 0.  1.
</event>
<event>
12    1  0.8691829E-002  0.2002283E+03  0.7818608E-02  0.1149640E+00
         21   -1    0    0  501  502  0.00000000000E+00  0.00000000000E+00  0.13078458791E+03  0.13078458791E+03  0.00000000000E+00 0. -1.
         21   -1    0    0  502  503 -0.00000000000E+00 -0.00000000000E+00 -0.31114801449E+03  0.31114801449E+03  0.00000000000E+00 0. -1.
         -6    2    1    2    0  503  0.45152149057E+02  0.92391089512E+02 -0.61292175963E+02  0.20897484829E+03  0.17128609517E+03 0.  0.
        -24    2    3    3    0    0 -0.19105704585E+02  0.17248558012E+02  0.12244024277E+02  0.85665746676E+02  0.80784672568E+02 0.  0.
          6    2    1    2  501    0 -0.45152149057E+02 -0.92391089512E+02 -0.11907125062E+03  0.23295775411E+03  0.17180373248E+03 0.  0.
         24    2    5    5    0    0 -0.52620188754E+02  0.65769576596E+01 -0.31957976457E+02  0.10081669875E+03  0.79564777702E+02 0.  0.
          5    1    5    5  501    0  0.74680396969E+01 -0.98968047172E+02 -0.87113274162E+02  0.13214105537E+03  0.47000000000E+01 0. -1.
        -11    1    6    6    0    0 -0.41210767015E+02  0.13056745174E+02  0.19708379714E+02  0.47510274083E+02  0.00000000000E+00 0.  1.
         12    1    6    6    0    0 -0.11409421739E+02 -0.64797875146E+01 -0.51666356171E+02  0.53306424666E+02  0.00000000000E+00 0. -1.
         -5    1    3    3    0  503  0.64257853642E+02  0.75142531501E+02 -0.73536200241E+02  0.12330910161E+03  0.47000000000E+01 0.  1.
         13    1    4    4    0    0  0.16043075528E+02  0.38732223701E+02 -0.22815138480E+01  0.41985363291E+02  0.00000000000E+00 0. -1.
        -14    1    4    4    0    0 -0.35148780113E+02 -0.21483665689E+02  0.14525538125E+02  0.43680383386E+02  0.00000000000E+00 0.  1.
</event>
<event>
12    1  0.8691829E-002  0.1975944E+03  0.7818608E-02  0.1152049E+00
         21   -1    0    0  501  502  0.00000000000E+00  0.00000000000E+00  0.63569417337E+02  0.63569417337E+02  0.00000000000E+00 0. -1.
         21   -1    0    0  502  503 -0.00000000000E+00 -0.00000000000E+00 -0.70387190903E+03  0.70387190903E+03  0.00000000000E+00 0.  1.
         -6    2    1    2    0  503 -0.24454866233E+02 -0.90744122487E+02 -0.17943374169E+03  0.26599984124E+03  0.17241494029E+03 0.  0.
        -24    2    3    3    0    0  0.45238754901E+02 -0.75938290210E+02 -0.81546465052E+02  0.14483704818E+03  0.80714160447E+02 0.  0.
          6    2    1    2  501    0  0.24454866233E+02  0.90744122487E+02 -0.46086875000E+03  0.50144148512E+03  0.17381318139E+03 0.  0.
         24    2    5    5    0    0  0.49489085424E+02  0.79729172060E+02 -0.45795238206E+03  0.47353742690E+03  0.75573804907E+02 0.  0.
          5    1    5    5  501    0 -0.25034219192E+02  0.11014950427E+02 -0.29163679455E+01  0.27904058225E+02  0.47000000000E+01 0. -1.
        -13    1    6    6    0    0 -0.23110061660E+01  0.45080097255E+02 -0.30585001081E+03  0.30916303956E+03  0.00000000000E+00 0.  1.
         14    1    6    6    0    0  0.51800091590E+02  0.34649074805E+02 -0.15210237125E+03  0.16437438734E+03  0.00000000000E+00 0. -1.
         -5    1    3    3    0  503 -0.69693621134E+02 -0.14805832277E+02 -0.97887276636E+02  0.12116279307E+03  0.47000000000E+01 0.  1.
         13    1    4    4    0    0 -0.92232837260E+01 -0.18333232896E+02  0.10751191789E+02  0.23168178953E+02  0.00000000000E+00 0. -1.
        -14    1    4    4    0    0  0.54462038627E+02 -0.57605057314E+02 -0.92297656840E+02  0.12166886922E+03  0.00000000000E+00 0.  1.
</event>
<event>
12    1  0.8691829E-002  0.2039044E+03  0.7818608E-02  0.1150667E+00
         21   -1    0    0  503  502  0.00000000000E+00  0.00000000000E+00  0.14441820696E+04  0.14441820696E+04  0.00000000000E+00 0. -1.
         21   -1    0    0  501  503 -0.00000000000E+00 -0.00000000000E+00 -0.32976863465E+02  0.32976863465E+02  0.00000000000E+00 0.  1.
          6    2    1    2  501    0 -0.26141725993E+02 -0.10471300611E+03  0.34168837816E+03  0.38837829933E+03  0.14979503375E+03 0.  0.
         24    2    3    3    0    0 -0.41118319844E+02 -0.10061866062E+03  0.34610568657E+03  0.37156566592E+03  0.80355875493E+02 0.  0.
         -6    2    1    2    0  502  0.26141725993E+02  0.10471300611E+03  0.10695168280E+04  0.10887806337E+04  0.17299947859E+03 0.  0.
        -24    2    5    5    0    0 -0.12112579157E+02  0.64239881650E+02  0.29913542561E+03  0.31637461306E+03  0.79607888842E+02 0.  0.
          5    1    3    3  501    0  0.14976593851E+02 -0.40943454878E+01 -0.44173084125E+01  0.16812633403E+02  0.47000000000E+01 0. -1.
        -11    1    4    4    0    0 -0.33684776926E+02 -0.12024545679E+01  0.63502584478E+02  0.71893590318E+02  0.00000000000E+00 0.  1.
         12    1    4    4    0    0 -0.74335429184E+01 -0.99416206049E+02  0.28260310209E+03  0.29967207561E+03  0.00000000000E+00 0. -1.
         -5    1    5    5    0  502  0.38254305151E+02  0.40473124455E+02  0.77038140237E+03  0.77240602068E+03  0.47000000000E+01 0.  1.
         11    1    6    6    0    0 -0.32830142907E+02  0.27234321843E+01  0.15244749041E+03  0.15596625500E+03  0.00000000000E+00 0. -1.
        -12    1    6    6    0    0  0.20717563749E+02  0.61516449466E+02  0.14668793520E+03  0.16040835806E+03  0.00000000000E+00 0.  1.
</event>
<event>
12    1  0.8691829E-002  0.3039930E+03  0.7818608E-02  0.1083389E+00
         21   -1    0    0  503  502  0.00000000000E+00  0.00000000000E+00  0.11875958947E+03  0.11875958947E+03  0.00000000000E+00 0.  1.
         21   -1    0    0  501  503 -0.00000000000E+00 -0.00000000000E+00 -0.81047032004E+03  0.81047032004E+03  0.00000000000E+00 0.  1.
          6    2    1    2  501    0  0.15730672940E+03 -0.19360509761E+03 -0.44293194619E+03  0.53721546752E+03  0.17373372915E+03 0.  0.
         24    2    3    3    0    0  0.95532972463E+01 -0.10336799627E+03 -0.19440216456E+03  0.23429146132E+03  0.79524078874E+02 0.  0.
         -6    2    1    2    0  502 -0.15730672940E+03  0.19360509761E+03 -0.24877878438E+03  0.39201444200E+03  0.17191887110E+03 0.  0.
        -24    2    5    5    0    0 -0.11180367239E+03  0.12738918154E+03 -0.77515786301E+02  0.20278394696E+03  0.79903487334E+02 0.  0.
          5    1    3    3  501    0  0.14775343215E+03 -0.90237101340E+02 -0.24852978163E+03  0.30292400620E+03  0.47000000000E+01 0. -1.
        -11    1    4    4    0    0  0.25200294411E+02 -0.80876721430E+02 -0.79520676556E+02  0.11618793787E+03  0.00000000000E+00 0.  1.
         12    1    4    4    0    0 -0.15646997165E+02 -0.22491274840E+02 -0.11488148800E+03  0.11810352344E+03  0.00000000000E+00 0. -1.
         -5    1    5    5    0  502 -0.45503057011E+02  0.66215916072E+02 -0.17126299808E+03  0.18923049503E+03  0.47000000000E+01 0.  1.
         13    1    6    6    0    0 -0.73943719169E+01  0.54608679999E+02 -0.27500224351E+01  0.55175604126E+02  0.00000000000E+00 0. -1.
        -14    1    6    6    0    0 -0.10440930047E+03  0.72780501540E+02 -0.74765763866E+02  0.14760834284E+03  0.00000000000E+00 0.  1.
</event>
<event>
12    1  0.8691829E-002  0.1952303E+03  0.7818608E-02  0.1154007E+00
         21   -1    0    0  501  502  0.00000000000E+00  0.00000000000E+00  0.28930738159E+03  0.28930738159E+03  0.00000000000E+00 0.  1.
         21   -1    0    0  502  503 -0.00000000000E+00 -0.00000000000E+00 -0.21905548934E+03  0.21905548934E+03  0.00000000000E+00 0.  1.
         -6    2    1    2    0  503  0.21371377952E+01 -0.95998587892E+02 -0.12581200142E+03  0.23225744568E+03  0.16998401437E+03 0.  0.
        -24    2    3    3    0    0  0.81983498128E+01 -0.48260864748E+02  0.45261032876E+01  0.93240396227E+02  0.79227279845E+02 0.  0.
          6    2    1    2  501    0 -0.21371377952E+01  0.95998587892E+02  0.19606389366E+03  0.27610542524E+03  0.16903508280E+03 0.  0.
         24    2    5    5    0    0 -0.43987549293E+02  0.82467535912E+02  0.19654370609E+03  0.23186894109E+03  0.79987364413E+02 0.  0.
          5    1    5    5  501    0  0.41850411498E+02  0.13531051979E+02 -0.47981243332E+00  0.44236484152E+02  0.47000000000E+01 0. -1.
        -13    1    6    6    0    0 -0.30195054067E+02  0.15532693570E+02  0.13601985883E+02  0.36578954053E+02  0.00000000000E+00 0.  1.
         14    1    6    6    0    0 -0.13792495226E+02  0.66934842342E+02  0.18294172021E+03  0.19528998704E+03  0.00000000000E+00 0. -1.
         -5    1    3    3    0  503 -0.60612120177E+01 -0.47737723143E+02 -0.13033810470E+03  0.13901704946E+03  0.47000000000E+01 0.  1.
         13    1    4    4    0    0 -0.39548354359E+01  0.37077620925E+01  0.32523286230E+02  0.32971993725E+02  0.00000000000E+00 0. -1.
        -14    1    4    4    0    0  0.12153185249E+02 -0.51968626841E+02 -0.27997182942E+02  0.60268402502E+02  0.00000000000E+00 0.  1.
</event>
<event>
12    1  0.8691829E-002  0.2018989E+03  0.7818608E-02  0.1148172E+00
         21   -1    0    0  501  502  0.00000000000E+00  0.00000000000E+00  0.21064461502E+03  0.21064461502E+03  0.00000000000E+00 0.  1.
         21   -1    0    0  502  503 -0.00000000000E+00 -0.00000000000E+00 -0.34597492938E+03  0.34597492938E+03  0.00000000000E+00 0.  1.
         -6    2    1    2    0  503  0.86773023376E+02  0.59939087810E+02 -0.25247361792E+03  0.32319775499E+03  0.17202211849E+03 0.  0.
        -24    2    3    3    0    0  0.98799378615E+02  0.97630821273E+02 -0.21748427709E+03  0.27017281780E+03  0.80005288703E+02 0.  0.
          6    2    1    2  501    0 -0.86773023376E+02 -0.59939087810E+02  0.11714330355E+03  0.23342178941E+03  0.17216540411E+03 0.  0.
         24    2    5    5    0    0 -0.96263149913E+02 -0.18631556922E+02  0.13727241773E+03  0.18626623993E+03  0.78978899227E+02 0.  0.
          5    1    5    5  501    0  0.94901265360E+01 -0.41307530888E+02 -0.20129114175E+02  0.47155549484E+02  0.47000000000E+01 0. -1.
        -13    1    6    6    0    0 -0.21030693359E+02 -0.39461175356E+02  0.31025999072E+02  0.54425058953E+02  0.00000000000E+00 0.  1.
         14    1    6    6    0    0 -0.75232456554E+02  0.20829618434E+02  0.10624641866E+03  0.13184118098E+03  0.00000000000E+00 0. -1.
         -5    1    3    3    0  503 -0.12026355239E+02 -0.37691733463E+02 -0.34989340830E+02  0.53024937185E+02  0.47000000000E+01 0.  1.
         13    1    4    4    0    0 -0.40253806922E+01 -0.86179106654E+01 -0.29575202546E+02  0.31067099633E+02  0.00000000000E+00 0. -1.
        -14    1    4    4    0    0  0.10282475931E+03  0.10624873194E+03 -0.18790907454E+03  0.23910571817E+03  0.00000000000E+00 0.  1.
</event>
<event>
12    1  0.8691829E-002  0.1997162E+03  0.7818608E-02  0.1150606E+00
         21   -1    0    0  503  502  0.00000000000E+00  0.00000000000E+00  0.10516665858E+03  0.10516665858E+03  0.00000000000E+00 0. -1.
         21   -1    0    0  501  503 -0.00000000000E+00 -0.00000000000E+00 -0.92374004336E+03  0.92374004336E+03  0.00000000000E+00 0. -1.
          6    2    1    2  501    0  0.88471359546E+02  0.35166432356E+02 -0.80749355678E+03  0.83182473347E+03  0.17556390164E+03 0.  0.
         24    2    3    3    0    0  0.20151711995E+02 -0.87434860044E+01 -0.64324405872E+03  0.64853359134E+03  0.79689145917E+02 0.  0.
         -6    2    1    2    0  502 -0.88471359546E+02 -0.35166432356E+02 -0.11079828012E+02  0.19708196847E+03  0.17220534336E+03 0.  0.
        -24    2    5    5    0    0 -0.31986829422E+02 -0.64015793801E+01  0.57156817108E+02  0.10382828946E+03  0.80307374979E+02 0.  0.
          5    1    3    3  501    0  0.68319647551E+02  0.43909918361E+02 -0.16424949806E+03  0.18329114213E+03  0.47000000000E+01 0. -1.
        -13    1    4    4    0    0 -0.24799437085E+02  0.12101858092E+02 -0.12960272988E+03  0.13250786634E+03  0.00000000000E+00 0.  1.
         14    1    4    4    0    0  0.44951149080E+02 -0.20845344096E+02 -0.51364132883E+03  0.51602572500E+03  0.00000000000E+00 0. -1.
         -5    1    5    5    0  502 -0.56484530124E+02 -0.28764852976E+02 -0.68236645120E+02  0.93253679002E+02  0.47000000000E+01 0.  1.
         13    1    6    6    0    0  0.13949606092E+02 -0.11262457665E+02  0.54707665129E+02  0.57570505354E+02  0.00000000000E+00 0. -1.
        -14    1    6    6    0    0 -0.45936435514E+02  0.48608782846E+01  0.24491519792E+01  0.46257784111E+02  0.00000000000E+00 0.  1.
</event>
<event>
12    1  0.8691829E-002  0.2055211E+03  0.7818608E-02  0.1145241E+00
         21   -1    0    0  503  502  0.00000000000E+00  0.00000000000E+00  0.96571327282E+03  0.96571327282E+03  0.00000000000E+00 0.  1.
         21   -1    0    0  501  503 -0.00000000000E+00 -0.00000000000E+00 -0.44665991491E+02  0.44665991491E+02  0.00000000000E+00 0.  1.
          6    2    1    2  501    0  0.80185505928E+02 -0.81633735350E+02  0.38415394217E+03  0.43549373397E+03  0.17025498213E+03 0.  0.
         24    2    3    3    0    0  0.51562053566E+02 -0.11690086611E+03  0.34085544643E+03  0.37256582069E+03  0.79362443999E+02 0.  0.
         -6    2    1    2    0  502 -0.80185505928E+02  0.81633735350E+02  0.53689333916E+03  0.57488553034E+03  0.17071945774E+03 0.  0.
        -24    2    5    5    0    0 -0.36261745796E+02 -0.75124262804E+01  0.13505889178E+03  0.16091772007E+03  0.79260694084E+02 0.  0.
          5    1    3    3  501    0  0.28623452362E+02  0.35267130761E+02  0.43298495732E+02  0.62927913281E+02  0.47000000000E+01 0. -1.
        -11    1    4    4    0    0  0.67976904042E+02 -0.64119065729E+02  0.18627551795E+03  0.20840029429E+03  0.00000000000E+00 0.  1.
         12    1    4    4    0    0 -0.16414850476E+02 -0.52781800382E+02  0.15457992849E+03  0.16416552640E+03  0.00000000000E+00 0. -1.
         -5    1    5    5    0  502 -0.43923760132E+02  0.89146161630E+02  0.40183444738E+03  0.41396781027E+03  0.47000000000E+01 0.  1.
         11    1    6    6    0    0  0.14122430794E+02 -0.27257001839E+02  0.69018709276E+02  0.75537867530E+02  0.00000000000E+00 0. -1.
        -12    1    6    6    0    0 -0.50384176590E+02  0.19744575558E+02  0.66040182506E+02  0.85379852542E+02  0.00000000000E+00 0.  1.
</event>
<event>
12    1  0.8691829E-002  0.1974440E+03  0.7818608E-02  0.1154995E+00
         21   -1    0    0  501  502  0.00000000000E+00  0.00000000000E+00  0.12410034199E+03  0.12410034199E+03  0.00000000000E+00 0. -1.
         21   -1    0    0  502  503 -0.00000000000E+00 -0.00000000000E+00 -0.29313613060E+03  0.29313613060E+03  0.00000000000E+00 0. -1.
         -6    2    1    2    0  503 -0.47215930385E+02  0.42622676331E+02 -0.90909828729E+02  0.20489755886E+03  0.17225671553E+03 0.  0.
        -24    2    3    3    0    0 -0.59399965517E+02  0.22957026792E+02 -0.12748405727E+03  0.16136650469E+03  0.75707218904E+02 0.  0.
          6    2    1    2  501    0  0.47215930385E+02 -0.42622676331E+02 -0.78125959880E+02  0.21233891373E+03  0.18691739367E+03 0.  0.
         24    2    5    5    0    0 -0.44217045626E+02 -0.51368418394E+02 -0.51506861224E+02  0.11659371270E+03  0.79669790741E+02 0.  0.
          5    1    5    5  501    0  0.91432976011E+02  0.87457420635E+01 -0.26619098655E+02  0.95745201027E+02  0.47000000000E+01 0. -1.
        -11    1    6    6    0    0 -0.37821706705E+02 -0.40242251239E+02  0.79252457625E+01  0.55791843519E+02  0.00000000000E+00 0.  1.
         12    1    6    6    0    0 -0.63953389203E+01 -0.11126167156E+02 -0.59432106987E+02  0.60801869185E+02  0.00000000000E+00 0. -1.
         -5    1    3    3    0  503  0.12184035132E+02  0.19665649539E+02  0.36574228541E+02  0.43531054171E+02  0.47000000000E+01 0.  1.
         13    1    4    4    0    0 -0.32956698955E+02 -0.26018983648E+02 -0.67865023547E+02  0.79804717512E+02  0.00000000000E+00 0. -1.
        -14    1    4    4    0    0 -0.26443266562E+02  0.48976010440E+02 -0.59619033723E+02  0.81561787175E+02  0.00000000000E+00 0.  1.
</event>
<event>
12    1  0.8691829E-002  0.2094051E+03  0.7818608E-02  0.1143337E+00
         21   -1    0    0  503  502  0.00000000000E+00  0.00000000000E+00  0.71942324827E+02  0.71942324827E+02  0.00000000000E+00 0.  1.
         21   -1    0    0  501  503 -0.00000000000E+00 -0.00000000000E+00 -0.62387705559E+03  0.62387705559E+03  0.00000000000E+00 0.  1.
          6    2    1    2  501    0  0.28084031309E+02  0.10618614129E+03 -0.20012630916E+03  0.28965678379E+03  0.17828713740E+03 0.  0.
         24    2    3    3    0    0  0.24714914913E+02  0.12645100630E+03 -0.21541555242E+03  0.26362091125E+03  0.80569476918E+02 0.  0.
         -6    2    1    2    0  502 -0.28084031309E+02 -0.10618614129E+03 -0.35180842160E+03  0.40616259663E+03  0.17068883963E+03 0.  0.
        -24    2    5    5    0    0  0.42294172649E+01 -0.61370258101E+02 -0.33229766854E+03  0.34738010068E+03  0.80417642860E+02 0.  0.
          5    1    3    3  501    0  0.33691163962E+01 -0.20264865011E+02  0.15289243262E+02  0.26035872536E+02  0.47000000000E+01 0. -1.
        -13    1    4    4    0    0  0.49569481175E+02  0.11081559514E+03 -0.18558218917E+03  0.22176108434E+03  0.00000000000E+00 0.  1.
         14    1    4    4    0    0 -0.24854566262E+02  0.15635411158E+02 -0.29833363249E+02  0.41859826910E+02  0.00000000000E+00 0. -1.
         -5    1    5    5    0  502 -0.32313448574E+02 -0.44815883188E+02 -0.19510753065E+02  0.58782495947E+02  0.47000000000E+01 0.  1.
         13    1    6    6    0    0  0.40972464187E+01 -0.31783405295E+02 -0.30845366689E+02  0.44479308971E+02  0.00000000000E+00 0. -1.
        -14    1    6    6    0    0  0.13217084618E+00 -0.29586852806E+02 -0.30145230185E+03  0.30290079171E+03  0.00000000000E+00 0.  1.
</event>
<event>
12    1  0.8691829E-002  0.4349384E+03  0.7818608E-02  0.1032352E+00
         21   -1    0    0  501  502  0.00000000000E+00  0.00000000000E+00  0.12211549593E+04  0.12211549593E+04  0.00000000000E+00 0.  1.
         21   -1    0    0  502  503 -0.00000000000E+00 -0.00000000000E+00 -0.15667429571E+03  0.15667429571E+03  0.00000000000E+00 0. -1.
         -6    2    1    2    0  503  0.39021830627E+03  0.83419876624E+02  0.45512499811E+03  0.62917330890E+03  0.17172968981E+03 0.  0.
        -24    2    3    3    0    0  0.24501001353E+03 -0.10125379575E+02  0.31204849623E+03  0.40483174202E+03  0.79887704370E+02 0.  0.
          6    2    1    2  501    0 -0.39021830627E+03 -0.83419876624E+02  0.60935566546E+03  0.74865594609E+03  0.17303813518E+03 0.  0.
         24    2    5    5    0    0 -0.34613351353E+03 -0.78445666104E+02  0.43328361852E+03  0.56701986093E+03  0.88400774226E+02 0.  0.
          5    1    5    5  501    0 -0.44084792733E+02 -0.49742105208E+01  0.17607204694E+03  0.18163608516E+03  0.47000000000E+01 0. -1.
        -11    1    6    6    0    0 -0.33198239085E+03 -0.79758008893E+02  0.43468071004E+03  0.55273951143E+03  0.00000000000E+00 0.  1.
         12    1    6    6    0    0 -0.14151122688E+02  0.13123427890E+01 -0.13970915229E+01  0.14280349493E+02  0.00000000000E+00 0. -1.
         -5    1    3    3    0  503  0.14520829274E+03  0.93545256200E+02  0.14307650188E+03  0.22434156688E+03  0.47000000000E+01 0.  1.
         13    1    4    4    0    0  0.48874527351E+02 -0.96203989977E+01  0.12176778938E+03  0.13156240356E+03  0.00000000000E+00 0. -1.
        -14    1    4    4    0    0  0.19613548618E+03 -0.50498057741E+00  0.19028070685E+03  0.27326933846E+03  0.00000000000E+00 0.  1.
</event>
<event>
12    1  0.8691829E-002  0.1918132E+03  0.7818608E-02  0.1156912E+00
         21   -1    0    0  501  502  0.00000000000E+00  0.00000000000E+00  0.56222943616E+03  0.56222943616E+03  0.00000000000E+00 0.  1.
         21   -1    0    0  502  503 -0.00000000000E+00 -0.00000000000E+00 -0.65398175160E+02  0.65398175160E+02  0.00000000000E+00 0. -1.
         -6    2    1    2    0  503  0.21538415638E+02  0.82338570153E+02  0.25923838152E+03  0.32248542667E+03  0.17189755229E+03 0.  0.
        -24    2    3    3    0    0  0.43670249416E+02  0.10923408362E+03  0.24726116335E+03  0.28535416671E+03  0.80310284845E+02 0.  0.
          6    2    1    2  501    0 -0.21538415638E+02 -0.82338570153E+02  0.23759287949E+03  0.30514218465E+03  0.17151627616E+03 0.  0.
         24    2    5    5    0    0 -0.62293100071E+02 -0.81784703125E+02  0.22911768223E+03  0.26324743509E+03  0.78962850712E+02 0.  0.
          5    1    5    5  501    0  0.40754684433E+02 -0.55386702754E+00  0.84751972601E+01  0.41894749558E+02  0.47000000000E+01 0. -1.
        -13    1    6    6    0    0 -0.74181651616E+02 -0.47395495818E+02  0.12446185293E+03  0.15244672281E+03  0.00000000000E+00 0.  1.
         14    1    6    6    0    0  0.11888551545E+02 -0.34389207307E+02  0.10465582930E+03  0.11080071228E+03  0.00000000000E+00 0. -1.
         -5    1    3    3    0  503 -0.22131833778E+02 -0.26895513468E+02  0.11977218167E+02  0.37131259958E+02  0.47000000000E+01 0.  1.
         11    1    4    4    0    0 -0.17161177845E+02  0.41388588136E+02  0.44941574343E+02  0.63460746587E+02  0.00000000000E+00 0. -1.
        -12    1    4    4    0    0  0.60831427261E+02  0.67845495484E+02  0.20231958901E+03  0.22189342013E+03  0.00000000000E+00 0.  1.
</event>
<event>
12    1  0.8691829E-002  0.2108305E+03  0.7818608E-02  0.1141298E+00
         21   -1    0    0  503  502  0.00000000000E+00  0.00000000000E+00  0.62777014000E+03  0.62777014000E+03  0.00000000000E+00 0.  1.
         21   -1    0    0  501  503 -0.00000000000E+00 -0.00000000000E+00 -0.95299951859E+02  0.95299951859E+02  0.00000000000E+00 0.  1.
          6    2    1    2  501    0  0.36556531671E+02  0.11328206881E+03  0.79586961367E+02  0.22351756092E+03  0.17162985899E+03 0.  0.
         24    2    3    3    0    0  0.47140366080E+02  0.13782745178E+03  0.96211294338E+02  0.19169065685E+03  0.79183800018E+02 0.  0.
         -6    2    1    2    0  502 -0.36556531671E+02 -0.11328206881E+03  0.45288322678E+03  0.49955253094E+03  0.17401237587E+03 0.  0.
        -24    2    5    5    0    0 -0.64574651297E+02 -0.11727415144E+03  0.24644166187E+03  0.29112709711E+03  0.78092136457E+02 0.  0.
          5    1    3    3  501    0 -0.10583834409E+02 -0.24545382972E+02 -0.16624332971E+02  0.31826904072E+02  0.47000000000E+01 0. -1.
        -13    1    4    4    0    0  0.53920645703E+02  0.11768909127E+03  0.10691700277E+03  0.16789700330E+03  0.00000000000E+00 0.  1.
         14    1    4    4    0    0 -0.67802796230E+01  0.20138360513E+02 -0.10705708432E+02  0.23793653543E+02  0.00000000000E+00 0. -1.
         -5    1    5    5    0  502  0.28018119626E+02  0.39920826306E+01  0.20644156490E+03  0.20842543384E+03  0.47000000000E+01 0.  1.
         11    1    6    6    0    0 -0.15065463046E+02 -0.82734929298E+02  0.88695785484E+02  0.12222511634E+03  0.00000000000E+00 0. -1.
        -12    1    6    6    0    0 -0.49509188251E+02 -0.34539222142E+02  0.15774587639E+03  0.16890198076E+03  0.00000000000E+00 0.  1.
</event>
<event>
12    1  0.8691829E-002  0.2113223E+03  0.7818608E-02  0.1140735E+00
         21   -1    0    0  501  502  0.00000000000E+00  0.00000000000E+00  0.46226010817E+02  0.46226010817E+02  0.00000000000E+00 0.  1.
         21   -1    0    0  502  503 -0.00000000000E+00 -0.00000000000E+00 -0.96336474222E+03  0.96336474222E+03  0.00000000000E+00 0. -1.
         -6    2    1    2    0  503 -0.86186050551E+02  0.89048423164E+02 -0.48393230156E+03  0.52806021820E+03  0.17117086368E+03 0.  0.
        -24    2    3    3    0    0  0.15247728074E+02  0.56295897931E+02 -0.26059647249E+03  0.28054754801E+03  0.85992347839E+02 0.  0.
          6    2    1    2  501    0  0.86186050551E+02 -0.89048423164E+02 -0.43320642984E+03  0.48153053484E+03  0.16984165611E+03 0.  0.
         24    2    5    5    0    0 -0.12493672313E+02 -0.13719887561E+02 -0.22480890023E+03  0.23891211771E+03  0.78712331974E+02 0.  0.
          5    1    5    5  501    0  0.98679722864E+02 -0.75328535603E+02 -0.20839752961E+03  0.24261841713E+03  0.47000000000E+01 0. -1.
        -13    1    6    6    0    0  0.18130600268E+02 -0.20543197041E+02 -0.26437066767E+02  0.38074402293E+02  0.00000000000E+00 0.  1.
         14    1    6    6    0    0 -0.30624272581E+02  0.68233094799E+01 -0.19837183346E+03  0.20083771542E+03  0.00000000000E+00 0. -1.
         -5    1    3    3    0  503 -0.10143377862E+03  0.32752525233E+02 -0.22333582907E+03  0.24751267019E+03  0.47000000000E+01 0.  1.
         13    1    4    4    0    0 -0.26192359918E+02 -0.20188935240E+01 -0.11947254005E+03  0.12232662619E+03  0.00000000000E+00 0. -1.
        -14    1    4    4    0    0  0.41440087991E+02  0.58314791455E+02 -0.14112393244E+03  0.15822092182E+03  0.00000000000E+00 0.  1.
</event>
<event>
12    1  0.8691829E-002  0.2202793E+03  0.7818608E-02  0.1134121E+00
         21   -1    0    0  503  502  0.00000000000E+00  0.00000000000E+00  0.93686341213E+02  0.93686341213E+02  0.00000000000E+00 0. -1.
         21   -1    0    0  501  503 -0.00000000000E+00 -0.00000000000E+00 -0.52479436207E+03  0.52479436207E+03  0.00000000000E+00 0. -1.
          6    2    1    2  501    0 -0.13861569308E+02 -0.13395545009E+03 -0.26433633350E+03  0.34408817954E+03  0.17431802082E+03 0.  0.
         24    2    3    3    0    0 -0.39804380360E+02 -0.14248409695E+03 -0.26656358713E+03  0.31628857664E+03  0.84239012046E+02 0.  0.
         -6    2    1    2    0  502  0.13861569308E+02  0.13395545009E+03 -0.16677168736E+03  0.27439252374E+03  0.17129581334E+03 0.  0.
        -24    2    5    5    0    0  0.50406099232E+02  0.15047592098E+03 -0.13403377784E+03  0.22240897494E+03  0.79479059489E+02 0.  0.
          5    1    3    3  501    0  0.25942811052E+02  0.85286468613E+01  0.22272536354E+01  0.27799602899E+02  0.47000000000E+01 0. -1.
        -13    1    4    4    0    0 -0.58074953092E+02 -0.83511799243E+02 -0.12037261717E+03  0.15759596363E+03  0.00000000000E+00 0.  1.
         14    1    4    4    0    0  0.18270572732E+02 -0.58972297704E+02 -0.14619096997E+03  0.15869261301E+03  0.00000000000E+00 0. -1.
         -5    1    5    5    0  502 -0.36544529924E+02 -0.16520470896E+02 -0.32737909512E+02  0.51983548794E+02  0.47000000000E+01 0.  1.
         13    1    6    6    0    0  0.51711076748E+01  0.11760265182E+03 -0.68250734303E+02  0.13607088889E+03  0.00000000000E+00 0. -1.
        -14    1    6    6    0    0  0.45234991557E+02  0.32873269164E+02 -0.65783043540E+02  0.86338086058E+02  0.00000000000E+00 0.  1.
</event>
<event>
12    1  0.8691829E-002  0.2246933E+03  0.7818608E-02  0.1130782E+00
         21   -1    0    0  501  502  0.00000000000E+00  0.00000000000E+00  0.22295631252E+03  0.22295631252E+03  0.00000000000E+00 0. -1.
         21   -1    0    0  502  503 -0.00000000000E+00 -0.00000000000E+00 -0.60048334348E+03  0.60048334348E+03  0.00000000000E+00 0. -1.
         -6    2    1    2    0  503  0.13285677373E+03 -0.54467463559E+02 -0.51484948147E+03  0.56174468312E+03  0.17282787253E+03 0.  0.
        -24    2    3    3    0    0  0.62967480688E+02  0.13553295199E+02 -0.13670571654E+03  0.17119873977E+03  0.80448493646E+02 0.  0.
          6    2    1    2  501    0 -0.13285677373E+03  0.54467463559E+02  0.13732245051E+03  0.26169497287E+03  0.17032080466E+03 0.  0.
         24    2    5    5    0    0 -0.31205514555E+02  0.32991978340E+02  0.32979112758E+01  0.92051693973E+02  0.80002396033E+02 0.  0.
          5    1    5    5  501    0 -0.10165125918E+03  0.21475485219E+02  0.13402453924E+03  0.16964327890E+03  0.47000000000E+01 0. -1.
        -11    1    6    6    0    0 -0.32403212445E+02 -0.19362781021E+02  0.10523497564E+02  0.39187108424E+02  0.00000000000E+00 0.  1.
         12    1    6    6    0    0  0.11976978903E+01  0.52354759362E+02 -0.72255862884E+01  0.52864585549E+02  0.00000000000E+00 0. -1.
         -5    1    3    3    0  503  0.69889293046E+02 -0.68020758758E+02 -0.37814376494E+03  0.39054594335E+03  0.47000000000E+01 0.  1.
         11    1    4    4    0    0  0.75020622059E+01 -0.14352711970E+02 -0.95073838904E+02  0.96443331144E+02  0.00000000000E+00 0. -1.
        -12    1    4    4    0    0  0.55465418482E+02  0.27906007169E+02 -0.41631877631E+02  0.74755408625E+02  0.00000000000E+00 0.  1.
</event>
<event>
12    1  0.8691829E-002  0.1777211E+03  0.7818608E-02  0.1170662E+00
         21   -1    0    0  501  502  0.00000000000E+00  0.00000000000E+00  0.23630120904E+03  0.23630120904E+03  0.00000000000E+00 0.  1.
         21   -1    0    0  502  503 -0.00000000000E+00 -0.00000000000E+00 -0.13174537185E+03  0.13174537185E+03  0.00000000000E+00 0.  1.
         -6    2    1    2    0  503 -0.32659945178E+01  0.45529964182E+02  0.53180808548E+02  0.18550742049E+03  0.17175901810E+03 0.  0.
        -24    2    3    3    0    0  0.51005915592E+02 -0.22934463804E+00  0.47591997603E+02  0.11414440921E+03  0.90345403278E+02 0.  0.
          6    2    1    2  501    0  0.32659945178E+01 -0.45529964182E+02  0.51375028648E+02  0.18253916041E+03  0.16910797484E+03 0.  0.
         24    2    5    5    0    0 -0.38349990836E+02 -0.81321977874E+02  0.36407325880E+02  0.12545080251E+03  0.79551395909E+02 0.  0.
          5    1    5    5  501    0  0.41615985354E+02  0.35792013691E+02  0.14967702768E+02  0.57088357895E+02  0.47000000000E+01 0. -1.
        -13    1    6    6    0    0 -0.18806026541E+02 -0.73151543431E+02 -0.82940929126E+01  0.75984254408E+02  0.00000000000E+00 0.  1.
         14    1    6    6    0    0 -0.19543964295E+02 -0.81704344422E+01  0.44701418793E+02  0.49466548105E+02  0.00000000000E+00 0. -1.
         -5    1    3    3    0  503 -0.54271910110E+02  0.45759308820E+02  0.55888109452E+01  0.71363011277E+02  0.47000000000E+01 0.  1.
         13    1    4    4    0    0  0.54019777790E+02  0.12227433844E+02  0.69434884273E+02  0.88819196601E+02  0.00000000000E+00 0. -1.
        -14    1    4    4    0    0 -0.30138621980E+01 -0.12456778482E+02 -0.21842886671E+02  0.25325212608E+02  0.00000000000E+00 0.  1.
</event>
<event>
12    1  0.8691829E-002  0.2622912E+03  0.7818608E-02  0.1106254E+00
         21   -1    0    0  503  502  0.00000000000E+00  0.00000000000E+00  0.26750389531E+03  0.26750389531E+03  0.00000000000E+00 0.  1.
         21   -1    0    0  501  503 -0.00000000000E+00 -0.00000000000E+00 -0.34857300713E+03  0.34857300713E+03  0.00000000000E+00 0.  1.
          6    2    1    2  501    0  0.80407107768E+02 -0.18097304436E+03 -0.20076174379E+03  0.32776626760E+03  0.16705957812E+03 0.  0.
         24    2    3    3    0    0 -0.18246618554E+02 -0.67682481941E+02 -0.32102654532E+02  0.10185635715E+03  0.66560345650E+02 0.  0.
         -6    2    1    2    0  502 -0.80407107768E+02  0.18097304436E+03  0.11969263197E+03  0.28831063484E+03  0.17198880849E+03 0.  0.
        -24    2    5    5    0    0 -0.45467933760E+02  0.19693544343E+03  0.12224948339E+03  0.24952698424E+03  0.80423117281E+02 0.  0.
          5    1    3    3  501    0  0.98653726322E+02 -0.11329056242E+03 -0.16865908925E+03  0.22590991045E+03  0.47000000000E+01 0. -1.
        -11    1    4    4    0    0 -0.11411049779E+01 -0.74832924765E+02 -0.14384434627E+02  0.76211421119E+02  0.00000000000E+00 0.  1.
         12    1    4    4    0    0 -0.17105513576E+02  0.71504428243E+01 -0.17718219905E+02  0.25644936028E+02  0.00000000000E+00 0. -1.
         -5    1    5    5    0  502 -0.34939174008E+02 -0.15962399067E+02 -0.25568514265E+01  0.38783650596E+02  0.47000000000E+01 0.  1.
         11    1    6    6    0    0  0.28173147028E+01  0.67819860212E+02  0.41480912794E+01  0.68004980424E+02  0.00000000000E+00 0. -1.
        -12    1    6    6    0    0 -0.48285248463E+02  0.12911558322E+03  0.11810139212E+03  0.18152200381E+03  0.00000000000E+00 0.  1.
</event>
<event>
12    1  0.8691829E-002  0.2290387E+03  0.7818608E-02  0.1127662E+00
         21   -1    0    0  501  502  0.00000000000E+00  0.00000000000E+00  0.17303032870E+03  0.17303032870E+03  0.00000000000E+00 0. -1.
         21   -1    0    0  502  503 -0.00000000000E+00 -0.00000000000E+00 -0.67727602776E+03  0.67727602776E+03  0.00000000000E+00 0. -1.
         -6    2    1    2    0  503  0.13032325328E+03  0.65033329080E+02 -0.56870213908E+03  0.61237071363E+03  0.17424776523E+03 0.  0.
        -24    2    3    3    0    0  0.64000424308E+02  0.55475119694E+00 -0.13111177381E+03  0.16508599176E+03  0.77244581573E+02 0.  0.
          6    2    1    2  501    0 -0.13032325328E+03 -0.65033329080E+02  0.64456440011E+02  0.23793564283E+03  0.17676326890E+03 0.  0.
         24    2    5    5    0    0 -0.19910411293E+02 -0.79630377098E+02  0.54031166198E+02  0.12597651716E+03  0.78824453815E+02 0.  0.
          5    1    5    5  501    0 -0.11041284199E+03  0.14597048018E+02  0.10425273813E+02  0.11195912567E+03  0.47000000000E+01 0. -1.
        -11    1    6    6    0    0  0.75086137088E+01 -0.76207059373E+02  0.14803406171E+02  0.77993820347E+02  0.00000000000E+00 0.  1.
         12    1    6    6    0    0 -0.27419025001E+02 -0.34233177255E+01  0.39227760027E+02  0.47982696808E+02  0.00000000000E+00 0. -1.
         -5    1    3    3    0  503  0.66322828976E+02  0.64478577883E+02 -0.43759036526E+03  0.44728472187E+03  0.47000000000E+01 0.  1.
         11    1    4    4    0    0  0.62661470789E+02  0.21276823192E+02 -0.12799264631E+03  0.14408775324E+03  0.00000000000E+00 0. -1.
        -12    1    4    4    0    0  0.13389535187E+01 -0.20722071995E+02 -0.31191275061E+01  0.20998238514E+02  0.00000000000E+00 0.  1.
</event>
<event>
12    1  0.8691829E-002  0.2090724E+03  0.7818608E-02  0.1142659E+00
         21   -1    0    0  503  502  0.00000000000E+00  0.00000000000E+00  0.13185382183E+03  0.13185382183E+03  0.00000000000E+00 0. -1.
         21   -1    0    0  501  503 -0.00000000000E+00 -0.00000000000E+00 -0.32956487300E+03  0.32956487300E+03  0.00000000000E+00 0.  1.
          6    2    1    2  501    0 -0.32193347834E+02 -0.11307073220E+03 -0.87419313055E+02  0.22661291333E+03  0.17288688229E+03 0.  0.
         24    2    3    3    0    0  0.43437379406E+02 -0.58997175927E+02 -0.76447855326E+02  0.13287701159E+03  0.80277972867E+02 0.  0.
         -6    2    1    2    0  502  0.32193347834E+02  0.11307073220E+03 -0.11029173812E+03  0.23480578149E+03  0.17072810372E+03 0.  0.
        -24    2    5    5    0    0  0.49532549077E+02  0.57636100052E+02  0.18471448969E+01  0.10842989208E+03  0.77319053952E+02 0.  0.
          5    1    3    3  501    0 -0.75630727240E+02 -0.54073556276E+02 -0.10971457729E+02  0.93735901744E+02  0.47000000000E+01 0. -1.
        -11    1    4    4    0    0  0.16120805610E+02 -0.26246567544E+02 -0.84086864925E+02  0.89550899126E+02  0.00000000000E+00 0.  1.
         12    1    4    4    0    0  0.27316573796E+02 -0.32750608383E+02  0.76390095991E+01  0.43326112462E+02  0.00000000000E+00 0. -1.
         -5    1    5    5    0  502 -0.17339201244E+02  0.55434632150E+02 -0.11213888301E+03  0.12637588941E+03  0.47000000000E+01 0.  1.
         13    1    6    6    0    0  0.11488073170E+02  0.66424923021E+02  0.11057428914E+02  0.68311880062E+02  0.00000000000E+00 0. -1.
        -14    1    6    6    0    0  0.38044475908E+02 -0.87888229687E+01 -0.92102840172E+01  0.40118012014E+02  0.00000000000E+00 0.  1.
</event>
<event>
12    1  0.8691829E-002  0.1720457E+03  0.7818608E-02  0.1175755E+00
         21   -1    0    0  503  502  0.00000000000E+00  0.00000000000E+00  0.49567752367E+03  0.49567752367E+03  0.00000000000E+00 0.  1.
         21   -1    0    0  501  503 -0.00000000000E+00 -0.00000000000E+00 -0.21327761339E+03  0.21327761339E+03  0.00000000000E+00 0.  1.
          6    2    1    2  501    0 -0.23393925234E+01  0.15053881219E+00 -0.15960713388E+03  0.23467886734E+03  0.17202975955E+03 0.  0.
         24    2    3    3    0    0 -0.40430683345E+02 -0.38858531185E+02 -0.15261156236E+03  0.17950929240E+03  0.76083319389E+02 0.  0.
         -6    2    1    2    0  502  0.23393925234E+01 -0.15053881219E+00  0.44200704415E+03  0.47427626972E+03  0.17193678350E+03 0.  0.
        -24    2    5    5    0    0 -0.52280531158E+02 -0.39037516399E+02  0.33096185084E+03  0.34447388898E+03  0.69780597962E+02 0.  0.
          5    1    3    3  501    0  0.38091290821E+02  0.39009069997E+02 -0.69955715193E+01  0.55169574942E+02  0.47000000000E+01 0. -1.
        -13    1    4    4    0    0 -0.41030277242E+02 -0.19225402634E+02 -0.15329878885E+03  0.15985499186E+03  0.00000000000E+00 0.  1.
         14    1    4    4    0    0  0.59959389715E+00 -0.19633128550E+02  0.68722649399E+00  0.19654300541E+02  0.00000000000E+00 0. -1.
         -5    1    5    5    0  502  0.54619923681E+02  0.38886977586E+02  0.11104519331E+03  0.12980238074E+03  0.47000000000E+01 0.  1.
         11    1    6    6    0    0 -0.45668504989E+02  0.15350005968E+01  0.10084858588E+03  0.11071768535E+03  0.00000000000E+00 0. -1.
        -12    1    6    6    0    0 -0.66120261685E+01 -0.40572516995E+02  0.23011326496E+03  0.23375620363E+03  0.00000000000E+00 0.  1.
</event>
<event>
12    1  0.8691829E-002  0.2168773E+03  0.7818608E-02  0.1138688E+00
         21   -1    0    0  503  502  0.00000000000E+00  0.00000000000E+00  0.18823090532E+04  0.18823090532E+04  0.00000000000E+00 0. -1.
         21   -1    0    0  501  503 -0.00000000000E+00 -0.00000000000E+00 -0.37766697059E+02  0.37766697059E+02  0.00000000000E+00 0. -1.
          6    2    1    2  501    0 -0.22064526888E+02  0.10880290273E+03  0.31663001240E+03  0.37684799683E+03  0.17156611836E+03 0.  0.
         24    2    3    3    0    0  0.85349494727E+01  0.12932187048E+03  0.29979181826E+03  0.33606845817E+03  0.79182591112E+02 0.  0.
         -6    2    1    2    0  502  0.22064526888E+02 -0.10880290273E+03  0.15279123437E+04  0.15432277534E+04  0.18630849102E+03 0.  0.
        -24    2    5    5    0    0  0.58712181953E+02 -0.10843484370E+03  0.14453375377E+04  0.14527629830E+04  0.79463522366E+02 0.  0.
          5    1    3    3  501    0 -0.30599476360E+02 -0.20518967748E+02  0.16838194139E+02  0.40779538654E+02  0.47000000000E+01 0. -1.
        -13    1    4    4    0    0 -0.30771300601E+00  0.11354689543E+03  0.29674767514E+03  0.31772971981E+03  0.00000000000E+00 0.  1.
         14    1    4    4    0    0  0.88426624787E+01  0.15774975047E+02  0.30441431241E+01  0.18338738365E+02  0.00000000000E+00 0. -1.
         -5    1    5    5    0  502 -0.36647655065E+02 -0.36805903292E+00  0.82574806074E+02  0.90464770422E+02  0.47000000000E+01 0.  1.
         11    1    6    6    0    0  0.55797451347E+02 -0.82943274971E+02  0.13595647576E+04  0.13632348559E+04  0.00000000000E+00 0. -1.
        -12    1    6    6    0    0  0.29147306065E+01 -0.25491568727E+02  0.85772780107E+02  0.89528127077E+02  0.00000000000E+00 0.  1.
</event>
<event>
12    1  0.8691829E-002  0.2511762E+03  0.7818608E-02  0.1112721E+00
         21   -1    0    0  501  502  0.00000000000E+00  0.00000000000E+00  0.35176749481E+02  0.35176749481E+02  0.00000000000E+00 0.  1.
         21   -1    0    0  502  503 -0.00000000000E+00 -0.00000000000E+00 -0.17867250767E+04  0.17867250767E+04  0.00000000000E+00 0. -1.
         -6    2    1    2    0  503 -0.13057298808E+03  0.12765876611E+03 -0.86478648062E+03  0.90052491752E+03  0.17246276186E+03 0.  0.
        -24    2    3    3    0    0 -0.11492318539E+03  0.11320556599E+03 -0.85949227751E+03  0.87807653440E+03  0.79174405257E+02 0.  0.
          6    2    1    2  501    0  0.13057298808E+03 -0.12765876611E+03 -0.88676184661E+03  0.92137690867E+03  0.17100517376E+03 0.  0.
         24    2    5    5    0    0  0.10340488341E+03 -0.10376838646E+03 -0.40144599781E+03  0.43469177509E+03  0.79609058755E+02 0.  0.
          5    1    5    5  501    0  0.27168104672E+02 -0.23890379659E+02 -0.48531584880E+03  0.48668513358E+03  0.47000000000E+01 0. -1.
        -13    1    6    6    0    0  0.64044551307E+01  0.95355061937E+01 -0.82099048395E+01  0.14118975224E+02  0.00000000000E+00 0.  1.
         14    1    6    6    0    0  0.97000428277E+02 -0.11330389265E+03 -0.39323609297E+03  0.42057279987E+03  0.00000000000E+00 0. -1.
         -5    1    3    3    0  503 -0.15649802693E+02  0.14453200121E+02 -0.52942031048E+01  0.22448383117E+02  0.47000000000E+01 0.  1.
         13    1    4    4    0    0 -0.23966016617E+02  0.21207853070E+02 -0.38297897363E+03  0.38431372241E+03  0.00000000000E+00 0. -1.
        -14    1    4    4    0    0 -0.90957168769E+02  0.91997712923E+02 -0.47651330388E+03  0.49376281199E+03  0.00000000000E+00 0.  1.
</event>
<event>
12    1  0.8691829E-002  0.2047379E+03  0.7818608E-02  0.1145828E+00
         21   -1    0    0  501  502  0.00000000000E+00  0.00000000000E+00  0.69248928654E+02  0.69248928654E+02  0.00000000000E+00 0.  1.
         21   -1    0    0  502  503 -0.00000000000E+00 -0.00000000000E+00 -0.60767933678E+03  0.60767933678E+03  0.00000000000E+00 0.  1.
         -6    2    1    2    0  503 -0.10995612873E+03 -0.22476923482E+02 -0.24642281096E+03  0.32029674146E+03  0.17108547132E+03 0.  0.
        -24    2    3    3    0    0 -0.20299328926E+02 -0.17530024238E+02 -0.20340948928E+03  0.22062202348E+03  0.81112837521E+02 0.  0.
          6    2    1    2  501    0  0.10995612873E+03  0.22476923482E+02 -0.29200759717E+03  0.35663152397E+03  0.17123680898E+03 0.  0.
         24    2    5    5    0    0  0.64263920641E+02  0.54608038916E+02 -0.27510074245E+03  0.29808138993E+03  0.77847332102E+02 0.  0.
          5    1    5    5  501    0  0.45692208090E+02 -0.32131115435E+02 -0.16906854712E+02  0.58550134034E+02  0.47000000000E+01 0. -1.
        -11    1    6    6    0    0 -0.34454060285E+01 -0.10736577276E+02 -0.87300352663E+02  0.88025544528E+02  0.00000000000E+00 0.  1.
         12    1    6    6    0    0  0.67709326670E+02  0.65344616193E+02 -0.18780038979E+03  0.21005584541E+03  0.00000000000E+00 0. -1.
         -5    1    3    3    0  503 -0.89656799805E+02 -0.49468992441E+01 -0.43013321676E+02  0.99674717983E+02  0.47000000000E+01 0.  1.
         11    1    4    4    0    0  0.25424062175E+02 -0.16547099670E+02 -0.35992158174E+02  0.47070424844E+02  0.00000000000E+00 0. -1.
        -12    1    4    4    0    0 -0.45723391101E+02 -0.98292456781E+00 -0.16741733111E+03  0.17355159864E+03  0.00000000000E+00 0.  1.
</event>
<event>
12    1  0.8691829E-002  0.2053668E+03  0.7818608E-02  0.1145500E+00
         21   -1    0    0  501  502  0.00000000000E+00  0.00000000000E+00  0.65921891638E+02  0.65921891638E+02  0.00000000000E+00 0. -1.
         21   -1    0    0  502  503 -0.00000000000E+00 -0.00000000000E+00 -0.13315410203E+04  0.13315410203E+04  0.00000000000E+00 0.  1.
         -6    2    1    2    0  503 -0.10284976899E+03 -0.37709780702E+02 -0.11368442807E+04  0.11550614394E+04  0.17248741303E+03 0.  0.
        -24    2    3    3    0    0 -0.26413578414E+01 -0.44596556969E+02 -0.72889306569E+03  0.73490023558E+03  0.82446500144E+02 0.  0.
          6    2    1    2  501    0  0.10284976899E+03  0.37709780702E+02 -0.12877484796E+03  0.24240147255E+03  0.17371070746E+03 0.  0.
         24    2    5    5    0    0  0.92513966209E+02  0.89786050980E+02 -0.10697044569E+03  0.18481424564E+03  0.78059337975E+02 0.  0.
          5    1    5    5  501    0  0.10335802782E+02 -0.52076270278E+02 -0.21804402270E+02  0.57587226913E+02  0.47000000000E+01 0. -1.
        -13    1    6    6    0    0  0.20201925928E+02  0.22760439123E+01 -0.57489276011E+02  0.60977988187E+02  0.00000000000E+00 0.  1.
         14    1    6    6    0    0  0.72312040282E+02  0.87510007068E+02 -0.49481169681E+02  0.12383625745E+03  0.00000000000E+00 0. -1.
         -5    1    3    3    0  503 -0.10020841115E+03  0.68867762670E+01 -0.40795121504E+03  0.42016120383E+03  0.47000000000E+01 0.  1.
         11    1    4    4    0    0  0.43366823921E+01  0.12091609062E+02 -0.45176417188E+03  0.45194676768E+03  0.00000000000E+00 0. -1.
        -12    1    4    4    0    0 -0.69780402335E+01 -0.56688166031E+02 -0.27712889381E+03  0.28295346790E+03  0.00000000000E+00 0.  1.
</event>
<event>
12    1  0.8691829E-002  0.3762013E+03  0.7818608E-02  0.1052395E+00
         21   -1    0    0  503  502  0.00000000000E+00  0.00000000000E+00  0.64141221510E+03  0.64141221510E+03  0.00000000000E+00 0.  1.
         21   -1    0    0  501  503 -0.00000000000E+00 -0.00000000000E+00 -0.23814091325E+03  0.23814091325E+03  0.00000000000E+00 0. -1.
          6    2    1    2  501    0  0.33357187092E+03  0.20375152796E+02  0.81560623225E+02  0.38494098327E+03  0.17274861917E+03 0.  0.
         24    2    3    3    0    0  0.24328896889E+03  0.12672757496E+02 -0.10331514734E+02  0.25580313324E+03  0.77319994919E+02 0.  0.
         -6    2    1    2    0  502 -0.33357187092E+03 -0.20375152796E+02  0.32171067863E+03  0.49461214508E+03  0.17163354391E+03 0.  0.
        -24    2    5    5    0    0 -0.22169089891E+03 -0.70452476120E+02  0.16738523782E+03  0.29747381321E+03  0.79764940027E+02 0.  0.
          5    1    3    3  501    0  0.90282902028E+02  0.77023953003E+01  0.91892137959E+02  0.12913785003E+03  0.47000000000E+01 0. -1.
        -11    1    4    4    0    0  0.10322692814E+02 -0.57835792046E+01  0.16787746178E+02  0.20538651296E+02  0.00000000000E+00 0.  1.
         12    1    4    4    0    0  0.23296627607E+03  0.18456336700E+02 -0.27119260912E+02  0.23526448195E+03  0.00000000000E+00 0. -1.
         -5    1    5    5    0  502 -0.11188097201E+03  0.50077323323E+02  0.15432544081E+03  0.19713833187E+03  0.47000000000E+01 0.  1.
         11    1    6    6    0    0 -0.75884506272E+02 -0.63784534042E+02  0.79742263140E+02  0.12722324318E+03  0.00000000000E+00 0. -1.
        -12    1    6    6    0    0 -0.14580639263E+03 -0.66679420773E+01  0.87642974675E+02  0.17025057003E+03  0.00000000000E+00 0.  1.
</event>
<event>
12    1  0.8691829E-002  0.2333407E+03  0.7818608E-02  0.1124810E+00
         21   -1    0    0  501  502  0.00000000000E+00  0.00000000000E+00  0.31250304250E+02  0.31250304250E+02  0.00000000000E+00 0.  1.
         21   -1    0    0  502  503 -0.00000000000E+00 -0.00000000000E+00 -0.17218553192E+04  0.17218553192E+04  0.00000000000E+00 0.  1.
         -6    2    1    2    0  503  0.13621583417E+03 -0.69397683615E+02 -0.86058872005E+03  0.89091368301E+03  0.17246290477E+03 0.  0.
        -24    2    3    3    0    0  0.70017682930E+02  0.21715812410E+02 -0.30318707486E+03  0.32222875403E+03  0.80838821920E+02 0.  0.
          6    2    1    2  501    0 -0.13621583417E+03  0.69397683615E+02 -0.83001629486E+03  0.86219194040E+03  0.17628698305E+03 0.  0.
         24    2    5    5    0    0 -0.15943469770E+03  0.41791808046E+02 -0.77410461204E+03  0.79548807046E+03  0.79983384640E+02 0.  0.
          5    1    5    5  501    0  0.23218863523E+02  0.27605875569E+02 -0.55911682825E+02  0.66703869945E+02  0.47000000000E+01 0. -1.
        -11    1    6    6    0    0 -0.11110837666E+03  0.49854051887E+02 -0.39824834635E+03  0.41645196989E+03  0.00000000000E+00 0.  1.
         12    1    6    6    0    0 -0.48326321038E+02 -0.80622438411E+01 -0.37585626568E+03  0.37903610057E+03  0.00000000000E+00 0. -1.
         -5    1    3    3    0  503  0.66198151244E+02 -0.91113496025E+02 -0.55740164519E+03  0.56868492898E+03  0.47000000000E+01 0.  1.
         11    1    4    4    0    0  0.16791871041E+02 -0.18546279803E+02 -0.18345324472E+03  0.18515135545E+03  0.00000000000E+00 0. -1.
        -12    1    4    4    0    0  0.53225811889E+02  0.40262092213E+02 -0.11973383014E+03  0.13707739858E+03  0.00000000000E+00 0.  1.
</event>
<event>
12    1  0.8691829E-002  0.1733769E+03  0.7818608E-02  0.1174540E+00
         21   -1    0    0  503  502  0.00000000000E+00  0.00000000000E+00  0.17043859937E+03  0.17043859937E+03  0.00000000000E+00 0.  1.
         21   -1    0    0  501  503 -0.00000000000E+00 -0.00000000000E+00 -0.18501236585E+03  0.18501236585E+03  0.00000000000E+00 0.  1.
          6    2    1    2  501    0 -0.55279357215E+01  0.23601276935E+02 -0.47190019815E+02  0.17968431227E+03  0.17167403927E+03 0.  0.
         24    2    3    3    0    0 -0.34683164829E+02  0.73612851686E+02 -0.39829211804E+02  0.12113982928E+03  0.80415908065E+02 0.  0.
         -6    2    1    2    0  502  0.55279357215E+01 -0.23601276935E+02  0.32616253335E+02  0.17576665296E+03  0.17100443843E+03 0.  0.
        -24    2    5    5    0    0  0.54542546004E+02  0.95722065700E+01 -0.17769416951E+02  0.97896775601E+02  0.78749666863E+02 0.  0.
          5    1    3    3  501    0  0.29155229107E+02 -0.50011574751E+02 -0.73608080108E+01  0.58544482985E+02  0.47000000000E+01 0. -1.
        -11    1    4    4    0    0 -0.58445082233E+02  0.68282133978E+02 -0.28572713662E+02  0.94311597504E+02  0.00000000000E+00 0.  1.
         12    1    4    4    0    0  0.23761917404E+02  0.53307177079E+01 -0.11256498141E+02  0.26828231779E+02  0.00000000000E+00 0. -1.
         -5    1    5    5    0  502 -0.49014610283E+02 -0.33173483505E+02  0.50385670287E+02  0.77869877355E+02  0.47000000000E+01 0.  1.
         13    1    6    6    0    0  0.16920441157E+02  0.28606456853E+02 -0.38542990725E+02  0.50893937130E+02  0.00000000000E+00 0. -1.
        -14    1    6    6    0    0  0.37622104847E+02 -0.19034250283E+02  0.20773573774E+02  0.47002838470E+02  0.00000000000E+00 0.  1.
</event>
<event>
12    1  0.8691829E-002  0.1860489E+03  0.7818608E-02  0.1162239E+00
         21   -1    0    0  503  502  0.00000000000E+00  0.00000000000E+00  0.56411084830E+03  0.56411084830E+03  0.00000000000E+00 0. -1.
         21   -1    0    0  501  503 -0.00000000000E+00 -0.00000000000E+00 -0.73284097791E+02  0.73284097791E+02  0.00000000000E+00 0.  1.
          6    2    1    2  501    0 -0.68568463549E+02  0.14155327665E+02  0.11599723949E+03  0.21924767938E+03  0.17237220730E+03 0.  0.
         24    2    3    3    0    0  0.15335742983E+02  0.46624160290E+02  0.41275064438E+02  0.10220224200E+03  0.79578074812E+02 0.  0.
         -6    2    1    2    0  502  0.68568463549E+02 -0.14155327665E+02  0.37482951101E+03  0.41814726671E+03  0.17160409912E+03 0.  0.
        -24    2    5    5    0    0  0.10873848782E+03 -0.70784357226E+01  0.22273580190E+03  0.26060901865E+03  0.80197631922E+02 0.  0.
          5    1    3    3  501    0 -0.83904206532E+02 -0.32468832626E+02  0.74722175055E+02  0.11704543738E+03  0.47000000000E+01 0. -1.
        -13    1    4    4    0    0 -0.26045217014E+02  0.37212241821E+02  0.37890132739E+01  0.45579171693E+02  0.00000000000E+00 0.  1.
         14    1    4    4    0    0  0.41380959998E+02  0.94119184697E+01  0.37486051165E+02  0.56623070312E+02  0.00000000000E+00 0. -1.
         -5    1    5    5    0  502 -0.40170024276E+02 -0.70768919421E+01  0.15209370911E+03  0.15753824805E+03  0.47000000000E+01 0.  1.
         13    1    6    6    0    0  0.10827936702E+03  0.17805701407E+02  0.19099792773E+03  0.22027635534E+03  0.00000000000E+00 0. -1.
        -14    1    6    6    0    0  0.45912080429E+00 -0.24884137130E+02  0.31737874170E+02  0.40332663307E+02  0.00000000000E+00 0.  1.
</event>
<event>
12    1  0.8691829E-002  0.2541678E+03  0.7818608E-02  0.1110810E+00
         21   -1    0    0  503  502  0.00000000000E+00  0.00000000000E+00  0.69298780131E+03  0.69298780131E+03  0.00000000000E+00 0. -1.
         21   -1    0    0  501  503 -0.00000000000E+00 -0.00000000000E+00 -0.10374892178E+03  0.10374892178E+03  0.00000000000E+00 0.  1.
          6    2    1    2  501    0  0.64226326894E+02 -0.17417585034E+03  0.16652166634E+03  0.30385972452E+03  0.17360592996E+03 0.  0.
         24    2    3    3    0    0  0.56045667651E+02 -0.19281075166E+03  0.17831436293E+03  0.27987346959E+03  0.78841893267E+02 0.  0.
         -6    2    1    2    0  502 -0.64226326894E+02  0.17417585034E+03  0.42271721319E+03  0.49287699857E+03  0.17255620963E+03 0.  0.
        -24    2    5    5    0    0  0.72811343001E+01  0.35734155522E+02  0.21605181577E+03  0.23401005135E+03  0.82172819405E+02 0.  0.
          5    1    3    3  501    0  0.81806592431E+01  0.18634901318E+02 -0.11792696593E+02  0.23986254933E+02  0.47000000000E+01 0. -1.
        -13    1    4    4    0    0 -0.15828561537E+02 -0.34778060150E+02  0.13597336838E+02  0.40557914113E+02  0.00000000000E+00 0.  1.
         14    1    4    4    0    0  0.71874229188E+02 -0.15803269151E+03  0.16471702610E+03  0.23931555548E+03  0.00000000000E+00 0. -1.
         -5    1    5    5    0  502 -0.71507461194E+02  0.13844169482E+03  0.20666539742E+03  0.25886694722E+03  0.47000000000E+01 0.  1.
         13    1    6    6    0    0  0.15215494869E+01  0.60150848724E+02  0.18218308537E+03  0.19186223263E+03  0.00000000000E+00 0. -1.
        -14    1    6    6    0    0  0.57595848132E+01 -0.24416693201E+02  0.33868730399E+02  0.42147818721E+02  0.00000000000E+00 0.  1.
</event>
<event>
12    1  0.8691829E-002  0.2310518E+03  0.7818608E-02  0.1126438E+00
         21   -1    0    0  501  502  0.00000000000E+00  0.00000000000E+00  0.45561409370E+03  0.45561409370E+03  0.00000000000E+00 0. -1.
         21   -1    0    0  502  503 -0.00000000000E+00 -0.00000000000E+00 -0.17494605281E+03  0.17494605281E+03  0.00000000000E+00 0.  1.
         -6    2    1    2    0  503 -0.20171051604E+02  0.14946952751E+03 -0.43858330833E+02  0.23218555806E+03  0.17099289228E+03 0.  0.
        -24    2    3    3    0    0  0.36035049898E+02  0.28251610623E+02 -0.21193405468E+02  0.96580624289E+02  0.82352766977E+02 0.  0.
          6    2    1    2  501    0  0.20171051604E+02 -0.14946952751E+03  0.32452637172E+03  0.39837458845E+03  0.17503409898E+03 0.  0.
         24    2    5    5    0    0  0.80914200734E+02 -0.10276244115E+03  0.21753776899E+03  0.26669340833E+03  0.81825826735E+02 0.  0.
          5    1    5    5  501    0 -0.60743149129E+02 -0.46707086361E+02  0.10698860273E+03  0.13168118012E+03  0.47000000000E+01 0. -1.
        -11    1    6    6    0    0  0.64563448775E+01  0.12132770047E+02  0.66686841085E+01  0.15276120120E+02  0.00000000000E+00 0.  1.
         12    1    6    6    0    0  0.74457855856E+02 -0.11489521120E+03  0.21086908488E+03  0.25141728821E+03  0.00000000000E+00 0. -1.
         -5    1    3    3    0  503 -0.56206101503E+02  0.12121791689E+03 -0.22664925365E+02  0.13560493377E+03  0.47000000000E+01 0.  1.
         11    1    4    4    0    0 -0.13558421222E+02  0.25848743122E+02  0.17143539640E+02  0.33850986077E+02  0.00000000000E+00 0. -1.
        -12    1    4    4    0    0  0.49593471121E+02  0.24028675009E+01 -0.38336945107E+02  0.62729638212E+02  0.00000000000E+00 0.  1.
</event>
<event>
12    1  0.8691829E-002  0.3896954E+03  0.7818608E-02  0.1047502E+00
         21   -1    0    0  501  502  0.00000000000E+00  0.00000000000E+00  0.64581878095E+03  0.64581878095E+03  0.00000000000E+00 0. -1.
         21   -1    0    0  502  503 -0.00000000000E+00 -0.00000000000E+00 -0.24328699268E+03  0.24328699268E+03  0.00000000000E+00 0.  1.
         -6    2    1    2    0  503 -0.34856493571E+03  0.10905014959E+02  0.11708322087E+03  0.40690411989E+03  0.17391391093E+03 0.  0.
        -24    2    3    3    0    0 -0.13587229165E+03  0.88714662259E+00  0.11281918106E+03  0.19388113860E+03  0.79997885113E+02 0.  0.
          6    2    1    2  501    0  0.34856493571E+03 -0.10905014959E+02  0.28544856741E+03  0.48220165374E+03  0.17152584784E+03 0.  0.
         24    2    5    5    0    0  0.14649087784E+03 -0.60589031746E+02  0.10060628221E+03  0.20382926505E+03  0.79335598642E+02 0.  0.
          5    1    5    5  501    0  0.20207405788E+03  0.49684016786E+02  0.18484228520E+03  0.27837238869E+03  0.47000000000E+01 0. -1.
        -13    1    6    6    0    0  0.55715824937E+02  0.15492901969E+02  0.23050980371E+02  0.62254564941E+02  0.00000000000E+00 0.  1.
         14    1    6    6    0    0  0.90775052898E+02 -0.76081933715E+02  0.77555301839E+02  0.14157470011E+03  0.00000000000E+00 0. -1.
         -5    1    3    3    0  503 -0.21269264406E+03  0.10017868336E+02  0.42640398161E+01  0.21302298129E+03  0.47000000000E+01 0.  1.
         11    1    4    4    0    0 -0.14073716790E+03 -0.82647015750E+01  0.11649570672E+03  0.18288385769E+03  0.00000000000E+00 0. -1.
        -12    1    4    4    0    0  0.48648762474E+01  0.91518481976E+01 -0.36765256659E+01  0.10997280905E+02  0.00000000000E+00 0.  1.
</event>
<event>
12    1  0.8691829E-002  0.1989135E+03  0.7818608E-02  0.1150688E+00
         21   -1    0    0  501  502  0.00000000000E+00  0.00000000000E+00  0.46589614791E+03  0.46589614791E+03  0.00000000000E+00 0.  1.
         21   -1    0    0  502  503 -0.00000000000E+00 -0.00000000000E+00 -0.11485081110E+03  0.11485081110E+03  0.00000000000E+00 0.  1.
         -6    2    1    2    0  503 -0.68459594401E+02 -0.75187806296E+02  0.27202582276E+02  0.20076495389E+03  0.17095807657E+03 0.  0.
        -24    2    3    3    0    0  0.24460667078E+02 -0.58352427031E+02  0.26064481524E+02  0.10620814418E+03  0.81224889774E+02 0.  0.
          6    2    1    2  501    0  0.68459594401E+02  0.75187806296E+02  0.32384275454E+03  0.37998200512E+03  0.17079892350E+03 0.  0.
         24    2    5    5    0    0  0.24241353331E+02  0.90457846913E+02  0.30604971445E+03  0.32971164348E+03  0.79202745246E+02 0.  0.
          5    1    5    5  501    0  0.44218241070E+02 -0.15270040617E+02  0.17793040093E+02  0.50270361641E+02  0.47000000000E+01 0. -1.
        -11    1    6    6    0    0  0.40529824388E+02  0.12303337623E+02  0.12004420525E+03  0.12729748621E+03  0.00000000000E+00 0.  1.
         12    1    6    6    0    0 -0.16288471056E+02  0.78154509290E+02  0.18600550920E+03  0.20241415727E+03  0.00000000000E+00 0. -1.
         -5    1    3    3    0  503 -0.92920261480E+02 -0.16835379265E+02  0.11381007519E+01  0.94556809706E+02  0.47000000000E+01 0.  1.
         11    1    4    4    0    0  0.24928059536E+02 -0.70611012567E+02 -0.27065276658E+01  0.74930958488E+02  0.00000000000E+00 0. -1.
        -12    1    4    4    0    0 -0.46739245712E+00  0.12258585536E+02  0.28771009190E+02  0.31277185693E+02  0.00000000000E+00 0.  1.
</event>
<event>
12    1  0.8691829E-002  0.2379008E+03  0.7818608E-02  0.1121463E+00
         21   -1    0    0  503  502  0.00000000000E+00  0.00000000000E+00  0.19795344076E+04  0.19795344076E+04  0.00000000000E+00 0.  1.
         21   -1    0    0  501  503 -0.00000000000E+00 -0.00000000000E+00 -0.30258671408E+02  0.30258671408E+02  0.00000000000E+00 0. -1.
          6    2    1    2  501    0 -0.12984129738E+03  0.95728974931E+02  0.72882809316E+03  0.76667279946E+03  0.17485420472E+03 0.  0.
         24    2    3    3    0    0 -0.13260010767E+03  0.73002265562E+02  0.38047636181E+03  0.41753796435E+03  0.81630695490E+02 0.  0.
         -6    2    1    2    0  502  0.12984129738E+03 -0.95728974931E+02  0.12204476430E+04  0.12431202795E+04  0.17272168621E+03 0.  0.
        -24    2    5    5    0    0  0.34981121554E+02  0.16298640930E+02  0.49066392370E+03  0.49870439667E+03  0.80409356903E+02 0.  0.
          5    1    3    3  501    0  0.27588102956E+01  0.22726709369E+02  0.34835173135E+03  0.34913483511E+03  0.47000000000E+01 0. -1.
        -13    1    4    4    0    0 -0.11470711198E+03  0.64812129707E+02  0.37445800876E+03  0.39695986449E+03  0.00000000000E+00 0.  1.
         14    1    4    4    0    0 -0.17892995695E+02  0.81901358555E+01  0.60183530505E+01  0.20578099856E+02  0.00000000000E+00 0. -1.
         -5    1    5    5    0  502  0.94860175823E+02 -0.11202761586E+03  0.72978371934E+03  0.74441588288E+03  0.47000000000E+01 0.  1.
         11    1    6    6    0    0 -0.22303374025E+02  0.18028272464E+02  0.10669746270E+03  0.11048442265E+03  0.00000000000E+00 0. -1.
        -12    1    6    6    0    0  0.57284495580E+02 -0.17296315341E+01  0.38396646100E+03  0.38821997402E+03  0.00000000000E+00 0.  1.
</event>
<event>
12    1  0.8691829E-002  0.2389540E+03  0.7818608E-02  0.1120775E+00
         21   -1    0    0  501  502  0.00000000000E+00  0.00000000000E+00  0.26617699005E+03  0.26617699005E+03  0.00000000000E+00 0. -1.
         21   -1    0    0  502  503 -0.00000000000E+00 -0.00000000000E+00 -0.27144593562E+03  0.27144593562E+03  0.00000000000E+00 0. -1.
         -6    2    1    2    0  503 -0.83965006537E+02 -0.14144661576E+03 -0.12737067356E+03  0.27078092694E+03  0.17332557364E+03 0.  0.
        -24    2    3    3    0    0 -0.39259204443E+02 -0.51813928771E+02 -0.13521759556E+03  0.17020115014E+03  0.80365819904E+02 0.  0.
          6    2    1    2  501    0  0.83965006537E+02  0.14144661576E+03  0.12210172799E+03  0.26684199873E+03  0.17099284451E+03 0.  0.
         24    2    5    5    0    0  0.15367822821E+02  0.63286351618E+02  0.99457663094E+00  0.10714343075E+03  0.85072870472E+02 0.  0.
          5    1    5    5  501    0  0.68597183716E+02  0.78160264144E+02  0.12110715136E+03  0.15969856798E+03  0.47000000000E+01 0. -1.
        -11    1    6    6    0    0 -0.66913775953E+01 -0.19579406681E+02 -0.46461712874E+01  0.21206475609E+02  0.00000000000E+00 0.  1.
         12    1    6    6    0    0  0.22059200417E+02  0.82865758299E+02  0.56407479183E+01  0.85936955139E+02  0.00000000000E+00 0. -1.
         -5    1    3    3    0  503 -0.44705802094E+02 -0.89632686990E+02  0.78469220009E+01  0.10057977681E+03  0.47000000000E+01 0.  1.
         13    1    4    4    0    0 -0.29491173238E+02  0.16875387686E+02 -0.45454230889E+02  0.56750287349E+02  0.00000000000E+00 0. -1.
        -14    1    4    4    0    0 -0.97680312052E+01 -0.68689316458E+02 -0.89763364675E+02  0.11345086279E+03  0.00000000000E+00 0.  1.
</event>
<event>
12    1  0.8691829E-002  0.2624824E+03  0.7818608E-02  0.1105704E+00
         21   -1    0    0  501  502  0.00000000000E+00  0.00000000000E+00  0.65691892719E+03  0.65691892719E+03  0.00000000000E+00 0.  1.
         21   -1    0    0  502  503 -0.00000000000E+00 -0.00000000000E+00 -0.10477676596E+03  0.10477676596E+03  0.00000000000E+00 0. -1.
         -6    2    1    2    0  503 -0.11887421664E+03 -0.15846567205E+03  0.27171515773E+03  0.37759116146E+03  0.17176585711E+03 0.  0.
        -24    2    3    3    0    0 -0.13916757438E+03 -0.10894984970E+03  0.25645778427E+03  0.32174750045E+03  0.80704246606E+02 0.  0.
          6    2    1    2  501    0  0.11887421664E+03  0.15846567205E+03  0.28042700350E+03  0.38410453170E+03  0.17220493134E+03 0.  0.
         24    2    5    5    0    0  0.12810610287E+03  0.68862770592E+02  0.22101877161E+03  0.27609834813E+03  0.78916067241E+02 0.  0.
          5    1    5    5  501    0 -0.92318862301E+01  0.89602901454E+02  0.59408231892E+02  0.10800618357E+03  0.47000000000E+01 0. -1.
        -11    1    6    6    0    0  0.44950974492E+02 -0.84376298979E+01  0.10107931768E+03  0.11094508627E+03  0.00000000000E+00 0.  1.
         12    1    6    6    0    0  0.83155128382E+02  0.77300400490E+02  0.11993945393E+03  0.16515326186E+03  0.00000000000E+00 0. -1.
         -5    1    3    3    0  503  0.20293357735E+02 -0.49515822341E+02  0.15257373462E+02  0.55843661012E+02  0.47000000000E+01 0.  1.
         13    1    4    4    0    0 -0.67120776644E+02 -0.80950060079E+02  0.90762982881E+02  0.13891015062E+03  0.00000000000E+00 0. -1.
        -14    1    4    4    0    0 -0.72046797735E+02 -0.27999789626E+02  0.16569480139E+03  0.18283734982E+03  0.00000000000E+00 0.  1.
</event>
<event>
12    1  0.8691829E-002  0.2390936E+03  0.7818608E-02  0.1120415E+00
         21   -1    0    0  501  502  0.00000000000E+00  0.00000000000E+00  0.10554284089E+04  0.10554284089E+04  0.00000000000E+00 0.  1.
         21   -1    0    0  502  503 -0.00000000000E+00 -0.00000000000E+00 -0.85064808710E+02  0.85064808710E+02  0.00000000000E+00 0.  1.
         -6    2    1    2    0  503 -0.16331076533E+03  0.31104262614E+02  0.14128729687E+03  0.27762979534E+03  0.17169252103E+03 0.  0.
        -24    2    3    3    0    0 -0.10186838559E+03  0.27818208741E+02  0.16523944201E+03  0.21143493576E+03  0.79054652903E+02 0.  0.
          6    2    1    2  501    0  0.16331076533E+03 -0.31104262614E+02  0.82907630329E+03  0.86286342223E+03  0.17183680495E+03 0.  0.
         24    2    5    5    0    0  0.13665317324E+03 -0.24750407122E+02  0.37304369086E+03  0.40598397173E+03  0.79841828664E+02 0.  0.
          5    1    5    5  501    0  0.26657592098E+02 -0.63538554918E+01  0.45603261243E+03  0.45687945051E+03  0.47000000000E+01 0. -1.
        -11    1    6    6    0    0  0.70960984036E+02 -0.88403253061E+01  0.29113100116E+03  0.29978471016E+03  0.00000000000E+00 0.  1.
         12    1    6    6    0    0  0.65692189199E+02 -0.15910081816E+02  0.81912689696E+02  0.10619926157E+03  0.00000000000E+00 0. -1.
         -5    1    3    3    0  503 -0.61442379746E+02  0.32860538730E+01 -0.23952145132E+02  0.66194859584E+02  0.47000000000E+01 0.  1.
         13    1    4    4    0    0 -0.20988202863E+02  0.44489544423E+02  0.57029578288E+02  0.75313989551E+02  0.00000000000E+00 0. -1.
        -14    1    4    4    0    0 -0.80880182725E+02 -0.16671335682E+02  0.10820986372E+03  0.13612094621E+03  0.00000000000E+00 0.  1.
</event>
<event>
12    1  0.8691829E-002  0.1846108E+03  0.7818608E-02  0.1163757E+00
         21   -1    0    0  501  502  0.00000000000E+00  0.00000000000E+00  0.33892796252E+02  0.33892796252E+02  0.00000000000E+00 0. -1.
         21   -1    0    0  502  503 -0.00000000000E+00 -0.00000000000E+00 -0.16004056814E+04  0.16004056814E+04  0.00000000000E+00 0. -1.
         -6    2    1    2    0  503  0.50242024240E+02 -0.41851773061E+02 -0.12866843710E+04  0.12998606952E+04  0.17264218604E+03 0.  0.
        -24    2    3    3    0    0  0.43745691142E+02 -0.82463696916E+02 -0.61373070732E+03  0.62563502513E+03  0.77716515337E+02 0.  0.
          6    2    1    2  501    0 -0.50242024240E+02  0.41851773061E+02 -0.27982851411E+03  0.33443778243E+03  0.17108127045E+03 0.  0.
         24    2    5    5    0    0 -0.49080085678E+02 -0.21766339214E+02 -0.24204232752E+03  0.26028590985E+03  0.79256786586E+02 0.  0.
          5    1    5    5  501    0 -0.11619385627E+01  0.63618112274E+02 -0.37786186587E+02  0.74151872582E+02  0.47000000000E+01 0. -1.
        -11    1    6    6    0    0 -0.50144425654E+02  0.15830391188E+02 -0.18192728598E+03  0.18937423820E+03  0.00000000000E+00 0.  1.
         12    1    6    6    0    0  0.10643399766E+01 -0.37596730401E+02 -0.60115041547E+02  0.70911671654E+02  0.00000000000E+00 0. -1.
         -5    1    3    3    0  503  0.64963330980E+01  0.40611923855E+02 -0.67295366369E+03  0.67422567006E+03  0.47000000000E+01 0.  1.
         11    1    4    4    0    0 -0.15525673779E+02 -0.29885333243E+02 -0.30679937833E+03  0.30864224960E+03  0.00000000000E+00 0. -1.
        -12    1    4    4    0    0  0.59271364922E+02 -0.52578363672E+02 -0.30693132898E+03  0.31699277553E+03  0.00000000000E+00 0.  1.
</event>
<event>
12    1  0.8691829E-002  0.1968686E+03  0.7818608E-02  0.1152933E+00
         21   -1    0    0  501  502  0.00000000000E+00  0.00000000000E+00  0.10963922641E+03  0.10963922641E+03  0.00000000000E+00 0. -1.
         21   -1    0    0  502  503 -0.00000000000E+00 -0.00000000000E+00 -0.35138555687E+03  0.35138555687E+03  0.00000000000E+00 0. -1.
         -6    2    1    2    0  503  0.68828837974E+02 -0.59612825716E+02 -0.13994021490E+03  0.24153778173E+03  0.17454551936E+03 0.  0.
        -24    2    3    3    0    0  0.10741968659E+03 -0.30946227288E+02 -0.65993869726E+02  0.15321349612E+03  0.81378906980E+02 0.  0.
          6    2    1    2  501    0 -0.68828837974E+02  0.59612825716E+02 -0.10180611556E+03  0.21948700156E+03  0.17181082842E+03 0.  0.
         24    2    5    5    0    0 -0.33295479592E+01  0.63260908761E+02 -0.20719822114E+02  0.11508133846E+03  0.93815643509E+02 0.  0.
          5    1    5    5  501    0 -0.65499290014E+02 -0.36480830454E+01 -0.81086293442E+02  0.10440566310E+03  0.47000000000E+01 0. -1.
        -13    1    6    6    0    0 -0.39502319083E+01 -0.24780314213E+02 -0.62114752568E+01  0.25850546020E+02  0.00000000000E+00 0.  1.
         14    1    6    6    0    0  0.62068394910E+00  0.88041222974E+02 -0.14508346857E+02  0.89230792443E+02  0.00000000000E+00 0. -1.
         -5    1    3    3    0  503 -0.38590848618E+02 -0.28666598428E+02 -0.73946345178E+02  0.88324285606E+02  0.47000000000E+01 0.  1.
         11    1    4    4    0    0  0.49811639009E+02 -0.11138899666E+02 -0.75929166038E+02  0.91490506184E+02  0.00000000000E+00 0. -1.
        -12    1    4    4    0    0  0.57608047584E+02 -0.19807327622E+02  0.99352963128E+01  0.61722989937E+02  0.00000000000E+00 0.  1.
</event>
<event>
12    1  0.8691829E-002  0.1933596E+03  0.7818608E-02  0.1156444E+00
         21   -1    0    0  503  502  0.00000000000E+00  0.00000000000E+00  0.76582897696E+03  0.76582897696E+03  0.00000000000E+00 0. -1.
         21   -1    0    0  501  503 -0.00000000000E+00 -0.00000000000E+00 -0.71485750568E+02  0.71485750568E+02  0.00000000000E+00 0. -1.
          6    2    1    2  501    0 -0.76484694069E+02 -0.17877620852E+02  0.10313129463E+03  0.21528619765E+03  0.17187950783E+03 0.  0.
         24    2    3    3    0    0 -0.79727422327E+02 -0.43992835023E+02  0.13001384920E+03  0.17737470285E+03  0.79160298279E+02 0.  0.
         -6    2    1    2    0  502  0.76484694069E+02  0.17877620852E+02  0.59121193176E+03  0.62202852988E+03  0.17668736788E+03 0.  0.
        -24    2    5    5    0    0  0.21756788649E+02 -0.37920032346E+02  0.16462955379E+03  0.18831994461E+03  0.80313291881E+02 0.  0.
          5    1    3    3  501    0  0.32427282582E+01  0.26115214171E+02 -0.26882554571E+02  0.37911494800E+02  0.47000000000E+01 0. -1.
        -13    1    4    4    0    0  0.12062379059E+02 -0.17083109061E+02  0.44081984297E+02  0.48790930954E+02  0.00000000000E+00 0.  1.
         14    1    4    4    0    0 -0.91789801386E+02 -0.26909725963E+02  0.85931864904E+02  0.12858377190E+03  0.00000000000E+00 0. -1.
         -5    1    5    5    0  502  0.54727905420E+02  0.55797653199E+02  0.42658237798E+03  0.43370858527E+03  0.47000000000E+01 0.  1.
         13    1    6    6    0    0 -0.97158322882E+01  0.81504242051E+01  0.10828397377E+03  0.10902406059E+03  0.00000000000E+00 0. -1.
        -14    1    6    6    0    0  0.31472620937E+02 -0.46070456551E+02  0.56345580019E+02  0.79295884024E+02  0.00000000000E+00 0.  1.
</event>
<event>
12    1  0.8691829E-002  0.2334174E+03  0.7818608E-02  0.1124305E+00
         21   -1    0    0  501  502  0.00000000000E+00  0.00000000000E+00  0.12421451263E+03  0.12421451263E+03  0.00000000000E+00 0.  1.
         21   -1    0    0  502  503 -0.00000000000E+00 -0.00000000000E+00 -0.45574376261E+03  0.45574376261E+03  0.00000000000E+00 0.  1.
         -6    2    1    2    0  503 -0.10344409416E+03 -0.11930003727E+03 -0.10882101976E+03  0.25753777633E+03  0.17190262471E+03 0.  0.
        -24    2    3    3    0    0  0.12712357133E+02 -0.37700242250E+02 -0.55765700058E+02  0.10592047957E+03  0.80786276067E+02 0.  0.
          6    2    1    2  501    0  0.10344409416E+03  0.11930003727E+03 -0.22270823022E+03  0.32242049892E+03  0.17153088003E+03 0.  0.
         24    2    5    5    0    0  0.54542995442E+02  0.72612271334E+02 -0.39461174737E+02  0.12704230595E+03  0.79593233944E+02 0.  0.
          5    1    5    5  501    0  0.48901098719E+02  0.46687765940E+02 -0.18324705548E+03  0.19537819297E+03  0.47000000000E+01 0. -1.
        -13    1    6    6    0    0  0.25799626053E+02  0.56384945360E+02 -0.61515752130E+02  0.87344550648E+02  0.00000000000E+00 0.  1.
         14    1    6    6    0    0  0.28743369389E+02  0.16227325974E+02  0.22054577393E+02  0.39697755303E+02  0.00000000000E+00 0. -1.
         -5    1    3    3    0  503 -0.11615645129E+03 -0.81599795024E+02 -0.53055319704E+02  0.15161729675E+03  0.47000000000E+01 0.  1.
         11    1    4    4    0    0 -0.29453938776E+02  0.65323368117E+00 -0.33792794717E+02  0.44832066632E+02  0.00000000000E+00 0. -1.
        -12    1    4    4    0    0  0.42166295909E+02 -0.38353475931E+02 -0.21972905340E+02  0.61088412942E+02  0.00000000000E+00 0.  1.
</event>
<event>
12    1  0.8691829E-002  0.1915137E+03  0.7818608E-02  0.1157141E+00
         21   -1    0    0  503  502  0.00000000000E+00  0.00000000000E+00  0.40297300344E+03  0.40297300344E+03  0.00000000000E+00 0.  1.
         21   -1    0    0  501  503 -0.00000000000E+00 -0.00000000000E+00 -0.13307174837E+03  0.13307174837E+03  0.00000000000E+00 0.  1.
          6    2    1    2  501    0  0.83337476790E+02 -0.14755221541E+02 -0.15825127441E+02  0.19216640968E+03  0.17179826178E+03 0.  0.
         24    2    3    3    0    0 -0.14058728521E+02 -0.38226838294E+02  0.84962580494E+01  0.88964871927E+02  0.78636016066E+02 0.  0.
         -6    2    1    2    0  502 -0.83337476790E+02  0.14755221541E+02  0.28572638251E+03  0.34387834214E+03  0.17160972271E+03 0.  0.
        -24    2    5    5    0    0 -0.11640949011E+03  0.38343830468E+02  0.17785684211E+03  0.22851756769E+03  0.74604314437E+02 0.  0.
          5    1    3    3  501    0  0.97396205311E+02  0.23471616753E+02 -0.24321385490E+02  0.10320153775E+03  0.47000000000E+01 0. -1.
        -13    1    4    4    0    0  0.11304592558E+02  0.54119350131E+01 -0.25290822352E+02  0.28226026088E+02  0.00000000000E+00 0.  1.
         14    1    4    4    0    0 -0.25363321079E+02 -0.43638773307E+02  0.33787080401E+02  0.60738845839E+02  0.00000000000E+00 0. -1.
         -5    1    5    5    0  502  0.33072013323E+02 -0.23588608927E+02  0.10786954040E+03  0.11536077445E+03  0.47000000000E+01 0.  1.
         13    1    6    6    0    0 -0.34613008767E+02  0.20883708346E+02  0.11037096136E+02  0.41904738889E+02  0.00000000000E+00 0. -1.
        -14    1    6    6    0    0 -0.81796481346E+02  0.17460122122E+02  0.16681974598E+03  0.18661282880E+03  0.00000000000E+00 0.  1.
</event>
<event>
12    1  0.8691829E-002  0.1861403E+03  0.7818608E-02  0.1162198E+00
         21   -1    0    0  503  502  0.00000000000E+00  0.00000000000E+00  0.73884439760E+03  0.73884439760E+03  0.00000000000E+00 0.  1.
         21   -1    0    0  501  503 -0.00000000000E+00 -0.00000000000E+00 -0.62584307293E+02  0.62584307293E+02  0.00000000000E+00 0.  1.
          6    2    1    2  501    0  0.46682960871E+02 -0.52297561523E+02  0.53959217023E+03  0.57050374414E+03  0.17146567622E+03 0.  0.
         24    2    3    3    0    0  0.70100831690E+02 -0.79095164453E+02  0.49970800637E+03  0.51684421820E+03  0.79054934165E+02 0.  0.
         -6    2    1    2    0  502 -0.46682960871E+02  0.52297561523E+02  0.13666792007E+03  0.23092496075E+03  0.17243515693E+03 0.  0.
        -24    2    5    5    0    0 -0.35123069648E+02 -0.27999109285E+02  0.11385639955E+03  0.14652329077E+03  0.80549456084E+02 0.  0.
          5    1    3    3  501    0 -0.23417870819E+02  0.26797602929E+02  0.39884163864E+02  0.53659525935E+02  0.47000000000E+01 0. -1.
        -13    1    4    4    0    0  0.69978441771E+01 -0.17941138262E+02  0.27335644183E+03  0.27403393686E+03  0.00000000000E+00 0.  1.
         14    1    4    4    0    0  0.63102987512E+02 -0.61154026191E+02  0.22635156454E+03  0.24281028134E+03  0.00000000000E+00 0. -1.
         -5    1    5    5    0  502 -0.11559891223E+02  0.80296670808E+02  0.22811520515E+02  0.84401669985E+02  0.47000000000E+01 0.  1.
         13    1    6    6    0    0  0.13757140802E+02  0.36592918253E+01  0.75406500093E+02  0.76738449267E+02  0.00000000000E+00 0. -1.
        -14    1    6    6    0    0 -0.48880210450E+02 -0.31658401110E+02  0.38449899462E+02  0.69784841500E+02  0.00000000000E+00 0.  1.
</event>
<event>
12    1  0.8691829E-002  0.1803887E+03  0.7818608E-02  0.1167483E+00
         21   -1    0    0  503  502  0.00000000000E+00  0.00000000000E+00  0.69115745408E+03  0.69115745408E+03  0.00000000000E+00 0.  1.
         21   -1    0    0  501  503 -0.00000000000E+00 -0.00000000000E+00 -0.47020378494E+02  0.47020378494E+02  0.00000000000E+00 0.  1.
          6    2    1    2  501    0  0.20033875769E+02  0.49258369634E+02  0.32130842723E+03  0.36836923072E+03  0.17213088501E+03 0.  0.
         24    2    3    3    0    0 -0.20057131177E+02  0.11713350801E+02  0.76869430471E+02  0.11779103850E+03  0.86176147007E+02 0.  0.
         -6    2    1    2    0  502 -0.20033875769E+02 -0.49258369634E+02  0.32282864835E+03  0.36980860185E+03  0.17237262732E+03 0.  0.
        -24    2    5    5    0    0  0.53452193956E+02 -0.15477104341E+02  0.14010399562E+03  0.16992922562E+03  0.78422792173E+02 0.  0.
          5    1    3    3  501    0  0.40091006946E+02  0.37545018832E+02  0.24443899676E+03  0.25057819222E+03  0.47000000000E+01 0. -1.
        -13    1    4    4    0    0 -0.13254308630E+02  0.39941436355E+02  0.78113331689E+02  0.88728167021E+02  0.00000000000E+00 0.  1.
         14    1    4    4    0    0 -0.68028225469E+01 -0.28228085554E+02 -0.12439012177E+01  0.29062871484E+02  0.00000000000E+00 0. -1.
         -5    1    5    5    0  502 -0.73486069725E+02 -0.33781265292E+02  0.18272465273E+03  0.19987937624E+03  0.47000000000E+01 0.  1.
         13    1    6    6    0    0 -0.98057664880E+01 -0.19727422591E+02  0.78484389345E+02  0.81517627722E+02  0.00000000000E+00 0. -1.
        -14    1    6    6    0    0  0.63257960444E+02  0.42503182494E+01  0.61619606274E+02  0.88411597894E+02  0.00000000000E+00 0.  1.
</event>
<event>
12    1  0.8691829E-002  0.2212777E+03  0.7818608E-02  0.1133020E+00
         21   -1    0    0  503  502  0.00000000000E+00  0.00000000000E+00  0.98080245357E+03  0.98080245357E+03  0.00000000000E+00 0.  1.
         21   -1    0    0  501  503 -0.00000000000E+00 -0.00000000000E+00 -0.51204028920E+02  0.51204028920E+02  0.00000000000E+00 0. -1.
          6    2    1    2  501    0  0.78428247980E+02  0.11369077064E+03  0.38037162090E+03  0.44005272003E+03  0.17287927872E+03 0.  0.
         24    2    3    3    0    0  0.47190314123E+02  0.12851504028E+03  0.37188449170E+03  0.40414048195E+03  0.79299512362E+02 0.  0.
         -6    2    1    2    0  502 -0.78428247980E+02 -0.11369077064E+03  0.54922680375E+03  0.59195376246E+03  0.17228637069E+03 0.  0.
        -24    2    5    5    0    0 -0.70130023528E+02 -0.97256713498E+02  0.22752151919E+03  0.26968784916E+03  0.81168995120E+02 0.  0.
          5    1    3    3  501    0  0.31237933857E+02 -0.14824269641E+02  0.84871292052E+01  0.35912238084E+02  0.47000000000E+01 0. -1.
        -13    1    4    4    0    0 -0.22179646552E+01  0.24523864638E+02  0.16966958264E+03  0.17144709556E+03  0.00000000000E+00 0.  1.
         14    1    4    4    0    0  0.49408278778E+02  0.10399117564E+03  0.20221490906E+03  0.23269338638E+03  0.00000000000E+00 0. -1.
         -5    1    5    5    0  502 -0.82982244522E+01 -0.16434057137E+02  0.32170528456E+03  0.32226591330E+03  0.47000000000E+01 0.  1.
         13    1    6    6    0    0 -0.33024591530E+02 -0.80515891537E+02  0.85696514565E+02  0.12213650169E+03  0.00000000000E+00 0. -1.
        -14    1    6    6    0    0 -0.37105431998E+02 -0.16740821961E+02  0.14182500463E+03  0.14755134748E+03  0.00000000000E+00 0.  1.
</event>
<event>
12    1  0.8691829E-002  0.2903739E+03  0.7818608E-02  0.1090156E+00
         21   -1    0    0  503  502  0.00000000000E+00  0.00000000000E+00  0.85699031703E+03  0.85699031703E+03  0.00000000000E+00 0. -1.
         21   -1    0    0  501  503 -0.00000000000E+00 -0.00000000000E+00 -0.20361938904E+03  0.20361938904E+03  0.00000000000E+00 0. -1.
          6    2    1    2  501    0 -0.23354852042E+03 -0.17227382791E+02 -0.54552410144E+02  0.29545381338E+03  0.17168371000E+03 0.  0.
         24    2    3    3    0    0 -0.22209493232E+03  0.25191293328E+02 -0.72048368181E+02  0.24792774357E+03  0.79476024365E+02 0.  0.
         -6    2    1    2    0  502  0.23354852042E+03  0.17227382791E+02  0.70792333814E+03  0.76515589269E+03  0.17165777969E+03 0.  0.
        -24    2    5    5    0    0  0.84207409072E+02  0.50486668329E+02  0.30558041974E+03  0.33467841175E+03  0.94818009575E+02 0.  0.
          5    1    3    3  501    0 -0.11453588097E+02 -0.42418676119E+02  0.17495958037E+02  0.47526069811E+02  0.47000000000E+01 0. -1.
        -11    1    4    4    0    0 -0.33993668221E+02 -0.14471438642E+01  0.17091879398E+02  0.38076187386E+02  0.00000000000E+00 0.  1.
         12    1    4    4    0    0 -0.18810126410E+03  0.26638437192E+02 -0.89140247579E+02  0.20985155618E+03  0.00000000000E+00 0. -1.
         -5    1    5    5    0  502  0.14934111135E+03 -0.33259285538E+02  0.40234291840E+03  0.43047748094E+03  0.47000000000E+01 0.  1.
         13    1    6    6    0    0  0.10021589738E+03  0.46383525485E+02  0.20596202503E+03  0.23369855216E+03  0.00000000000E+00 0. -1.
        -14    1    6    6    0    0 -0.16008488309E+02  0.41031428437E+01  0.99618394706E+02  0.10097985959E+03  0.00000000000E+00 0.  1.
</event>
<event>
12    1  0.8691829E-002  0.2250689E+03  0.7818608E-02  0.1130354E+00
         21   -1    0    0  501  502  0.00000000000E+00  0.00000000000E+00  0.60095176128E+02  0.60095176128E+02  0.00000000000E+00 0.  1.
         21   -1    0    0  502  503 -0.00000000000E+00 -0.00000000000E+00 -0.84874759782E+03  0.84874759782E+03  0.00000000000E+00 0.  1.
         -6    2    1    2    0  503  0.12418144639E+03 -0.72756873966E+02 -0.34448366318E+03  0.41090513274E+03  0.17163752381E+03 0.  0.
        -24    2    3    3    0    0  0.35920911637E+02 -0.79789204430E+02 -0.11656282827E+03  0.16634558447E+03  0.80170639898E+02 0.  0.
          6    2    1    2  501    0 -0.12418144639E+03  0.72756873966E+02 -0.44416875851E+03  0.49793764120E+03  0.17303587534E+03 0.  0.
         24    2    5    5    0    0 -0.15004902011E+03  0.33125581301E+02 -0.38497506526E+03  0.42200507869E+03  0.79186318261E+02 0.  0.
          5    1    5    5  501    0  0.25867573720E+02  0.39631292665E+02 -0.59193693248E+02  0.75932562507E+02  0.47000000000E+01 0. -1.
        -13    1    6    6    0    0 -0.23402374309E+02 -0.44104083215E+01 -0.15479661421E+03  0.15661773397E+03  0.00000000000E+00 0.  1.
         14    1    6    6    0    0 -0.12664664580E+03  0.37535989622E+02 -0.23017845105E+03  0.26538734472E+03  0.00000000000E+00 0. -1.
         -5    1    3    3    0  503  0.88260534752E+02  0.70323304639E+01 -0.22792083491E+03  0.24455954828E+03  0.47000000000E+01 0.  1.
         11    1    4    4    0    0  0.18633075574E+02  0.22958414727E+01  0.42657635156E+01  0.19252509753E+02  0.00000000000E+00 0. -1.
        -12    1    4    4    0    0  0.17287836063E+02 -0.82085045902E+02 -0.12082859178E+03  0.14709307472E+03  0.00000000000E+00 0.  1.
</event>
<event>
12    1  0.8691829E-002  0.2075672E+03  0.7818608E-02  0.1144009E+00
         21   -1    0    0  503  502  0.00000000000E+00  0.00000000000E+00  0.62884096641E+03  0.62884096641E+03  0.00000000000E+00 0. -1.
         21   -1    0    0  501  503 -0.00000000000E+00 -0.00000000000E+00 -0.18704224275E+03  0.18704224275E+03  0.00000000000E+00 0. -1.
          6    2    1    2  501    0 -0.10489752251E+03  0.42951336490E+02 -0.10543807042E+03  0.23060356021E+03  0.17091666904E+03 0.  0.
         24    2    3    3    0    0  0.13051386615E+02  0.10541789648E+02 -0.54920621527E+02  0.98178386882E+02  0.79631984530E+02 0.  0.
         -6    2    1    2    0  502  0.10489752251E+03 -0.42951336490E+02  0.54723679408E+03  0.58527964894E+03  0.17388459143E+03 0.  0.
        -24    2    5    5    0    0  0.97035299105E+02  0.30081232212E+02  0.40322777473E+03  0.42355068338E+03  0.80509709181E+02 0.  0.
          5    1    3    3  501    0 -0.11794890912E+03  0.32409546842E+02 -0.50517448889E+02  0.13242517333E+03  0.47000000000E+01 0. -1.
        -11    1    4    4    0    0  0.89029415960E+01 -0.34723925304E+02 -0.22092911973E+02  0.42108314108E+02  0.00000000000E+00 0.  1.
         12    1    4    4    0    0  0.41484450189E+01  0.45265714952E+02 -0.32827709555E+02  0.56070072773E+02  0.00000000000E+00 0. -1.
         -5    1    5    5    0  502  0.78622234014E+01 -0.73032568702E+02  0.14400901935E+03  0.16172896556E+03  0.47000000000E+01 0.  1.
         11    1    6    6    0    0  0.66396258388E+02 -0.33364170944E+01  0.33567123356E+03  0.34219113350E+03  0.00000000000E+00 0. -1.
        -12    1    6    6    0    0  0.30639040718E+02  0.33417649306E+02  0.67556541166E+02  0.81359549873E+02  0.00000000000E+00 0.  1.
</event>
<event>
12    1  0.8691829E-002  0.2107123E+03  0.7818608E-02  0.1141082E+00
         21   -1    0    0  503  502  0.00000000000E+00  0.00000000000E+00  0.43108716113E+02  0.43108716113E+02  0.00000000000E+00 0. -1.
         21   -1    0    0  501  503 -0.00000000000E+00 -0.00000000000E+00 -0.13065440544E+04  0.13065440544E+04  0.00000000000E+00 0.  1.
          6    2    1    2  501    0  0.72447731750E+02  0.97935723218E+02 -0.94377768984E+03  0.96701396199E+03  0.17192904099E+03 0.  0.
         24    2    3    3    0    0  0.75882613717E+02  0.13081508581E+02 -0.70433792428E+03  0.71291648564E+03  0.78922157827E+02 0.  0.
         -6    2    1    2    0  502 -0.72447731750E+02 -0.97935723218E+02 -0.31965764840E+03  0.38263880847E+03  0.17143910245E+03 0.  0.
        -24    2    5    5    0    0 -0.82505210821E+02 -0.92801455598E+02 -0.14264323642E+03  0.20520232508E+03  0.79634674281E+02 0.  0.
          5    1    3    3  501    0 -0.34348819669E+01  0.84854214637E+02 -0.23943976556E+03  0.25409747635E+03  0.47000000000E+01 0. -1.
        -13    1    4    4    0    0  0.45832806184E+01  0.57360552445E+01 -0.40682228723E+03  0.40688853778E+03  0.00000000000E+00 0.  1.
         14    1    4    4    0    0  0.71299333098E+02  0.73454533364E+01 -0.29751563705E+03  0.30602794786E+03  0.00000000000E+00 0. -1.
         -5    1    5    5    0  502  0.10057479071E+02 -0.51342676200E+01 -0.17701441198E+03  0.17743648339E+03  0.47000000000E+01 0.  1.
         11    1    6    6    0    0  0.92351930221E+01 -0.41043492736E+02 -0.44375222395E+02  0.61147505662E+02  0.00000000000E+00 0. -1.
        -12    1    6    6    0    0 -0.91740403843E+02 -0.51757962863E+02 -0.98268014026E+02  0.14405481942E+03  0.00000000000E+00 0.  1.
</event>
<event>
12    1  0.8691829E-002  0.2345091E+03  0.7818608E-02  0.1123584E+00
         21   -1    0    0  501  502  0.00000000000E+00  0.00000000000E+00  0.22469881584E+03  0.22469881584E+03  0.00000000000E+00 0.  1.
         21   -1    0    0  502  503 -0.00000000000E+00 -0.00000000000E+00 -0.36033111986E+03  0.36033111986E+03  0.00000000000E+00 0. -1.
         -6    2    1    2    0  503  0.13449211302E+03 -0.85906247846E+02 -0.23387190700E+03  0.33119572733E+03  0.17183285203E+03 0.  0.
        -24    2    3    3    0    0  0.14352651463E+03 -0.42448498423E+02 -0.23429581485E+03  0.28655867887E+03  0.69423426614E+02 0.  0.
          6    2    1    2  501    0 -0.13449211302E+03  0.85906247846E+02  0.98239602978E+02  0.25383420836E+03  0.17120973645E+03 0.  0.
         24    2    5    5    0    0 -0.13686104825E+03  0.98352294521E+02  0.12419142970E+03  0.22457496637E+03  0.81279049846E+02 0.  0.
          5    1    5    5  501    0  0.23689352220E+01 -0.12446046675E+02 -0.25951826718E+02  0.29259241992E+02  0.47000000000E+01 0. -1.
        -13    1    6    6    0    0 -0.92444059378E+02  0.63511932782E+02  0.12523085950E+03  0.16811435956E+03  0.00000000000E+00 0.  1.
         14    1    6    6    0    0 -0.44416988868E+02  0.34840361740E+02 -0.10394298053E+01  0.56460606803E+02  0.00000000000E+00 0. -1.
         -5    1    3    3    0  503 -0.90344016041E+01 -0.43457749423E+02  0.42390784960E+00  0.44637048459E+02  0.47000000000E+01 0.  1.
         11    1    4    4    0    0  0.13633127154E+03 -0.52045578581E+02 -0.18394749152E+03  0.23480127233E+03  0.00000000000E+00 0. -1.
        -12    1    4    4    0    0  0.71952430894E+01  0.95970801577E+01 -0.50348323326E+02  0.51757406547E+02  0.00000000000E+00 0.  1.
</event>
<event>
12    1  0.8691829E-002  0.1968371E+03  0.7818608E-02  0.1152540E+00
         21   -1    0    0  501  502  0.00000000000E+00  0.00000000000E+00  0.32751347189E+03  0.32751347189E+03  0.00000000000E+00 0.  1.
         21   -1    0    0  502  503 -0.00000000000E+00 -0.00000000000E+00 -0.27405367631E+03  0.27405367631E+03  0.00000000000E+00 0.  1.
         -6    2    1    2    0  503 -0.30685128720E+02  0.88955922476E+02 -0.20025039921E+03  0.28045392592E+03  0.17233528052E+03 0.  0.
        -24    2    3    3    0    0 -0.60802329909E+02  0.39839916156E+02 -0.49644330675E+02  0.11913527925E+03  0.80277723880E+02 0.  0.
          6    2    1    2  501    0  0.30685128720E+02 -0.88955922476E+02  0.25371019478E+03  0.32111322229E+03  0.17288755109E+03 0.  0.
         24    2    5    5    0    0  0.60222046347E+02  0.10809429617E+02  0.10149030408E+03  0.13667206606E+03  0.68084015641E+02 0.  0.
          5    1    5    5  501    0 -0.29536917627E+02 -0.99765352093E+02  0.15221989071E+03  0.18444115622E+03  0.47000000000E+01 0. -1.
        -13    1    6    6    0    0  0.30089489519E+02 -0.62752363360E+01  0.96987725579E+02  0.10174170671E+03  0.00000000000E+00 0.  1.
         14    1    6    6    0    0  0.30132556828E+02  0.17084665953E+02  0.45025784975E+01  0.34930359357E+02  0.00000000000E+00 0. -1.
         -5    1    3    3    0  503  0.30117201189E+02  0.49116006320E+02 -0.15060606853E+03  0.16131864667E+03  0.47000000000E+01 0.  1.
         13    1    4    4    0    0 -0.27072374256E+02  0.61397808656E+02 -0.22516264289E+02  0.70778432542E+02  0.00000000000E+00 0. -1.
        -14    1    4    4    0    0 -0.33729955653E+02 -0.21557892500E+02 -0.27128066386E+02  0.48356846705E+02  0.00000000000E+00 0.  1.
</event>
<event>
12    1  0.8691829E-002  0.1852971E+03  0.7818608E-02  0.1163311E+00
         21   -1    0    0  503  502  0.00000000000E+00  0.00000000000E+00  0.59709231016E+02  0.59709231016E+02  0.00000000000E+00 0.  1.
         21   -1    0    0  501  503 -0.00000000000E+00 -0.00000000000E+00 -0.59365077560E+03  0.59365077560E+03  0.00000000000E+00 0. -1.
          6    2    1    2  501    0 -0.60182951473E+02 -0.18904051047E+02 -0.33336387222E+03  0.38029146145E+03  0.17178700055E+03 0.  0.
         24    2    3    3    0    0 -0.56909184395E+02 -0.50955361502E+02 -0.11769978301E+03  0.16218347575E+03  0.81333490952E+02 0.  0.
         -6    2    1    2    0  502  0.60182951473E+02  0.18904051047E+02 -0.20057767236E+03  0.27306854517E+03  0.17422880621E+03 0.  0.
        -24    2    5    5    0    0  0.66692543907E+02  0.36343166579E+02 -0.22169358253E+03  0.24452963828E+03  0.69842524934E+02 0.  0.
          5    1    3    3  501    0 -0.32737670783E+01  0.32051310455E+02 -0.21566408921E+03  0.21810798570E+03  0.47000000000E+01 0. -1.
        -11    1    4    4    0    0 -0.24901792737E+02 -0.62090773887E+02 -0.41338319575E+02  0.78639812746E+02  0.00000000000E+00 0.  1.
         12    1    4    4    0    0 -0.32007391658E+02  0.11135412385E+02 -0.76361463434E+02  0.83543663001E+02  0.00000000000E+00 0. -1.
         -5    1    5    5    0  502 -0.65095924336E+01 -0.17439115532E+02  0.21115910169E+02  0.28538906890E+02  0.47000000000E+01 0.  1.
         13    1    6    6    0    0 -0.14372745317E+02  0.49836289351E+01 -0.47114721976E+02  0.49509689882E+02  0.00000000000E+00 0. -1.
        -14    1    6    6    0    0  0.81065289224E+02  0.31359537644E+02 -0.17457886056E+03  0.19501994839E+03  0.00000000000E+00 0.  1.
</event>
<event>
12    1  0.8691829E-002  0.2165615E+03  0.7818608E-02  0.1138073E+00
         21   -1    0    0  503  502  0.00000000000E+00  0.00000000000E+00  0.47190592309E+02  0.47190592309E+02  0.00000000000E+00 0. -1.
         21   -1    0    0  501  503 -0.00000000000E+00 -0.00000000000E+00 -0.11108986829E+04  0.11108986829E+04  0.00000000000E+00 0.  1.
          6    2    1    2  501    0  0.98825224666E+02 -0.70498529955E+02 -0.75665289363E+03  0.78703397239E+03  0.17933879810E+03 0.  0.
         24    2    3    3    0    0  0.13333832784E+03 -0.77569007862E+02 -0.68975951455E+03  0.71128464821E+03  0.79759652836E+02 0.  0.
         -6    2    1    2    0  502 -0.98825224666E+02  0.70498529955E+02 -0.30705519701E+03  0.37105530287E+03  0.16930054937E+03 0.  0.
        -24    2    5    5    0    0  0.69685022121E+00  0.54715915020E+02 -0.21084824099E+03  0.23165801914E+03  0.78829817615E+02 0.  0.
          5    1    3    3  501    0 -0.34513103175E+02  0.70704779068E+01 -0.66893379082E+02  0.75749324180E+02  0.47000000000E+01 0. -1.
        -13    1    4    4    0    0  0.41206654891E+02 -0.17582550607E+02 -0.37925053613E+03  0.38188755367E+03  0.00000000000E+00 0.  1.
         14    1    4    4    0    0  0.92131672950E+02 -0.59986457255E+02 -0.31050897842E+03  0.32939709454E+03  0.00000000000E+00 0. -1.
         -5    1    5    5    0  502 -0.99522074887E+02  0.15782614935E+02 -0.96206956015E+02  0.13939728372E+03  0.47000000000E+01 0.  1.
         11    1    6    6    0    0  0.32172485649E+02  0.17125527553E+02 -0.40917662018E+02  0.54796054528E+02  0.00000000000E+00 0. -1.
        -12    1    6    6    0    0 -0.31475635428E+02  0.37590387467E+02 -0.16993057898E+03  0.17686196461E+03  0.00000000000E+00 0.  1.
</event>
<event>
12    1  0.8691829E-002  0.1908230E+03  0.7818608E-02  0.1157933E+00
         21   -1    0    0  503  502  0.00000000000E+00  0.00000000000E+00  0.31596866506E+03  0.31596866506E+03  0.00000000000E+00 0. -1.
         21   -1    0    0  501  503 -0.00000000000E+00 -0.00000000000E+00 -0.18457034554E+03  0.18457034554E+03  0.00000000000E+00 0. -1.
          6    2    1    2  501    0  0.18883808559E+02 -0.80215768323E+02 -0.88209556998E+02  0.21022449717E+03  0.17211114301E+03 0.  0.
         24    2    3    3    0    0 -0.29595951402E+01 -0.28567182575E+01  0.11649822497E+02  0.81945338354E+02  0.81008641954E+02 0.  0.
         -6    2    1    2    0  502 -0.18883808559E+02  0.80215768323E+02  0.21960787652E+03  0.29031451344E+03  0.17106644782E+03 0.  0.
        -24    2    5    5    0    0  0.46074446961E+02  0.81423657752E+02  0.14916563600E+03  0.19437060688E+03  0.82321802398E+02 0.  0.
          5    1    3    3  501    0  0.21843403699E+02 -0.77359050065E+02 -0.99859379495E+02  0.12827915881E+03  0.47000000000E+01 0. -1.
        -13    1    4    4    0    0  0.34705065521E+01  0.19468365884E+02 -0.29014195751E+02  0.35112465607E+02  0.00000000000E+00 0.  1.
         14    1    4    4    0    0 -0.64301016923E+01 -0.22325084141E+02  0.40664018248E+02  0.46832872747E+02  0.00000000000E+00 0. -1.
         -5    1    5    5    0  502 -0.64958255520E+02 -0.12078894295E+01  0.70442240514E+02  0.95943906558E+02  0.47000000000E+01 0.  1.
         11    1    6    6    0    0  0.27168300756E+02  0.83870893824E+02  0.15137760875E+03  0.17517883385E+03  0.00000000000E+00 0. -1.
        -12    1    6    6    0    0  0.18906146204E+02 -0.24472360712E+01 -0.22119727485E+01  0.19191773033E+02  0.00000000000E+00 0.  1.
</event>
<event>
12    1  0.8691829E-002  0.2106344E+03  0.7818608E-02  0.1141188E+00
         21   -1    0    0  501  502  0.00000000000E+00  0.00000000000E+00  0.41893412259E+03  0.41893412259E+03  0.00000000000E+00 0. -1.
         21   -1    0    0  502  503 -0.00000000000E+00 -0.00000000000E+00 -0.15169900123E+03  0.15169900123E+03  0.00000000000E+00 0. -1.
         -6    2    1    2    0  503  0.12066933093E+03  0.20300880448E+02 -0.23818269986E+02  0.21135757919E+03  0.17067953340E+03 0.  0.
        -24    2    3    3    0    0  0.10064268109E+02  0.64366090820E+00  0.27953139699E+02  0.87574482357E+02  0.82378444687E+02 0.  0.
          6    2    1    2  501    0 -0.12066933093E+03 -0.20300880448E+02  0.29105339135E+03  0.35927554462E+03  0.17144569745E+03 0.  0.
         24    2    5    5    0    0 -0.39465989850E+02 -0.63527281064E+02  0.21120312560E+03  0.23737124095E+03  0.78390471191E+02 0.  0.
          5    1    5    5  501    0 -0.81203341081E+02  0.43226400616E+02  0.79850265752E+02  0.12190430367E+03  0.47000000000E+01 0. -1.
        -11    1    6    6    0    0 -0.25246348829E+02 -0.24177919761E+02  0.18439629886E+03  0.18768043310E+03  0.00000000000E+00 0.  1.
         12    1    6    6    0    0 -0.14219641020E+02 -0.39349361302E+02  0.26806826741E+02  0.49690807858E+02  0.00000000000E+00 0. -1.
         -5    1    3    3    0  503  0.11060506282E+03  0.19657219540E+02 -0.51771409685E+02  0.12378309684E+03  0.47000000000E+01 0.  1.
         11    1    4    4    0    0  0.27892551679E+02 -0.18058827945E+02  0.45499713529E+02  0.56341278270E+02  0.00000000000E+00 0. -1.
        -12    1    4    4    0    0 -0.17828283570E+02  0.18702488853E+02 -0.17546573830E+02  0.31233204086E+02  0.00000000000E+00 0.  1.
</event>
<event>
12    1  0.8691829E-002  0.2079998E+03  0.7818608E-02  0.1144027E+00
         21   -1    0    0  501  502  0.00000000000E+00  0.00000000000E+00  0.19494396417E+04  0.19494396417E+04  0.00000000000E+00 0.  1.
         21   -1    0    0  502  503 -0.00000000000E+00 -0.00000000000E+00 -0.25128985708E+02  0.25128985708E+02  0.00000000000E+00 0. -1.
         -6    2    1    2    0  503 -0.10424363043E+03 -0.21195043482E+02  0.13334248889E+04  0.13495502412E+04  0.17873990839E+03 0.  0.
        -24    2    3    3    0    0 -0.12421101467E+03 -0.45254980648E+02  0.77447902085E+03  0.78971084422E+03  0.79681078688E+02 0.  0.
          6    2    1    2  501    0  0.10424363043E+03  0.21195043482E+02  0.59088576709E+03  0.62501838620E+03  0.17374127024E+03 0.  0.
         24    2    5    5    0    0  0.64258612044E+02  0.73645213726E+02  0.47733659408E+03  0.49362079587E+03  0.79110551375E+02 0.  0.
          5    1    5    5  501    0  0.39985018383E+02 -0.52450170245E+02  0.11354917302E+03  0.13139759034E+03  0.47000000000E+01 0. -1.
        -11    1    6    6    0    0 -0.77322059792E+01  0.25343618548E+02  0.23019407397E+03  0.23171404296E+03  0.00000000000E+00 0.  1.
         12    1    6    6    0    0  0.71990818023E+02  0.48301595178E+02  0.24714252010E+03  0.26190675291E+03  0.00000000000E+00 0. -1.
         -5    1    3    3    0  503  0.19967384244E+02  0.24059937166E+02  0.55894586808E+03  0.55983939702E+03  0.47000000000E+01 0.  1.
         13    1    4    4    0    0 -0.21784173609E+02 -0.39770899888E+02  0.14487202617E+03  0.15180309174E+03  0.00000000000E+00 0. -1.
        -14    1    4    4    0    0 -0.10242684106E+03 -0.54840807598E+01  0.62960699468E+03  0.63790775247E+03  0.00000000000E+00 0.  1.
</event>
<event>
12    1  0.8691829E-002  0.2160894E+03  0.7818608E-02  0.1137029E+00
         21   -1    0    0  503  502  0.00000000000E+00  0.00000000000E+00  0.52432589799E+02  0.52432589799E+02  0.00000000000E+00 0.  1.
         21   -1    0    0  501  503 -0.00000000000E+00 -0.00000000000E+00 -0.28589317096E+04  0.28589317096E+04  0.00000000000E+00 0.  1.
          6    2    1    2  501    0 -0.12094221470E+03 -0.48376793103E+02 -0.26134458463E+04  0.26223641654E+04  0.17241603971E+03 0.  0.
         24    2    3    3    0    0 -0.70530346943E+02 -0.80589297241E+02 -0.22739681770E+04  0.22776234225E+04  0.71888942084E+02 0.  0.
         -6    2    1    2    0  502  0.12094221470E+03  0.48376793103E+02 -0.19305327345E+03  0.28900013400E+03  0.17112620388E+03 0.  0.
        -24    2    5    5    0    0  0.20524060041E+02  0.68842706628E+02 -0.63569907984E+02  0.12380118929E+03  0.78262672912E+02 0.  0.
          5    1    3    3  501    0 -0.50411867758E+02  0.32212504138E+02 -0.33947766934E+03  0.34474074290E+03  0.47000000000E+01 0. -1.
        -13    1    4    4    0    0 -0.67702186675E+02 -0.65718146586E+02 -0.12546264751E+04  0.12581693260E+04  0.00000000000E+00 0.  1.
         14    1    4    4    0    0 -0.28281602688E+01 -0.14871150655E+02 -0.10193417018E+04  0.10194540964E+04  0.00000000000E+00 0. -1.
         -5    1    5    5    0  502  0.10041815466E+03 -0.20465913525E+02 -0.12948336547E+03  0.16519894471E+03  0.47000000000E+01 0.  1.
         11    1    6    6    0    0 -0.12379170362E+02 -0.74566469015E+01 -0.31643115542E+02  0.34786954495E+02  0.00000000000E+00 0. -1.
        -12    1    6    6    0    0  0.32903230402E+02  0.76299353530E+02 -0.31926792442E+02  0.89014234792E+02  0.00000000000E+00 0.  1.
</event>
<event>
12    1  0.8691829E-002  0.2310500E+03  0.7818608E-02  0.1125986E+00
         21   -1    0    0  503  502  0.00000000000E+00  0.00000000000E+00  0.49672004185E+03  0.49672004185E+03  0.00000000000E+00 0. -1.
         21   -1    0    0  501  503 -0.00000000000E+00 -0.00000000000E+00 -0.11475415535E+03  0.11475415535E+03  0.00000000000E+00 0. -1.
          6    2    1    2  501    0  0.14556402326E+03 -0.48746422672E+02  0.11299931891E+03  0.25720213611E+03  0.17268177135E+03 0.  0.
         24    2    3    3    0    0  0.42952277367E+02 -0.50595675217E+02  0.11413442606E+03  0.15445989262E+03  0.80164647648E+02 0.  0.
         -6    2    1    2    0  502 -0.14556402326E+03  0.48746422672E+02  0.26896656760E+03  0.35427206109E+03  0.17204819147E+03 0.  0.
        -24    2    5    5    0    0 -0.11427969231E+03 -0.24616733175E+02  0.21484588470E+03  0.25777335480E+03  0.81378846399E+02 0.  0.
          5    1    3    3  501    0  0.10261174589E+03  0.18492525451E+01 -0.11351071572E+01  0.10274224350E+03  0.47000000000E+01 0. -1.
        -13    1    4    4    0    0  0.29372068409E+02  0.12026370159E+02  0.12086869026E+02  0.33962396627E+02  0.00000000000E+00 0.  1.
         14    1    4    4    0    0  0.13580208958E+02 -0.62622045375E+02  0.10204755704E+03  0.12049749599E+03  0.00000000000E+00 0. -1.
         -5    1    5    5    0  502 -0.31284330948E+02  0.73363155847E+02  0.54120682897E+02  0.96498706291E+02  0.47000000000E+01 0.  1.
         11    1    6    6    0    0 -0.29751222023E+02  0.24612885532E+01  0.13539983188E+03  0.13865174945E+03  0.00000000000E+00 0. -1.
        -12    1    6    6    0    0 -0.84528470290E+02 -0.27078021728E+02  0.79446052824E+02  0.11912160534E+03  0.00000000000E+00 0.  1.
</event>
<event>
12    1  0.8691829E-002  0.2344327E+03  0.7818608E-02  0.1123678E+00
         21   -1    0    0  501  502  0.00000000000E+00  0.00000000000E+00  0.15169475566E+03  0.15169475566E+03  0.00000000000E+00 0.  1.
         21   -1    0    0  502  503 -0.00000000000E+00 -0.00000000000E+00 -0.65288096994E+03  0.65288096994E+03  0.00000000000E+00 0.  1.
         -6    2    1    2    0  503  0.15497940177E+03  0.40207203651E+02  0.18491847410E+02  0.23446699994E+03  0.17028679173E+03 0.  0.
        -24    2    3    3    0    0 -0.12762636762E+01  0.15765457094E+02  0.20385130056E+02  0.76230131669E+02  0.71730753240E+02 0.  0.
          6    2    1    2  501    0 -0.15497940177E+03 -0.40207203651E+02 -0.51967806169E+03  0.57010872566E+03  0.17124087443E+03 0.  0.
         24    2    5    5    0    0 -0.15540930067E+03 -0.37780613853E+02 -0.52944145757E+03  0.55899625293E+03  0.81173445603E+02 0.  0.
          5    1    5    5  501    0  0.42989889573E+00 -0.24265897981E+01  0.97633958839E+01  0.11112472735E+02  0.47000000000E+01 0. -1.
        -11    1    6    6    0    0 -0.73654111292E+02 -0.46621318003E+02 -0.17981721803E+03  0.19983169744E+03  0.00000000000E+00 0.  1.
         12    1    6    6    0    0 -0.81755189377E+02  0.88407041495E+01 -0.34962423955E+03  0.35916455549E+03  0.00000000000E+00 0. -1.
         -5    1    3    3    0  503  0.15625566545E+03  0.24441746557E+02 -0.18932826461E+01  0.15823686827E+03  0.47000000000E+01 0.  1.
         13    1    4    4    0    0 -0.11556104409E+02 -0.20361301740E+02 -0.12293522441E+02  0.26443465197E+02  0.00000000000E+00 0. -1.
        -14    1    4    4    0    0  0.10279840732E+02  0.36126758834E+02  0.32678652497E+02  0.49786666471E+02  0.00000000000E+00 0.  1.
</event>
<event>
12    1  0.8691829E-002  0.2053345E+03  0.7818608E-02  0.1145615E+00
         21   -1    0    0  503  502  0.00000000000E+00  0.00000000000E+00  0.65674448505E+02  0.65674448505E+02  0.00000000000E+00 0. -1.
         21   -1    0    0  501  503 -0.00000000000E+00 -0.00000000000E+00 -0.73256140300E+03  0.73256140300E+03  0.00000000000E+00 0. -1.
          6    2    1    2  501    0  0.10131793335E+03  0.40756819955E+02 -0.47624919796E+03  0.51804840636E+03  0.17214648060E+03 0.  0.
         24    2    3    3    0    0  0.12704296136E+03  0.23520046731E+02 -0.45797333020E+03  0.48178574292E+03  0.75397773671E+02 0.  0.
         -6    2    1    2    0  502 -0.10131793335E+03 -0.40756819955E+02 -0.19063775654E+03  0.28018744515E+03  0.17388446799E+03 0.  0.
        -24    2    5    5    0    0 -0.13979987833E+02 -0.16039787313E+02 -0.26526460114E+02  0.92588255266E+02  0.86117461006E+02 0.  0.
          5    1    3    3  501    0 -0.25725028014E+02  0.17236773224E+02 -0.18275867757E+02  0.36262663440E+02  0.47000000000E+01 0. -1.
        -13    1    4    4    0    0 -0.11703327279E+01  0.20135815322E+02 -0.44079037176E+02  0.48474552661E+02  0.00000000000E+00 0.  1.
         14    1    4    4    0    0  0.12821329409E+03  0.33842314093E+01 -0.41389429302E+03  0.43331119026E+03  0.00000000000E+00 0. -1.
         -5    1    5    5    0  502 -0.87337945517E+02 -0.24717032642E+02 -0.16411129643E+03  0.18759918988E+03  0.47000000000E+01 0.  1.
         13    1    6    6    0    0 -0.50132965360E+02 -0.13235919485E+02 -0.20846641855E+02  0.55884579778E+02  0.00000000000E+00 0. -1.
        -14    1    6    6    0    0  0.36152977527E+02 -0.28038678287E+01 -0.56798182590E+01  0.36703675488E+02  0.00000000000E+00 0.  1.
</event>
<event>
12    1  0.8691829E-002  0.1966782E+03  0.7818608E-02  0.1154930E+00
         21   -1    0    0  501  502  0.00000000000E+00  0.00000000000E+00  0.43608151747E+03  0.43608151747E+03  0.00000000000E+00 0.  1.
         21   -1    0    0  502  503 -0.00000000000E+00 -0.00000000000E+00 -0.13307558832E+03  0.13307558832E+03  0.00000000000E+00 0.  1.
         -6    2    1    2    0  503  0.32703477801E+02 -0.62404816371E+02 -0.18654619865E+02  0.19756093632E+03  0.18362584281E+03 0.  0.
        -24    2    3    3    0    0 -0.21162836439E+02  0.20685509216E+02  0.26932849232E+02  0.88446824695E+02  0.78877794678E+02 0.  0.
          6    2    1    2  501    0 -0.32703477801E+02  0.62404816371E+02  0.32166054901E+03  0.37159616947E+03  0.17220431415E+03 0.  0.
         24    2    5    5    0    0 -0.31990234029E+02  0.64275469871E+02  0.90398296832E+02  0.14027749892E+03  0.79694501279E+02 0.  0.
          5    1    5    5  501    0 -0.71324377228E+00 -0.18706535006E+01  0.23126225218E+03  0.23131867055E+03  0.47000000000E+01 0. -1.
        -11    1    6    6    0    0 -0.28810549230E+02 -0.73991855685E+01  0.49345161786E+02  0.57617190887E+02  0.00000000000E+00 0.  1.
         12    1    6    6    0    0 -0.31796847996E+01  0.71674655440E+02  0.41053135045E+02  0.82660308038E+02  0.00000000000E+00 0. -1.
         -5    1    3    3    0  503  0.53866314240E+02 -0.83090325587E+02 -0.45587469097E+02  0.10911411162E+03  0.47000000000E+01 0.  1.
         13    1    4    4    0    0 -0.42774512502E+02  0.43360821583E+01 -0.85132740875E+01  0.43828488041E+02  0.00000000000E+00 0. -1.
        -14    1    4    4    0    0  0.21611676063E+02  0.16349427058E+02  0.35446123320E+02  0.44618336654E+02  0.00000000000E+00 0.  1.
</event>
<event>
12    1  0.8691829E-002  0.1863140E+03  0.7818608E-02  0.1162095E+00
         21   -1    0    0  503  502  0.00000000000E+00  0.00000000000E+00  0.31518083466E+03  0.31518083466E+03  0.00000000000E+00 0. -1.
         21   -1    0    0  501  503 -0.00000000000E+00 -0.00000000000E+00 -0.16006659792E+03  0.16006659792E+03  0.00000000000E+00 0. -1.
          6    2    1    2  501    0 -0.67359364814E+02  0.28650246364E+02 -0.56219181737E+02  0.19351222951E+03  0.17008311477E+03 0.  0.
         24    2    3    3    0    0 -0.42175311419E+02 -0.41605145375E+02  0.60709888018E+01  0.96186940097E+02  0.75533605271E+02 0.  0.
         -6    2    1    2    0  502  0.67359364814E+02 -0.28650246364E+02  0.21133341848E+03  0.28173520306E+03  0.17133239692E+03 0.  0.
        -24    2    5    5    0    0 -0.17278988924E+02  0.25234670983E+02  0.98542940187E+02  0.13070203706E+03  0.80230663416E+02 0.  0.
          5    1    3    3  501    0 -0.25184053395E+02  0.70255391739E+02 -0.62290170538E+02  0.97325289414E+02  0.47000000000E+01 0. -1.
        -11    1    4    4    0    0 -0.12726981047E+02 -0.14331827184E+02  0.39530384819E+02  0.43932091243E+02  0.00000000000E+00 0.  1.
         12    1    4    4    0    0 -0.29448330372E+02 -0.27273318191E+02 -0.33459396018E+02  0.52254848854E+02  0.00000000000E+00 0. -1.
         -5    1    5    5    0  502  0.84638353738E+02 -0.53884917347E+02  0.11279047829E+03  0.15103316601E+03  0.47000000000E+01 0.  1.
         11    1    6    6    0    0  0.30147099014E+02  0.23787935761E+02  0.42993837636E+02  0.57647060128E+02  0.00000000000E+00 0. -1.
        -12    1    6    6    0    0 -0.47426087938E+02  0.14467352229E+01  0.55549102551E+02  0.73054976929E+02  0.00000000000E+00 0.  1.
</event>
<event>
12    1  0.8691829E-002  0.2328009E+03  0.7818608E-02  0.1126554E+00
         21   -1    0    0  503  502  0.00000000000E+00  0.00000000000E+00  0.16973337920E+03  0.16973337920E+03  0.00000000000E+00 0. -1.
         21   -1    0    0  501  503 -0.00000000000E+00 -0.00000000000E+00 -0.31066451915E+03  0.31066451915E+03  0.00000000000E+00 0. -1.
          6    2    1    2  501    0  0.13135186686E+03  0.86871325818E+02 -0.39691083883E+02  0.23616019448E+03  0.17145353639E+03 0.  0.
         24    2    3    3    0    0  0.12396193748E+03  0.15348563652E+02 -0.62006844161E+02  0.16072678199E+03  0.79913136440E+02 0.  0.
         -6    2    1    2    0  502 -0.13135186686E+03 -0.86871325818E+02 -0.10124005607E+03  0.24423770387E+03  0.15685205406E+03 0.  0.
        -24    2    5    5    0    0 -0.39888012987E+02 -0.22673770298E+02  0.15664411542E+01  0.92322501962E+02  0.80098921286E+02 0.  0.
          5    1    3    3  501    0  0.73899293846E+01  0.71522762166E+02  0.22315760278E+02  0.75433412497E+02  0.47000000000E+01 0. -1.
        -13    1    4    4    0    0  0.46817210891E+02 -0.70503321152E+01 -0.64911738586E+02  0.80343588573E+02  0.00000000000E+00 0.  1.
         14    1    4    4    0    0  0.77144726586E+02  0.22398895767E+02  0.29048944254E+01  0.80383193413E+02  0.00000000000E+00 0. -1.
         -5    1    5    5    0  502 -0.91463853875E+02 -0.64197555520E+02 -0.10280649722E+03  0.15191520191E+03  0.47000000000E+01 0.  1.
         11    1    6    6    0    0 -0.38488560088E+02  0.13128553099E+02  0.26618555034E+02  0.48603247178E+02  0.00000000000E+00 0. -1.
        -12    1    6    6    0    0 -0.13994528983E+01 -0.35802323397E+02 -0.25052113880E+02  0.43719254784E+02  0.00000000000E+00 0.  1.
</event>
<event>
12    1  0.8691829E-002  0.1767208E+03  0.7818608E-02  0.1171501E+00
         21   -1    0    0  503  502  0.00000000000E+00  0.00000000000E+00  0.17139596136E+03  0.17139596136E+03  0.00000000000E+00 0.  1.
         21   -1    0    0  501  503 -0.00000000000E+00 -0.00000000000E+00 -0.18151887829E+03  0.18151887829E+03  0.00000000000E+00 0.  1.
          6    2    1    2  501    0 -0.16668908710E+02  0.28475299284E+02 -0.20102613009E+02  0.17786046094E+03  0.17361317154E+03 0.  0.
         24    2    3    3    0    0  0.48604639476E+02  0.10467263744E+02  0.26229276668E+02  0.95679809707E+02  0.77425295880E+02 0.  0.
         -6    2    1    2    0  502  0.16668908710E+02 -0.28475299284E+02  0.99796960760E+01  0.17505437870E+03  0.17162676359E+03 0.  0.
        -24    2    5    5    0    0 -0.12391893946E+02  0.43496047611E+02 -0.15874026869E+02  0.93109824185E+02  0.79824742012E+02 0.  0.
          5    1    3    3  501    0 -0.65273548186E+02  0.18008035540E+02 -0.46331889678E+02  0.82180651238E+02  0.47000000000E+01 0. -1.
        -11    1    4    4    0    0  0.15937029272E+02  0.43029890048E+02  0.13480830785E+02  0.47825653558E+02  0.00000000000E+00 0.  1.
         12    1    4    4    0    0  0.32667610204E+02 -0.32562626305E+02  0.12748445883E+02  0.47854156149E+02  0.00000000000E+00 0. -1.
         -5    1    5    5    0  502  0.29060802656E+02 -0.71971346894E+02  0.25853722945E+02  0.81944554516E+02  0.47000000000E+01 0.  1.
         11    1    6    6    0    0  0.34020113890E+02  0.21700660661E+02 -0.93544358437E+01  0.41422123222E+02  0.00000000000E+00 0. -1.
        -12    1    6    6    0    0 -0.46412007836E+02  0.21795386950E+02 -0.65195910253E+01  0.51687700963E+02  0.00000000000E+00 0.  1.
</event>
<event>
12    1  0.8691829E-002  0.2093244E+03  0.7818608E-02  0.1142148E+00
         21   -1    0    0  503  502  0.00000000000E+00  0.00000000000E+00  0.10598246274E+04  0.10598246274E+04  0.00000000000E+00 0. -1.
         21   -1    0    0  501  503 -0.00000000000E+00 -0.00000000000E+00 -0.41318245906E+02  0.41318245906E+02  0.00000000000E+00 0. -1.
          6    2    1    2  501    0 -0.70411507017E+02  0.99758261349E+02  0.52185103229E+03  0.56226789919E+03  0.17002117379E+03 0.  0.
         24    2    3    3    0    0  0.18437527621E+02  0.13351033938E+02  0.24239712773E+03  0.25652792033E+03  0.80820875048E+02 0.  0.
         -6    2    1    2    0  502  0.70411507017E+02 -0.99758261349E+02  0.49665534925E+03  0.53887497416E+03  0.16973570869E+03 0.  0.
        -24    2    5    5    0    0  0.10707017242E+03 -0.10640837699E+03  0.42176064502E+03  0.45509318312E+03  0.80255835442E+02 0.  0.
          5    1    3    3  501    0 -0.88849034638E+02  0.86407227410E+02  0.27945390456E+03  0.30573997887E+03  0.47000000000E+01 0. -1.
        -11    1    4    4    0    0  0.46652267151E+02 -0.84469730244E+01  0.11943686242E+03  0.12850272171E+03  0.00000000000E+00 0.  1.
         12    1    4    4    0    0 -0.28214739530E+02  0.21798006963E+02  0.12296026531E+03  0.12802519862E+03  0.00000000000E+00 0. -1.
         -5    1    5    5    0  502 -0.36658665399E+02  0.66501156456E+01  0.74894704234E+02  0.83781791036E+02  0.47000000000E+01 0.  1.
         13    1    6    6    0    0 -0.42035857511E+01 -0.39026066715E+02  0.12640944921E+03  0.13236333656E+03  0.00000000000E+00 0. -1.
        -14    1    6    6    0    0  0.11127375817E+03 -0.67382310279E+02  0.29535119581E+03  0.32272984656E+03  0.00000000000E+00 0.  1.
</event>
<event>
12    1  0.8691829E-002  0.1823069E+03  0.7818608E-02  0.1165848E+00
         21   -1    0    0  501  502  0.00000000000E+00  0.00000000000E+00  0.16997737508E+04  0.16997737508E+04  0.00000000000E+00 0. -1.
         21   -1    0    0  502  503 -0.00000000000E+00 -0.00000000000E+00 -0.20996093662E+02  0.20996093662E+02  0.00000000000E+00 0. -1.
         -6    2    1    2    0  503  0.10214591096E+02  0.57279846088E+02  0.60723689674E+03  0.63401298670E+03  0.17277297215E+03 0.  0.
        -24    2    3    3    0    0 -0.16947771648E+02  0.52907474423E+02  0.59588635026E+03  0.60388266162E+03  0.80667829853E+02 0.  0.
          6    2    1    2  501    0 -0.10214591096E+02 -0.57279846088E+02  0.10715407604E+04  0.10867568578E+04  0.17162618698E+03 0.  0.
         24    2    5    5    0    0  0.12582641015E+01 -0.30277201865E+02  0.23594385210E+03  0.25063183580E+03  0.78920995868E+02 0.  0.
          5    1    5    5  501    0 -0.11472855197E+02 -0.27002644223E+02  0.83559690833E+03  0.83612502200E+03  0.47000000000E+01 0. -1.
        -11    1    6    6    0    0  0.26436132755E+02 -0.45685335309E+02  0.17711338293E+03  0.18481117226E+03  0.00000000000E+00 0.  1.
         12    1    6    6    0    0 -0.25177868653E+02  0.15408133443E+02  0.58830469172E+02  0.65820663542E+02  0.00000000000E+00 0. -1.
         -5    1    3    3    0  503  0.27162362744E+02  0.43723716656E+01  0.11350546482E+02  0.30130325077E+02  0.47000000000E+01 0.  1.
         13    1    4    4    0    0  0.31222731782E+02  0.23165590121E+02  0.17925630034E+03  0.18342389364E+03  0.00000000000E+00 0. -1.
        -14    1    4    4    0    0 -0.48170503429E+02  0.29741884302E+02  0.41663004991E+03  0.42045876798E+03  0.00000000000E+00 0.  1.
</event>
<event>
12    1  0.8691829E-002  0.1771146E+03  0.7818608E-02  0.1172157E+00
         21   -1    0    0  501  502  0.00000000000E+00  0.00000000000E+00  0.53386748455E+02  0.53386748455E+02  0.00000000000E+00 0. -1.
         21   -1    0    0  502  503 -0.00000000000E+00 -0.00000000000E+00 -0.67690390328E+03  0.67690390328E+03  0.00000000000E+00 0. -1.
         -6    2    1    2    0  503 -0.39351030575E+02 -0.23188088337E+01 -0.45391366886E+03  0.48506638564E+03  0.16642685847E+03 0.  0.
        -24    2    3    3    0    0 -0.72352585838E+02 -0.31808835431E+02 -0.39925128120E+03  0.41457645059E+03  0.78900881863E+02 0.  0.
          6    2    1    2  501    0  0.39351030575E+02  0.23188088337E+01 -0.16960348596E+03  0.24522426609E+03  0.17267228425E+03 0.  0.
         24    2    5    5    0    0  0.19469341196E+01 -0.32780986690E+02 -0.37670908476E+02  0.10359320636E+03  0.90741784301E+02 0.  0.
          5    1    5    5  501    0  0.37404096455E+02  0.35099795524E+02 -0.13193257749E+03  0.14163105973E+03  0.47000000000E+01 0. -1.
        -13    1    6    6    0    0 -0.21887020900E+02  0.24558782428E+02 -0.21920767396E+02  0.39530943847E+02  0.00000000000E+00 0.  1.
         14    1    6    6    0    0  0.23833955020E+02 -0.57339769118E+02 -0.15750141081E+02  0.64062262515E+02  0.00000000000E+00 0. -1.
         -5    1    3    3    0  503  0.33001555263E+02  0.29490026597E+02 -0.54662387666E+02  0.70489935053E+02  0.47000000000E+01 0.  1.
         11    1    4    4    0    0 -0.76853030794E+02  0.24977742234E+01 -0.26408664308E+03  0.27505341713E+03  0.00000000000E+00 0. -1.
        -12    1    4    4    0    0  0.45004449558E+01 -0.34306609654E+02 -0.13516463811E+03  0.13952303346E+03  0.00000000000E+00 0.  1.
</event>
<event>
12    1  0.8691829E-002  0.2060468E+03  0.7818608E-02  0.1145418E+00
         21   -1    0    0  503  502  0.00000000000E+00  0.00000000000E+00  0.12126966299E+03  0.12126966299E+03  0.00000000000E+00 0. -1.
         21   -1    0    0  501  503 -0.00000000000E+00 -0.00000000000E+00 -0.73882442068E+03  0.73882442068E+03  0.00000000000E+00 0. -1.
          6    2    1    2  501    0  0.47320184578E+02  0.93906162327E+02 -0.62414490029E+03  0.65727629114E+03  0.17719395911E+03 0.  0.
         24    2    3    3    0    0 -0.17319813911E+02  0.41776274373E+02 -0.15349083675E+03  0.17932944038E+03  0.80959114168E+02 0.  0.
         -6    2    1    2    0  502 -0.47320184578E+02 -0.93906162327E+02  0.65901426029E+01  0.20281779252E+03  0.17330337502E+03 0.  0.
        -24    2    5    5    0    0 -0.45992947697E+02 -0.11890427301E+03  0.45396485426E+02  0.15639916115E+03  0.78398210060E+02 0.  0.
          5    1    3    3  501    0  0.64639998488E+02  0.52129887954E+02 -0.47065406354E+03  0.47794685076E+03  0.47000000000E+01 0. -1.
        -11    1    4    4    0    0 -0.32927550573E+02  0.80564657387E+00 -0.11920667321E+03  0.12367337462E+03  0.00000000000E+00 0.  1.
         12    1    4    4    0    0  0.15607736663E+02  0.40970627799E+02 -0.34284163542E+02  0.55656065759E+02  0.00000000000E+00 0. -1.
         -5    1    5    5    0  502 -0.13272368811E+01  0.24998110683E+02 -0.38806342823E+02  0.46418631375E+02  0.47000000000E+01 0.  1.
         13    1    6    6    0    0 -0.13550584903E+02 -0.29642092076E+02 -0.22540207228E+02  0.39627426307E+02  0.00000000000E+00 0. -1.
        -14    1    6    6    0    0 -0.32442362794E+02 -0.89262180933E+02  0.67936692654E+02  0.11677173484E+03  0.00000000000E+00 0.  1.
</event>
<event>
12    1  0.8691829E-002  0.2854704E+03  0.7818608E-02  0.1092819E+00
         21   -1    0    0  501  502  0.00000000000E+00  0.00000000000E+00  0.29903938218E+03  0.29903938218E+03  0.00000000000E+00 0.  1.
         21   -1    0    0  502  503 -0.00000000000E+00 -0.00000000000E+00 -0.67038096765E+03  0.67038096765E+03  0.00000000000E+00 0.  1.
         -6    2    1    2    0  503  0.52564809556E+02  0.22097724252E+03 -0.55943284344E+03  0.62805928528E+03  0.17291430997E+03 0.  0.
        -24    2    3    3    0    0  0.34851984856E+02  0.12480664006E+03 -0.17975096339E+03  0.23595859799E+03  0.81084479860E+02 0.  0.
          6    2    1    2  501    0 -0.52564809556E+02 -0.22097724252E+03  0.18809125797E+03  0.34136106455E+03  0.17191583449E+03 0.  0.
         24    2    5    5    0    0 -0.50468093840E+02 -0.22896434690E+03  0.20533493063E+03  0.32167288789E+03  0.79619799153E+02 0.  0.
          5    1    5    5  501    0 -0.20967157161E+01  0.79871043780E+01 -0.17243672667E+02  0.19688176660E+02  0.47000000000E+01 0. -1.
        -11    1    6    6    0    0 -0.31879385939E+02 -0.13315160812E+03  0.16906669436E+03  0.21755273644E+03  0.00000000000E+00 0.  1.
         12    1    6    6    0    0 -0.18588707901E+02 -0.95812738784E+02  0.36268236272E+02  0.10412015145E+03  0.00000000000E+00 0. -1.
         -5    1    3    3    0  503  0.17712824700E+02  0.96170602465E+02 -0.37968188004E+03  0.39210068729E+03  0.47000000000E+01 0.  1.
         13    1    4    4    0    0 -0.21408637666E+02  0.19574287524E+02 -0.61326737915E+02  0.67841368515E+02  0.00000000000E+00 0. -1.
        -14    1    4    4    0    0  0.56260622522E+02  0.10523235254E+03 -0.11842422548E+03  0.16811722948E+03  0.00000000000E+00 0.  1.
</event>
<event>
12    1  0.8691829E-002  0.2592837E+03  0.7818608E-02  0.1107923E+00
         21   -1    0    0  501  502  0.00000000000E+00  0.00000000000E+00  0.13533826783E+03  0.13533826783E+03  0.00000000000E+00 0.  1.
         21   -1    0    0  502  503 -0.00000000000E+00 -0.00000000000E+00 -0.59394900829E+03  0.59394900829E+03  0.00000000000E+00 0. -1.
         -6    2    1    2    0  503  0.14892231775E+03 -0.12452102108E+03 -0.38097157785E+03  0.46083333233E+03  0.17188564698E+03 0.  0.
        -24    2    3    3    0    0  0.97341840969E+01 -0.32667548194E+02 -0.17486085901E+03  0.19566524327E+03  0.80911336456E+02 0.  0.
          6    2    1    2  501    0 -0.14892231775E+03  0.12452102108E+03 -0.77639162609E+02  0.26845394379E+03  0.16839340531E+03 0.  0.
         24    2    5    5    0    0 -0.45945114026E+02  0.44840811329E+02 -0.91867063942E+02  0.13738997663E+03  0.79465693084E+02 0.  0.
          5    1    5    5  501    0 -0.10297720372E+03  0.79680209751E+02  0.14227901333E+02  0.13106396716E+03  0.47000000000E+01 0. -1.
        -13    1    6    6    0    0 -0.47628352400E+02 -0.85434752398E+01 -0.49434949644E+02  0.69175611077E+02  0.00000000000E+00 0.  1.
         14    1    6    6    0    0  0.16832383745E+01  0.53384286569E+02 -0.42432114298E+02  0.68214365552E+02  0.00000000000E+00 0. -1.
         -5    1    3    3    0  503  0.13918813365E+03 -0.91853472886E+02 -0.20611071884E+03  0.26516808905E+03  0.47000000000E+01 0.  1.
         13    1    4    4    0    0  0.15537476473E+02 -0.88181306776E+01 -0.16963068367E+03  0.17056887596E+03  0.00000000000E+00 0. -1.
        -14    1    4    4    0    0 -0.58032923758E+01 -0.23849417517E+02 -0.52301753384E+01  0.25096367314E+02  0.00000000000E+00 0.  1.
</event>
<event>
12    1  0.8691829E-002  0.1741693E+03  0.7818608E-02  0.1173865E+00
         21   -1    0    0  501  502  0.00000000000E+00  0.00000000000E+00  0.43560686338E+03  0.43560686338E+03  0.00000000000E+00 0.  1.
         21   -1    0    0  502  503 -0.00000000000E+00 -0.00000000000E+00 -0.87403174344E+02  0.87403174344E+02  0.00000000000E+00 0.  1.
         -6    2    1    2    0  503  0.25887104933E+02 -0.10889504676E+02  0.55130010661E+02  0.18268623342E+03  0.17189013436E+03 0.  0.
        -24    2    3    3    0    0  0.66983417851E+02 -0.23453726078E+02  0.79719424588E+02  0.13295198091E+03  0.79272864452E+02 0.  0.
          6    2    1    2  501    0 -0.25887104933E+02  0.10889504676E+02  0.29307367838E+03  0.34032380431E+03  0.17070262829E+03 0.  0.
         24    2    5    5    0    0  0.27776457561E+02 -0.44488093264E+02  0.16825902961E+03  0.19353401297E+03  0.79959934311E+02 0.  0.
          5    1    5    5  501    0 -0.53663562494E+02  0.55377597940E+02  0.12481464877E+03  0.14678979134E+03  0.47000000000E+01 0. -1.
        -13    1    6    6    0    0  0.47296962129E+02 -0.43935213698E+00  0.88711218927E+02  0.10053295987E+03  0.00000000000E+00 0.  1.
         14    1    6    6    0    0 -0.19520504568E+02 -0.44048741127E+02  0.79547810679E+02  0.93001053097E+02  0.00000000000E+00 0. -1.
         -5    1    3    3    0  503 -0.41096312919E+02  0.12564221402E+02 -0.24589413927E+02  0.49734252505E+02  0.47000000000E+01 0.  1.
         13    1    4    4    0    0 -0.16611364427E+02  0.23113188011E+01  0.23853131260E+02  0.29159072236E+02  0.00000000000E+00 0. -1.
        -14    1    4    4    0    0  0.83594782278E+02 -0.25765044879E+02  0.55866293328E+02  0.10379290868E+03  0.00000000000E+00 0.  1.
</event>
<event>
12    1  0.8691829E-002  0.2128414E+03  0.7818608E-02  0.1139510E+00
         21   -1    0    0  503  502  0.00000000000E+00  0.00000000000E+00  0.84103635689E+02  0.84103635689E+02  0.00000000000E+00 0. -1.
         21   -1    0    0  501  503 -0.00000000000E+00 -0.00000000000E+00 -0.77438745065E+03  0.77438745065E+03  0.00000000000E+00 0. -1.
          6    2    1    2  501    0  0.12426475128E+03 -0.21450347529E+02 -0.58361614965E+03  0.62121594997E+03  0.17146311714E+03 0.  0.
         24    2    3    3    0    0  0.97123777907E+02 -0.13124935819E+02 -0.57879087561E+03  0.59203859256E+03  0.76847415139E+02 0.  0.
         -6    2    1    2    0  502 -0.12426475128E+03  0.21450347529E+02 -0.10666766531E+03  0.23727513638E+03  0.17035155914E+03 0.  0.
        -24    2    5    5    0    0 -0.49005128851E+02  0.73634720744E+02 -0.57836744873E+02  0.13338207421E+03  0.81376371938E+02 0.  0.
          5    1    3    3  501    0  0.27140973369E+02 -0.83254117098E+01 -0.48252740369E+01  0.29177357405E+02  0.47000000000E+01 0. -1.
        -11    1    4    4    0    0  0.17586672991E+02  0.29468175567E+02 -0.15815990943E+03  0.16184011057E+03  0.00000000000E+00 0.  1.
         12    1    4    4    0    0  0.79537104916E+02 -0.42593111386E+02 -0.42063096619E+03  0.43019848200E+03  0.00000000000E+00 0. -1.
         -5    1    5    5    0  502 -0.75259622426E+02 -0.52184373215E+02 -0.48830920440E+02  0.10389306217E+03  0.47000000000E+01 0.  1.
         13    1    6    6    0    0 -0.64943205017E+02  0.27713713194E+02 -0.42493554997E+02  0.82409780932E+02  0.00000000000E+00 0. -1.
        -14    1    6    6    0    0  0.15938076167E+02  0.45921007550E+02 -0.15343189876E+02  0.50972293276E+02  0.00000000000E+00 0.  1.
</event>
<event>
12    1  0.8691829E-002  0.2759047E+03  0.7818608E-02  0.1098000E+00
         21   -1    0    0  501  502  0.00000000000E+00  0.00000000000E+00  0.42538479713E+04  0.42538479713E+04  0.00000000000E+00 0.  1.
         21   -1    0    0  502  503 -0.00000000000E+00 -0.00000000000E+00 -0.41263835125E+02  0.41263835125E+02  0.00000000000E+00 0. -1.
         -6    2    1    2    0  503 -0.42658181641E+02  0.21077879649E+03  0.48867216267E+03  0.56099293229E+03  0.17223578606E+03 0.  0.
        -24    2    3    3    0    0  0.15741808696E+02  0.14975284399E+03  0.41591009370E+03  0.44940828088E+03  0.79453622041E+02 0.  0.
          6    2    1    2  501    0  0.42658181641E+02 -0.21077879649E+03  0.37239119735E+04  0.37341188741E+04  0.17284663215E+03 0.  0.
         24    2    5    5    0    0  0.74817983040E+02 -0.17698852883E+03  0.22876908883E+04  0.22971327466E+04  0.79790885241E+02 0.  0.
          5    1    5    5  501    0 -0.32159801399E+02 -0.33790267658E+02  0.14362210852E+04  0.14369861275E+04  0.47000000000E+01 0. -1.
        -11    1    6    6    0    0  0.24237560398E+00 -0.10279285015E+03  0.11008343059E+04  0.11056231718E+04  0.00000000000E+00 0.  1.
         12    1    6    6    0    0  0.74575607436E+02 -0.74195678684E+02  0.11868565823E+04  0.11915095749E+04  0.00000000000E+00 0. -1.
         -5    1    3    3    0  503 -0.58399990337E+02  0.61025952498E+02  0.72762068963E+02  0.11158465141E+03  0.47000000000E+01 0.  1.
         11    1    4    4    0    0  0.19446740419E+02  0.14031540751E+03  0.41580130850E+03  0.43926907181E+03  0.00000000000E+00 0. -1.
        -12    1    4    4    0    0 -0.37049317235E+01  0.94374364803E+01  0.10878520450E+00  0.10139209073E+02  0.00000000000E+00 0.  1.
</event>
<event>
12    1  0.8691829E-002  0.2105077E+03  0.7818608E-02  0.1141463E+00
         21   -1    0    0  503  502  0.00000000000E+00  0.00000000000E+00  0.87270035174E+02  0.87270035174E+02  0.00000000000E+00 0. -1.
         21   -1    0    0  501  503 -0.00000000000E+00 -0.00000000000E+00 -0.53897432972E+03  0.53897432972E+03  0.00000000000E+00 0. -1.
          6    2    1    2  501    0 -0.90729760364E+02  0.81334538841E+02 -0.14549340434E+03  0.25465504697E+03  0.16980478679E+03 0.  0.
         24    2    3    3    0    0 -0.42437272437E+02  0.11072871866E+03 -0.13589784172E+03  0.19711943175E+03  0.79536631568E+02 0.  0.
         -6    2    1    2    0  502  0.90729760364E+02 -0.81334538841E+02 -0.30621089020E+03  0.37158931792E+03  0.17165755239E+03 0.  0.
        -24    2    5    5    0    0  0.35904025558E+02 -0.77475498948E+01 -0.52349826519E+02  0.10161073397E+03  0.78962733872E+02 0.  0.
          5    1    3    3  501    0 -0.48292487927E+02 -0.29394179815E+02 -0.95955626248E+01  0.57535615224E+02  0.47000000000E+01 0. -1.
        -13    1    4    4    0    0  0.17011872753E+02  0.64726233948E+02 -0.54367684619E+02  0.86224905372E+02  0.00000000000E+00 0.  1.
         14    1    4    4    0    0 -0.59449145190E+02  0.46002484708E+02 -0.81530157099E+02  0.11089452637E+03  0.00000000000E+00 0. -1.
         -5    1    5    5    0  502  0.54825734805E+02 -0.73586988946E+02 -0.25386106368E+03  0.26997858395E+03  0.47000000000E+01 0.  1.
         11    1    6    6    0    0  0.12206185284E+01  0.26310896124E+02 -0.45426703743E+02  0.52510366380E+02  0.00000000000E+00 0. -1.
        -12    1    6    6    0    0  0.34683407030E+02 -0.34058446019E+02 -0.69231227761E+01  0.49100367589E+02  0.00000000000E+00 0.  1.
</event>
<event>
12    1  0.8691829E-002  0.1814036E+03  0.7818608E-02  0.1166790E+00
         21   -1    0    0  503  502  0.00000000000E+00  0.00000000000E+00  0.26663312507E+02  0.26663312507E+02  0.00000000000E+00 0. -1.
         21   -1    0    0  501  503 -0.00000000000E+00 -0.00000000000E+00 -0.14606023875E+04  0.14606023875E+04  0.00000000000E+00 0. -1.
          6    2    1    2  501    0  0.43186988307E+02  0.30478472518E+02 -0.10135342009E+04  0.10293928906E+04  0.17205840143E+03 0.  0.
         24    2    3    3    0    0 -0.60931980224E+01 -0.24953777665E+02 -0.77267484211E+03  0.77732823250E+03  0.80950301657E+02 0.  0.
         -6    2    1    2    0  502 -0.43186988307E+02 -0.30478472518E+02 -0.42040487408E+03  0.45787280943E+03  0.17353154819E+03 0.  0.
        -24    2    5    5    0    0 -0.54852224235E+02 -0.73777701298E+02 -0.37416664069E+03  0.39328979952E+03  0.78894078907E+02 0.  0.
          5    1    3    3  501    0  0.49280186330E+02  0.55432250184E+02 -0.24085935879E+03  0.25206465806E+03  0.47000000000E+01 0. -1.
        -11    1    4    4    0    0 -0.35035089398E+02  0.13576700193E+01 -0.55930424625E+03  0.56040212404E+03  0.00000000000E+00 0.  1.
         12    1    4    4    0    0  0.28941891375E+02 -0.26311447685E+02 -0.21337059586E+03  0.21692610846E+03  0.00000000000E+00 0. -1.
         -5    1    5    5    0  502  0.11665235928E+02  0.43299228779E+02 -0.46238233384E+02  0.64583009907E+02  0.47000000000E+01 0.  1.
         13    1    6    6    0    0 -0.15359608543E+02 -0.78979365752E+02 -0.22743874443E+03  0.24125099016E+03  0.00000000000E+00 0. -1.
        -14    1    6    6    0    0 -0.39492615692E+02  0.52016644542E+01 -0.14672789627E+03  0.15203880936E+03  0.00000000000E+00 0.  1.
</event>
<event>
12    1  0.8691829E-002  0.1919222E+03  0.7818608E-02  0.1156870E+00
         21   -1    0    0  501  502  0.00000000000E+00  0.00000000000E+00  0.51039378508E+03  0.51039378508E+03  0.00000000000E+00 0. -1.
         21   -1    0    0  502  503 -0.00000000000E+00 -0.00000000000E+00 -0.15383772802E+03  0.15383772802E+03  0.00000000000E+00 0.  1.
         -6    2    1    2    0  503 -0.71675782647E+02 -0.45181340403E+02 -0.63905480855E+02  0.20228212354E+03  0.17220736245E+03 0.  0.
        -24    2    3    3    0    0 -0.17542183759E+02  0.28742427362E+02  0.54274059362E+01  0.87285127232E+02  0.80345387914E+02 0.  0.
          6    2    1    2  501    0  0.71675782647E+02  0.45181340403E+02  0.42046153792E+03  0.46194938956E+03  0.17155338034E+03 0.  0.
         24    2    5    5    0    0  0.11254374389E+02  0.49177920024E+01  0.78651773145E+02  0.11248135783E+03  0.79467658954E+02 0.  0.
          5    1    5    5  501    0  0.60421408258E+02  0.40263548400E+02  0.34180976477E+03  0.34946803173E+03  0.47000000000E+01 0. -1.
        -13    1    6    6    0    0  0.61970363042E+01 -0.32141648604E+02  0.64795384661E+02  0.72594288393E+02  0.00000000000E+00 0.  1.
         14    1    6    6    0    0  0.50573380848E+01  0.37059440606E+02  0.13856388484E+02  0.39887069438E+02  0.00000000000E+00 0. -1.
         -5    1    3    3    0  503 -0.54133598887E+02 -0.73923767764E+02 -0.69332886791E+02  0.11499699631E+03  0.47000000000E+01 0.  1.
         11    1    4    4    0    0 -0.27596877354E+02  0.28318906707E+02 -0.30523467649E+02  0.49952279168E+02  0.00000000000E+00 0. -1.
        -12    1    4    4    0    0  0.10054693595E+02  0.42352065456E+00  0.35950873585E+02  0.37332848064E+02  0.00000000000E+00 0.  1.
</event>
<event>
12    1  0.8691829E-002  0.2139304E+03  0.7818608E-02  0.1138639E+00
         21   -1    0    0  501  502  0.00000000000E+00  0.00000000000E+00  0.15101490976E+03  0.15101490976E+03  0.00000000000E+00 0. -1.
         21   -1    0    0  502  503 -0.00000000000E+00 -0.00000000000E+00 -0.32584401044E+03  0.32584401044E+03  0.00000000000E+00 0.  1.
         -6    2    1    2    0  503  0.10350643808E+03 -0.73508043402E+02 -0.23023075111E+02  0.21516569853E+03  0.17218943251E+03 0.  0.
        -24    2    3    3    0    0  0.62041276681E+02 -0.11052409260E+03  0.10842384301E+02  0.14990846254E+03  0.79311378662E+02 0.  0.
          6    2    1    2  501    0 -0.10350643808E+03  0.73508043402E+02 -0.15180602557E+03  0.26169322168E+03  0.17123451084E+03 0.  0.
         24    2    5    5    0    0 -0.12725648168E+03  0.66347200298E+02 -0.73968606584E+02  0.17986354467E+03  0.79267754012E+02 0.  0.
          5    1    5    5  501    0  0.23750043594E+02  0.71608431044E+01 -0.77837418982E+02  0.81829677003E+02  0.47000000000E+01 0. -1.
        -11    1    6    6    0    0  0.28925903427E+01 -0.11483733845E+02 -0.20130546617E+01  0.12012310809E+02  0.00000000000E+00 0.  1.
         12    1    6    6    0    0 -0.13014907202E+03  0.77830934142E+02 -0.71955551922E+02  0.16785123386E+03  0.00000000000E+00 0. -1.
         -5    1    3    3    0  503  0.41465161403E+02  0.37016049198E+02 -0.33865459412E+02  0.65257235994E+02  0.47000000000E+01 0.  1.
         11    1    4    4    0    0 -0.39284269955E+01 -0.13414708676E+01  0.21501770358E+02  0.21898817577E+02  0.00000000000E+00 0. -1.
        -12    1    4    4    0    0  0.65969703676E+02 -0.10918262173E+03 -0.10659386057E+02  0.12800964496E+03  0.00000000000E+00 0.  1.
</event>
<event>
12    1  0.8691829E-002  0.3941174E+03  0.7818608E-02  0.1045884E+00
         21   -1    0    0  503  502  0.00000000000E+00  0.00000000000E+00  0.97960647333E+02  0.97960647333E+02  0.00000000000E+00 0.  1.
         21   -1    0    0  501  503 -0.00000000000E+00 -0.00000000000E+00 -0.33563171818E+04  0.33563171818E+04  0.00000000000E+00 0.  1.
          6    2    1    2  501    0  0.84476400796E+02 -0.34412068769E+03 -0.28849762727E+04  0.29117720772E+04  0.17254919789E+03 0.  0.
         24    2    3    3    0    0  0.34992723641E+02 -0.21881370531E+03 -0.22704631772E+04  0.22826465662E+04  0.79802121681E+02 0.  0.
         -6    2    1    2    0  502 -0.84476400796E+02  0.34412068769E+03 -0.37338026179E+03  0.54250575193E+03  0.17130195853E+03 0.  0.
        -24    2    5    5    0    0 -0.77885776984E+02  0.11386339644E+03 -0.11802416921E+03  0.19857162959E+03  0.80435814490E+02 0.  0.
          5    1    3    3  501    0  0.49483677154E+02 -0.12530698238E+03 -0.61451309544E+03  0.62912551101E+03  0.47000000000E+01 0. -1.
        -13    1    4    4    0    0  0.56896285207E+02 -0.19209857365E+03 -0.18729156132E+04  0.18836007920E+04  0.00000000000E+00 0.  1.
         14    1    4    4    0    0 -0.21903561566E+02 -0.26715131654E+02 -0.39754756404E+03  0.39904577425E+03  0.00000000000E+00 0. -1.
         -5    1    5    5    0  502 -0.65906238117E+01  0.23025729125E+03 -0.25535609258E+03  0.34393412235E+03  0.47000000000E+01 0.  1.
         11    1    6    6    0    0 -0.33810783899E+01 -0.35995016953E+00  0.10586189360E+02  0.11118842582E+02  0.00000000000E+00 0. -1.
        -12    1    6    6    0    0 -0.74504698594E+02  0.11422334661E+03 -0.12861035857E+03  0.18745278700E+03  0.00000000000E+00 0.  1.
</event>
<event>
12    1  0.8691829E-002  0.1952758E+03  0.7818608E-02  0.1153867E+00
         21   -1    0    0  503  502  0.00000000000E+00  0.00000000000E+00  0.54973420048E+03  0.54973420048E+03  0.00000000000E+00 0.  1.
         21   -1    0    0  501  503 -0.00000000000E+00 -0.00000000000E+00 -0.97522230750E+02  0.97522230750E+02  0.00000000000E+00 0.  1.
          6    2    1    2  501    0 -0.92256966358E+02  0.11273321366E+02  0.51960231625E+02  0.20207051887E+03  0.17173873561E+03 0.  0.
         24    2    3    3    0    0 -0.29894786671E+02  0.12472200364E+02 -0.36650286891E+02  0.93606733404E+02  0.79810544149E+02 0.  0.
         -6    2    1    2    0  502  0.92256966358E+02 -0.11273321366E+02  0.40025173811E+03  0.44518591236E+03  0.17132018880E+03 0.  0.
        -24    2    5    5    0    0 -0.95584505330E+01 -0.13941610370E+02  0.25238729897E+03  0.26557666638E+03  0.80906641038E+02 0.  0.
          5    1    3    3  501    0 -0.62362179687E+02 -0.11988789980E+01  0.88610518515E+02  0.10846378547E+03  0.47000000000E+01 0. -1.
        -11    1    4    4    0    0 -0.39787677724E+02 -0.25180188334E+02 -0.22486024080E+02  0.52179713128E+02  0.00000000000E+00 0.  1.
         12    1    4    4    0    0  0.98928910524E+01  0.37652388698E+02 -0.14164262811E+02  0.41427020277E+02  0.00000000000E+00 0. -1.
         -5    1    5    5    0  502  0.10181541689E+03  0.26682890042E+01  0.14786443913E+03  0.17960924599E+03  0.47000000000E+01 0.  1.
         11    1    6    6    0    0 -0.20817365612E+02 -0.38512701332E+02  0.81023341157E+02  0.92094368379E+02  0.00000000000E+00 0. -1.
        -12    1    6    6    0    0  0.11258915079E+02  0.24571090962E+02  0.17136395782E+03  0.17348229800E+03  0.00000000000E+00 0.  1.
</event>
<event>
12    1  0.8691829E-002  0.2131404E+03  0.7818608E-02  0.1139116E+00
         21   -1    0    0  501  502  0.00000000000E+00  0.00000000000E+00  0.40113421739E+02  0.40113421739E+02  0.00000000000E+00 0.  1.
         21   -1    0    0  502  503 -0.00000000000E+00 -0.00000000000E+00 -0.16669599611E+04  0.16669599611E+04  0.00000000000E+00 0. -1.
         -6    2    1    2    0  503 -0.74861611039E+02  0.10193833103E+03 -0.12967930866E+04  0.13141814155E+04  0.17147827578E+03 0.  0.
        -24    2    3    3    0    0 -0.11249677424E+03  0.10186930047E+03 -0.11427408550E+04  0.11555289955E+04  0.79735307505E+02 0.  0.
          6    2    1    2  501    0  0.74861611039E+02 -0.10193833103E+03 -0.33005345275E+03  0.39289196740E+03  0.17156087035E+03 0.  0.
         24    2    5    5    0    0  0.25954940208E+02 -0.13023414602E+03 -0.22738111319E+03  0.27560507593E+03  0.81371957923E+02 0.  0.
          5    1    5    5  501    0  0.48906670832E+02  0.28295814995E+02 -0.10267233956E+03  0.11728689146E+03  0.47000000000E+01 0. -1.
        -13    1    6    6    0    0 -0.10790750372E+02 -0.59726102638E+02 -0.41758666051E+02  0.73671119309E+02  0.00000000000E+00 0.  1.
         14    1    6    6    0    0  0.36745690580E+02 -0.70508043383E+02 -0.18562244714E+03  0.20193395663E+03  0.00000000000E+00 0. -1.
         -5    1    3    3    0  503  0.37635163203E+02  0.69030552754E-01 -0.15405223164E+03  0.15865241993E+03  0.47000000000E+01 0.  1.
         11    1    4    4    0    0 -0.91867173659E+02  0.46955770721E+02 -0.52727794572E+03  0.53727688768E+03  0.00000000000E+00 0. -1.
        -12    1    4    4    0    0 -0.20629600583E+02  0.54913529753E+02 -0.61546290927E+03  0.61825210785E+03  0.00000000000E+00 0.  1.
</event>
<event>
12    1  0.8691829E-002  0.2200450E+03  0.7818608E-02  0.1134055E+00
         21   -1    0    0  503  502  0.00000000000E+00  0.00000000000E+00  0.64147978956E+03  0.64147978956E+03  0.00000000000E+00 0. -1.
         21   -1    0    0  501  503 -0.00000000000E+00 -0.00000000000E+00 -0.16118526707E+03  0.16118526707E+03  0.00000000000E+00 0. -1.
          6    2    1    2  501    0  0.31340814177E+02  0.13320416929E+03 -0.53419454122E+02  0.22536930033E+03  0.17091543554E+03 0.  0.
         24    2    3    3    0    0 -0.18230139201E+02  0.42415812416E+02  0.22964261538E+02  0.96697752659E+02  0.81802560738E+02 0.  0.
         -6    2    1    2    0  502 -0.31340814177E+02 -0.13320416929E+03  0.53371397662E+03  0.57729575630E+03  0.17232000481E+03 0.  0.
        -24    2    5    5    0    0  0.48696210058E+02 -0.79221566360E+02  0.29845792575E+03  0.32295829124E+03  0.81102077556E+02 0.  0.
          5    1    3    3  501    0  0.49570953378E+02  0.90788356875E+02 -0.76383715660E+02  0.12867154767E+03  0.47000000000E+01 0. -1.
        -11    1    4    4    0    0 -0.46031146687E+02  0.38152565945E+01  0.14241465676E+02  0.48334687263E+02  0.00000000000E+00 0.  1.
         12    1    4    4    0    0  0.27801007486E+02  0.38600555821E+02  0.87227958610E+01  0.48363065397E+02  0.00000000000E+00 0. -1.
         -5    1    5    5    0  502 -0.80037024235E+02 -0.53982602931E+02  0.23525605086E+03  0.25433746506E+03  0.47000000000E+01 0.  1.
         13    1    6    6    0    0  0.23138510959E+02 -0.41547991045E+02  0.25707127038E+03  0.26143309718E+03  0.00000000000E+00 0. -1.
        -14    1    6    6    0    0  0.25557699099E+02 -0.37673575315E+02  0.41386655375E+02  0.61525194054E+02  0.00000000000E+00 0.  1.
</event>
<event>
12    1  0.8691829E-002  0.1931301E+03  0.7818608E-02  0.1156569E+00
         21   -1    0    0  503  502  0.00000000000E+00  0.00000000000E+00  0.15830046446E+03  0.15830046446E+03  0.00000000000E+00 0. -1.
         21   -1    0    0  501  503 -0.00000000000E+00 -0.00000000000E+00 -0.23133999191E+03  0.23133999191E+03  0.00000000000E+00 0. -1.
          6    2    1    2  501    0  0.55192910507E+02  0.66403340004E+02 -0.46931870053E+02  0.19875068085E+03  0.17275292118E+03 0.  0.
         24    2    3    3    0    0 -0.26970741688E+02  0.20829332967E+02 -0.64927400608E+02  0.10297080311E+03  0.72292025320E+02 0.  0.
         -6    2    1    2    0  502 -0.55192910507E+02 -0.66403340004E+02 -0.26107657399E+02  0.19088977553E+03  0.16823089993E+03 0.  0.
        -24    2    5    5    0    0 -0.82576495215E+02  0.16189401017E+01 -0.11920419144E+02  0.11605489708E+03  0.80654474245E+02 0.  0.
          5    1    3    3  501    0  0.82163652195E+02  0.45574007037E+02  0.17995530555E+02  0.95779877737E+02  0.47000000000E+01 0. -1.
        -13    1    4    4    0    0 -0.45445983226E+02 -0.10490633319E+01 -0.19931426157E+02  0.49635669371E+02  0.00000000000E+00 0.  1.
         14    1    4    4    0    0  0.18475241537E+02  0.21878396299E+02 -0.44995974451E+02  0.53335133742E+02  0.00000000000E+00 0. -1.
         -5    1    5    5    0  502  0.27383584708E+02 -0.68022280106E+02 -0.14187238254E+02  0.74834878442E+02  0.47000000000E+01 0.  1.
         13    1    6    6    0    0  0.17083788762E+01  0.27151858367E+02 -0.54825598630E+01  0.27752485182E+02  0.00000000000E+00 0. -1.
        -14    1    6    6    0    0 -0.84284874091E+02 -0.25532918265E+02 -0.64378592814E+01  0.88302411902E+02  0.00000000000E+00 0.  1.
</event>
<event>
12    1  0.8691829E-002  0.2656403E+03  0.7818608E-02  0.1103867E+00
         21   -1    0    0  501  502  0.00000000000E+00  0.00000000000E+00  0.12534450400E+03  0.12534450400E+03  0.00000000000E+00 0. -1.
         21   -1    0    0  502  503 -0.00000000000E+00 -0.00000000000E+00 -0.56210737702E+03  0.56210737702E+03  0.00000000000E+00 0. -1.
         -6    2    1    2    0  503 -0.20175643470E+03  0.12920044944E+02 -0.21379875684E+03  0.34064105995E+03  0.17162120147E+03 0.  0.
        -24    2    3    3    0    0 -0.96641969475E+02 -0.21358475164E+02 -0.36242487022E+02  0.13142254573E+03  0.78501674730E+02 0.  0.
          6    2    1    2  501    0  0.20175643470E+03 -0.12920044944E+02 -0.22296411618E+03  0.34681082107E+03  0.17231413755E+03 0.  0.
         24    2    5    5    0    0  0.21142978555E+02  0.11572124799E+01 -0.92673642707E+02  0.12361340353E+03  0.79015851554E+02 0.  0.
          5    1    5    5  501    0  0.18061345615E+03 -0.14077257424E+02 -0.13029047348E+03  0.22319741754E+03  0.47000000000E+01 0. -1.
        -13    1    6    6    0    0  0.22760140135E+02 -0.19329058672E+02 -0.12262445842E+01  0.29885450705E+02  0.00000000000E+00 0.  1.
         14    1    6    6    0    0 -0.16171615793E+01  0.20486271151E+02 -0.91447398123E+02  0.93727952825E+02  0.00000000000E+00 0. -1.
         -5    1    3    3    0  503 -0.10511446523E+03  0.34278520108E+02 -0.17755626982E+03  0.20921851422E+03  0.47000000000E+01 0.  1.
         11    1    4    4    0    0 -0.22332411828E+02 -0.37723661046E+02 -0.33691545908E+02  0.55289524201E+02  0.00000000000E+00 0. -1.
        -12    1    4    4    0    0 -0.74309557647E+02  0.16365185882E+02 -0.25509411138E+01  0.76133021529E+02  0.00000000000E+00 0.  1.
</event>
<event>
12    1  0.8691829E-002  0.1769625E+03  0.7818608E-02  0.1170963E+00
         21   -1    0    0  503  502  0.00000000000E+00  0.00000000000E+00  0.59284365433E+02  0.59284365433E+02  0.00000000000E+00 0. -1.
         21   -1    0    0  501  503 -0.00000000000E+00 -0.00000000000E+00 -0.57586714946E+03  0.57586714946E+03  0.00000000000E+00 0. -1.
          6    2    1    2  501    0  0.36487306379E+02 -0.10831071030E+02 -0.16430338758E+03  0.24092250241E+03  0.17204480047E+03 0.  0.
         24    2    3    3    0    0  0.64968650352E+02  0.37235627817E+02 -0.14734511332E+03  0.18234547996E+03  0.77018660964E+02 0.  0.
         -6    2    1    2    0  502 -0.36487306379E+02  0.10831071030E+02 -0.35227939645E+03  0.39422901249E+03  0.17282102157E+03 0.  0.
        -24    2    5    5    0    0 -0.83063230605E+02  0.12072768094E+02 -0.30951568765E+03  0.33081226928E+03  0.81188327945E+02 0.  0.
          5    1    3    3  501    0 -0.28481343973E+02 -0.48066698847E+02 -0.16958274263E+02  0.58577022445E+02  0.47000000000E+01 0. -1.
        -13    1    4    4    0    0 -0.13591829024E+02 -0.83407652270E+01 -0.29813462648E+02  0.33810482633E+02  0.00000000000E+00 0.  1.
         14    1    4    4    0    0  0.78560479376E+02  0.45576393044E+02 -0.11753165067E+03  0.14853499733E+03  0.00000000000E+00 0. -1.
         -5    1    5    5    0  502  0.46575924226E+02 -0.12416970639E+01 -0.42763708794E+02  0.63416743206E+02  0.47000000000E+01 0.  1.
         11    1    6    6    0    0 -0.89015302889E+02  0.30470376062E+02 -0.22073477738E+03  0.23995001545E+03  0.00000000000E+00 0. -1.
        -12    1    6    6    0    0  0.59520722847E+01 -0.18397607968E+02 -0.88780910271E+02  0.90862253835E+02  0.00000000000E+00 0.  1.
</event>
<event>
12    1  0.8691829E-002  0.1760626E+03  0.7818608E-02  0.1171735E+00
         21   -1    0    0  501  502  0.00000000000E+00  0.00000000000E+00  0.20275446607E+03  0.20275446607E+03  0.00000000000E+00 0. -1.
         21   -1    0    0  502  503 -0.00000000000E+00 -0.00000000000E+00 -0.15365195160E+03  0.15365195160E+03  0.00000000000E+00 0. -1.
         -6    2    1    2    0  503 -0.32612650045E+01  0.33336619400E+02  0.38890137835E+02  0.18004784426E+03  0.17257698966E+03 0.  0.
        -24    2    3    3    0    0 -0.25337355146E+02  0.35802913096E+02 -0.33779910048E+02  0.10391334341E+03  0.87937878439E+02 0.  0.
          6    2    1    2  501    0  0.32612650045E+01 -0.33336619400E+02  0.10212376638E+02  0.17635857341E+03  0.17284700673E+03 0.  0.
         24    2    5    5    0    0  0.54786405630E+02 -0.28982793103E+02 -0.36041680174E+02  0.10682208161E+03  0.79185869146E+02 0.  0.
          5    1    5    5  501    0 -0.51525140626E+02 -0.43538262966E+01  0.46254056812E+02  0.69536491798E+02  0.47000000000E+01 0. -1.
        -13    1    6    6    0    0 -0.10849996197E+02 -0.22309291090E+02 -0.32318904347E+02  0.40742342405E+02  0.00000000000E+00 0.  1.
         14    1    6    6    0    0  0.65636401828E+02 -0.66735020128E+01 -0.37227758273E+01  0.66079739208E+02  0.00000000000E+00 0. -1.
         -5    1    3    3    0  503  0.22076090142E+02 -0.24662936962E+01  0.72670047883E+02  0.76134500851E+02  0.47000000000E+01 0.  1.
         13    1    4    4    0    0  0.40406338801E+01 -0.27398826200E+02 -0.16002070477E+02  0.31985757125E+02  0.00000000000E+00 0. -1.
        -14    1    4    4    0    0 -0.29377989026E+02  0.63201739296E+02 -0.17777839571E+02  0.71927586287E+02  0.00000000000E+00 0.  1.
</event>
<event>
12    1  0.8691829E-002  0.1854493E+03  0.7818608E-02  0.1162771E+00
         21   -1    0    0  501  502  0.00000000000E+00  0.00000000000E+00  0.97086544941E+03  0.97086544941E+03  0.00000000000E+00 0.  1.
         21   -1    0    0  502  503 -0.00000000000E+00 -0.00000000000E+00 -0.39802147991E+02  0.39802147991E+02  0.00000000000E+00 0.  1.
         -6    2    1    2    0  503  0.74372164508E+01 -0.64584045809E+02  0.29641801375E+03  0.34964996169E+03  0.17368087308E+03 0.  0.
        -24    2    3    3    0    0 -0.31503449545E+02 -0.88319508575E+02  0.27120253875E+03  0.29732732949E+03  0.77845493828E+02 0.  0.
          6    2    1    2  501    0 -0.74372164508E+01  0.64584045809E+02  0.63464528767E+03  0.66101763571E+03  0.17304121590E+03 0.  0.
         24    2    5    5    0    0 -0.41788680756E+02  0.87241819419E+02  0.57546006418E+03  0.58877929074E+03  0.78417720220E+02 0.  0.
          5    1    5    5  501    0  0.34351464305E+02 -0.22657773610E+02  0.59185223494E+02  0.72238344976E+02  0.47000000000E+01 0. -1.
        -13    1    6    6    0    0 -0.29634557854E+02  0.10842685474E+02  0.62455924230E+02  0.69975090703E+02  0.00000000000E+00 0.  1.
         14    1    6    6    0    0 -0.12154122902E+02  0.76399133944E+02  0.51300413995E+03  0.51880420003E+03  0.00000000000E+00 0. -1.
         -5    1    3    3    0  503  0.38940665995E+02  0.23735462767E+02  0.25215475002E+02  0.52322632201E+02  0.47000000000E+01 0.  1.
         11    1    4    4    0    0 -0.48050374284E+02 -0.22246132652E+02  0.13579562227E+03  0.14575383328E+03  0.00000000000E+00 0. -1.
        -12    1    4    4    0    0  0.16546924739E+02 -0.66073375923E+02  0.13540691648E+03  0.15157349621E+03  0.00000000000E+00 0.  1.
</event>
<event>
12    1  0.8691829E-002  0.2099575E+03  0.7818608E-02  0.1142015E+00
         21   -1    0    0  503  502  0.00000000000E+00  0.00000000000E+00  0.84650060345E+02  0.84650060345E+02  0.00000000000E+00 0.  1.
         21   -1    0    0  501  503 -0.00000000000E+00 -0.00000000000E+00 -0.10517226248E+04  0.10517226248E+04  0.00000000000E+00 0. -1.
          6    2    1    2  501    0 -0.11583856641E+03 -0.34154337303E+02 -0.89038493238E+03  0.91480461332E+03  0.17174708300E+03 0.  0.
         24    2    3    3    0    0 -0.72227979988E+02  0.34881579239E+02 -0.67181993727E+03  0.68143668898E+03  0.81119216712E+02 0.  0.
         -6    2    1    2    0  502  0.11583856641E+03  0.34154337303E+02 -0.76687632098E+02  0.22156807185E+03  0.16919315980E+03 0.  0.
        -24    2    5    5    0    0  0.27663943205E+02 -0.19628833417E+02  0.11614826979E+02  0.85601870502E+02  0.77731532680E+02 0.  0.
          5    1    3    3  501    0 -0.43610586419E+02 -0.69035916542E+02 -0.21856499512E+03  0.23336792434E+03  0.47000000000E+01 0. -1.
        -11    1    4    4    0    0  0.15741266492E+02  0.56447667232E+01 -0.49455211986E+02  0.52206023165E+02  0.00000000000E+00 0.  1.
         12    1    4    4    0    0 -0.87969246479E+02  0.29236812516E+02 -0.62236472528E+03  0.62923066582E+03  0.00000000000E+00 0. -1.
         -5    1    5    5    0  502  0.88174623201E+02  0.53783170720E+02 -0.88302459077E+02  0.13596620135E+03  0.47000000000E+01 0.  1.
         13    1    6    6    0    0 -0.22694893853E+02  0.76925192106E+01  0.14895128184E+02  0.28215206936E+02  0.00000000000E+00 0. -1.
        -14    1    6    6    0    0  0.50358837058E+02 -0.27321352628E+02 -0.32803012048E+01  0.57386663566E+02  0.00000000000E+00 0.  1.
</event>
<event>
12    1  0.8691829E-002  0.2605103E+03  0.7818608E-02  0.1107471E+00
         21   -1    0    0  501  502  0.00000000000E+00  0.00000000000E+00  0.10650275531E+04  0.10650275531E+04  0.00000000000E+00 0. -1.
         21   -1    0    0  502  503 -0.00000000000E+00 -0.00000000000E+00 -0.63664322898E+02  0.63664322898E+02  0.00000000000E+00 0.  1.
         -6    2    1    2    0  503  0.27285211039E+02 -0.18841100846E+03  0.42721546226E+03  0.49820691497E+03  0.17162135089E+03 0.  0.
        -24    2    3    3    0    0  0.42501491467E+02 -0.87779713370E+02  0.11400198202E+03  0.16883938933E+03  0.77450840084E+02 0.  0.
          6    2    1    2  501    0 -0.27285211039E+02  0.18841100846E+03  0.57414776792E+03  0.63048496100E+03  0.17782698275E+03 0.  0.
         24    2    5    5    0    0  0.12269772702E+02  0.12314718936E+03  0.19674395395E+03  0.24541393947E+03  0.78765733050E+02 0.  0.
          5    1    5    5  501    0 -0.39554983741E+02  0.65263819095E+02  0.37740381397E+03  0.38507102153E+03  0.47000000000E+01 0. -1.
        -13    1    6    6    0    0 -0.28334646198E+02  0.23052160012E+02  0.69419699656E+02  0.78443284969E+02  0.00000000000E+00 0.  1.
         14    1    6    6    0    0  0.40604418900E+02  0.10009502935E+03  0.12732425429E+03  0.16697065451E+03  0.00000000000E+00 0. -1.
         -5    1    3    3    0  503 -0.15216280428E+02 -0.10063129509E+03  0.31321348024E+03  0.32936752564E+03  0.47000000000E+01 0.  1.
         11    1    4    4    0    0  0.16241938345E+02 -0.79393779181E+02  0.11565867136E+03  0.14122358512E+03  0.00000000000E+00 0. -1.
        -12    1    4    4    0    0  0.26259553121E+02 -0.83859341891E+01 -0.16566893473E+01  0.27615804206E+02  0.00000000000E+00 0.  1.
</event>
<event>
12    1  0.8691829E-002  0.1863877E+03  0.7818608E-02  0.1162500E+00
         21   -1    0    0  503  502  0.00000000000E+00  0.00000000000E+00  0.90897997985E+03  0.90897997985E+03  0.00000000000E+00 0. -1.
         21   -1    0    0  501  503 -0.00000000000E+00 -0.00000000000E+00 -0.14589477228E+03  0.14589477228E+03  0.00000000000E+00 0. -1.
          6    2    1    2  501    0  0.48364380125E+02 -0.40752927648E+02 -0.72086629330E+02  0.19984206384E+03  0.17532955819E+03 0.  0.
         24    2    3    3    0    0  0.39243179671E+02  0.36077778966E+02 -0.71636229948E+02  0.12232789329E+03  0.83610589944E+02 0.  0.
         -6    2    1    2    0  502 -0.48364380125E+02  0.40752927648E+02  0.83517183690E+03  0.85503268829E+03  0.17195635060E+03 0.  0.
        -24    2    5    5    0    0 -0.98355005527E+02  0.18089288522E+02  0.55842713199E+03  0.57285823008E+03  0.79528363244E+02 0.  0.
          5    1    3    3  501    0  0.91212004539E+01 -0.76830706614E+02 -0.45039938161E+00  0.77514170550E+02  0.47000000000E+01 0. -1.
        -11    1    4    4    0    0  0.45932796247E+02  0.17192679279E+02 -0.11594296570E+01  0.49058681892E+02  0.00000000000E+00 0.  1.
         12    1    4    4    0    0 -0.66896165762E+01  0.18885099687E+02 -0.70476800291E+02  0.73269211402E+02  0.00000000000E+00 0. -1.
         -5    1    5    5    0  502  0.49990625402E+02  0.22663639126E+02  0.27674470491E+03  0.28217445821E+03  0.47000000000E+01 0.  1.
         11    1    6    6    0    0 -0.20756933659E+02  0.18070812120E+02  0.33898218985E+03  0.34009752952E+03  0.00000000000E+00 0. -1.
        -12    1    6    6    0    0 -0.77598071867E+02  0.18476401786E-01  0.21944494214E+03  0.23276070057E+03  0.00000000000E+00 0.  1.
</event>
<event>
12    1  0.8691829E-002  0.1742142E+03  0.7818608E-02  0.1174013E+00
         21   -1    0    0  501  502  0.00000000000E+00  0.00000000000E+00  0.13844165592E+04  0.13844165592E+04  0.00000000000E+00 0. -1.
         21   -1    0    0  502  503 -0.00000000000E+00 -0.00000000000E+00 -0.48931047218E+02  0.48931047218E+02  0.00000000000E+00 0. -1.
         -6    2    1    2    0  503 -0.60415350530E+01  0.25412946076E+02  0.13456699499E+03  0.22013370627E+03  0.17224475180E+03 0.  0.
        -24    2    3    3    0    0  0.47146134736E+01 -0.16502345565E+01 -0.20843677563E+01  0.80334581034E+02  0.80152039691E+02 0.  0.
          6    2    1    2  501    0  0.60415350530E+01 -0.25412946076E+02  0.12009185170E+04  0.12132139001E+04  0.17029493556E+03 0.  0.
         24    2    5    5    0    0  0.28514689404E+02 -0.76830818612E+02  0.72795301766E+03  0.73690801751E+03  0.80011050093E+02 0.  0.
          5    1    5    5  501    0 -0.22473154351E+02  0.51417872536E+02  0.47296549932E+03  0.47630588263E+03  0.47000000000E+01 0. -1.
        -13    1    6    6    0    0  0.52690598459E+02 -0.63964004133E+02  0.62096318250E+03  0.62646864807E+03  0.00000000000E+00 0.  1.
         14    1    6    6    0    0 -0.24175909054E+02 -0.12866814479E+02  0.10698983517E+03  0.11043936944E+03  0.00000000000E+00 0. -1.
         -5    1    3    3    0  503 -0.10756148527E+02  0.27063180632E+02  0.13665136275E+03  0.13979912524E+03  0.47000000000E+01 0.  1.
         13    1    4    4    0    0  0.32810242402E+02  0.25244500020E+02 -0.18804822760E+01  0.41440716709E+02  0.00000000000E+00 0. -1.
        -14    1    4    4    0    0 -0.28095628929E+02 -0.26894734577E+02 -0.20388548027E+00  0.38893864325E+02  0.00000000000E+00 0.  1.
</event>
<event>
12    1  0.8691829E-002  0.1910120E+03  0.7818608E-02  0.1157694E+00
         21   -1    0    0  503  502  0.00000000000E+00  0.00000000000E+00  0.13400562082E+03  0.13400562082E+03  0.00000000000E+00 0.  1.
         21   -1    0    0  501  503 -0.00000000000E+00 -0.00000000000E+00 -0.31880048502E+03  0.31880048502E+03  0.00000000000E+00 0.  1.
          6    2    1    2  501    0  0.55052083156E+02 -0.59942207371E+02 -0.17960022958E+03  0.26172352164E+03  0.17210217671E+03 0.  0.
         24    2    3    3    0    0  0.58472022022E+02 -0.98158975591E+02 -0.17366654530E+03  0.22261449501E+03  0.79642843883E+02 0.  0.
         -6    2    1    2    0  502 -0.55052083156E+02  0.59942207371E+02 -0.51946346267E+01  0.19108258420E+03  0.17280558345E+03 0.  0.
        -24    2    5    5    0    0  0.18162085824E+02  0.20306563834E+02  0.44155500752E+02  0.94186636711E+02  0.78607864696E+02 0.  0.
          5    1    3    3  501    0 -0.34199388656E+01  0.38216768219E+02 -0.59336842790E+01  0.39109026632E+02  0.47000000000E+01 0. -1.
        -13    1    4    4    0    0  0.25842984299E+02 -0.30022360973E+02 -0.78278917922E+01  0.40379176388E+02  0.00000000000E+00 0.  1.
         14    1    4    4    0    0  0.32629037723E+02 -0.68136614618E+02 -0.16583865351E+03  0.18223531862E+03  0.00000000000E+00 0. -1.
         -5    1    5    5    0  502 -0.73214168980E+02  0.39635643537E+02 -0.49350135379E+02  0.96895947490E+02  0.47000000000E+01 0.  1.
         13    1    6    6    0    0 -0.26453246430E+02 -0.10135244446E+02  0.89259567178E+01  0.29701348960E+02  0.00000000000E+00 0. -1.
        -14    1    6    6    0    0  0.44615332254E+02  0.30441808280E+02  0.35229544034E+02  0.64485287751E+02  0.00000000000E+00 0.  1.
</event>
<event>
12    1  0.8691829E-002  0.1808926E+03  0.7818608E-02  0.1167022E+00
         21   -1    0    0  503  502  0.00000000000E+00  0.00000000000E+00  0.13875556140E+03  0.13875556140E+03  0.00000000000E+00 0. -1.
         21   -1    0    0  501  503 -0.00000000000E+00 -0.00000000000E+00 -0.23579521162E+03  0.23579521162E+03  0.00000000000E+00 0. -1.
          6    2    1    2  501    0  0.55623807717E+02 -0.17291366306E+01 -0.40838317692E+02  0.18544517834E+03  0.17211957495E+03 0.  0.
         24    2    3    3    0    0  0.28953091285E+02  0.48962143009E+02 -0.70020425469E+02  0.12098884924E+03  0.80621763287E+02 0.  0.
         -6    2    1    2    0  502 -0.55623807717E+02  0.17291366306E+01 -0.56201332534E+02  0.18910559468E+03  0.17177117995E+03 0.  0.
        -24    2    5    5    0    0 -0.76206246097E+02 -0.37709776713E+02 -0.73755551680E+02  0.14105036328E+03  0.85005319673E+02 0.  0.
          5    1    3    3  501    0  0.26670716432E+02 -0.50691279640E+02  0.29182107778E+02  0.64456329099E+02  0.47000000000E+01 0. -1.
        -13    1    4    4    0    0  0.67088732613E+01  0.48005380520E+01  0.18129009274E+02  0.19917708786E+02  0.00000000000E+00 0.  1.
         14    1    4    4    0    0  0.22244218024E+02  0.44161604957E+02 -0.88149434743E+02  0.10107114046E+03  0.00000000000E+00 0. -1.
         -5    1    5    5    0  502  0.20582438380E+02  0.39438913343E+02  0.17554219145E+02  0.48055231403E+02  0.47000000000E+01 0.  1.
         13    1    6    6    0    0 -0.91728890133E+02 -0.15390070796E+02 -0.55689894213E+02  0.10840852310E+03  0.00000000000E+00 0. -1.
        -14    1    6    6    0    0  0.15522644036E+02 -0.22319705917E+02 -0.18065657467E+02  0.32641840172E+02  0.00000000000E+00 0.  1.
</event>
<event>
12    1  0.8691829E-002  0.2015187E+03  0.7818608E-02  0.1148539E+00
         21   -1    0    0  503  502  0.00000000000E+00  0.00000000000E+00  0.34727727855E+02  0.34727727855E+02  0.00000000000E+00 0.  1.
         21   -1    0    0  501  503 -0.00000000000E+00 -0.00000000000E+00 -0.11673621069E+04  0.11673621069E+04  0.00000000000E+00 0.  1.
          6    2    1    2  501    0 -0.16006549590E+02  0.10580954295E+03 -0.57101851061E+03  0.60553442050E+03  0.17075692064E+03 0.  0.
         24    2    3    3    0    0  0.55726813652E+02  0.77139577379E+02 -0.37370992019E+03  0.39359005945E+03  0.78727620910E+02 0.  0.
         -6    2    1    2    0  502  0.16006549590E+02 -0.10580954295E+03 -0.56161586840E+03  0.59655541421E+03  0.17033528578E+03 0.  0.
        -24    2    5    5    0    0  0.39871670190E+01 -0.13720320444E+03 -0.38208672762E+03  0.41384572666E+03  0.80233417221E+02 0.  0.
          5    1    3    3  501    0 -0.71733363242E+02  0.28669965573E+02 -0.19730859042E+03  0.21194436105E+03  0.47000000000E+01 0. -1.
        -13    1    4    4    0    0  0.23451657175E+02  0.48264154279E+01 -0.20220237973E+02  0.31338993823E+02  0.00000000000E+00 0.  1.
         14    1    4    4    0    0  0.32275156477E+02  0.72313161951E+02 -0.35348968222E+03  0.36225106563E+03  0.00000000000E+00 0. -1.
         -5    1    5    5    0  502  0.12019382571E+02  0.31393661485E+02 -0.17952914077E+03  0.18270968755E+03  0.47000000000E+01 0.  1.
         11    1    6    6    0    0 -0.25422387792E+02 -0.96537577898E+02 -0.18221120510E+03  0.20776603431E+03  0.00000000000E+00 0. -1.
        -12    1    6    6    0    0  0.29409554811E+02 -0.40665626539E+02 -0.19987552252E+03  0.20607969235E+03  0.00000000000E+00 0.  1.
</event>
<event>
12    1  0.8691829E-002  0.2412884E+03  0.7818608E-02  0.1119071E+00
         21   -1    0    0  503  502  0.00000000000E+00  0.00000000000E+00  0.51680708707E+03  0.51680708707E+03  0.00000000000E+00 0. -1.
         21   -1    0    0  501  503 -0.00000000000E+00 -0.00000000000E+00 -0.13812942870E+03  0.13812942870E+03  0.00000000000E+00 0. -1.
          6    2    1    2  501    0 -0.10760118946E+03  0.12917235843E+03  0.47930526555E+02  0.24600291689E+03  0.17307970876E+03 0.  0.
         24    2    3    3    0    0 -0.78089344465E+01  0.11486941075E+03  0.30769736204E+02  0.14363274937E+03  0.80172495542E+02 0.  0.
         -6    2    1    2    0  502  0.10760118946E+03 -0.12917235843E+03  0.33074713181E+03  0.40893359889E+03  0.17195786967E+03 0.  0.
        -24    2    5    5    0    0  0.10981118693E+02  0.39829252004E+01  0.10534121252E+03  0.12983561236E+03  0.74993776542E+02 0.  0.
          5    1    3    3  501    0 -0.99792255012E+02  0.14302947681E+02  0.17160790351E+02  0.10237016752E+03  0.47000000000E+01 0. -1.
        -13    1    4    4    0    0 -0.19421269583E+02  0.19559280855E+02 -0.20905949900E+02  0.34594940685E+02  0.00000000000E+00 0.  1.
         14    1    4    4    0    0  0.11612335136E+02  0.95310129896E+02  0.51675686104E+02  0.10903780868E+03  0.00000000000E+00 0. -1.
         -5    1    5    5    0  502  0.96620070766E+02 -0.13315528363E+03  0.22540591929E+03  0.27909798653E+03  0.47000000000E+01 0.  1.
         11    1    6    6    0    0  0.22775145888E+01 -0.23242045700E+02  0.97414187978E+02  0.10017436688E+03  0.00000000000E+00 0. -1.
        -12    1    6    6    0    0  0.87036041037E+01  0.27224970900E+02  0.79270245408E+01  0.29661245473E+02  0.00000000000E+00 0.  1.
</event>
<event>
12    1  0.8691829E-002  0.2228327E+03  0.7818608E-02  0.1131954E+00
         21   -1    0    0  501  502  0.00000000000E+00  0.00000000000E+00  0.12571289622E+03  0.12571289622E+03  0.00000000000E+00 0.  1.
         21   -1    0    0  502  503 -0.00000000000E+00 -0.00000000000E+00 -0.54919368609E+03  0.54919368609E+03  0.00000000000E+00 0.  1.
         -6    2    1    2    0  503  0.10060029944E+03  0.10085565817E+03 -0.39178891087E+03  0.45072493967E+03  0.17135383429E+03 0.  0.
        -24    2    3    3    0    0 -0.21044575916E+01  0.47991743046E+02 -0.11192680596E+03  0.14792509092E+03  0.83943948491E+02 0.  0.
          6    2    1    2  501    0 -0.10060029944E+03 -0.10085565817E+03 -0.31691878997E+02  0.22418164264E+03  0.17017858171E+03 0.  0.
         24    2    5    5    0    0 -0.10801009313E+03 -0.79240635227E+02  0.28488948499E+02  0.15963757818E+03  0.82019983492E+02 0.  0.
          5    1    5    5  501    0  0.74097936857E+01 -0.21615022943E+02 -0.60180827496E+02  0.64544064463E+02  0.47000000000E+01 0. -1.
        -11    1    6    6    0    0 -0.83845251424E+02 -0.68782162632E+02 -0.14309253130E+02  0.10938814747E+03  0.00000000000E+00 0.  1.
         12    1    6    6    0    0 -0.24164841705E+02 -0.10458472595E+02  0.42798201629E+02  0.50249430707E+02  0.00000000000E+00 0. -1.
         -5    1    3    3    0  503  0.10270475704E+03  0.52863915124E+02 -0.27986210491E+03  0.30279984875E+03  0.47000000000E+01 0.  1.
         11    1    4    4    0    0  0.27154017689E+02 -0.87754690215E+01 -0.16094334134E+02  0.32762434653E+02  0.00000000000E+00 0. -1.
        -12    1    4    4    0    0 -0.29258475281E+02  0.56767212067E+02 -0.95832471824E+02  0.11516265626E+03  0.00000000000E+00 0.  1.
</event>
<event>
12    1  0.8691829E-002  0.2182419E+03  0.7818608E-02  0.1135304E+00
         21   -1    0    0  501  502  0.00000000000E+00  0.00000000000E+00  0.54173662438E+03  0.54173662438E+03  0.00000000000E+00 0.  1.
         21   -1    0    0  502  503 -0.00000000000E+00 -0.00000000000E+00 -0.15451272714E+03  0.15451272714E+03  0.00000000000E+00 0.  1.
         -6    2    1    2    0  503  0.10849693221E+03  0.78398307737E+02 -0.35448731475E+02  0.22055860586E+03  0.17167296554E+03 0.  0.
        -24    2    3    3    0    0  0.39737714909E+02 -0.19997465042E+02  0.11231073240E+02  0.91676286538E+02  0.79368885043E+02 0.  0.
          6    2    1    2  501    0 -0.10849693221E+03 -0.78398307737E+02  0.42267262872E+03  0.47569074566E+03  0.17237069207E+03 0.  0.
         24    2    5    5    0    0 -0.21454932492E+02 -0.41201077408E+01  0.27621944680E+03  0.28977628897E+03  0.84828211391E+02 0.  0.
          5    1    5    5  501    0 -0.87041999720E+02 -0.74278199996E+02  0.14645318192E+03  0.18591445669E+03  0.47000000000E+01 0. -1.
        -13    1    6    6    0    0 -0.44575009732E+02 -0.20755841000E+02  0.23217365908E+03  0.23732329089E+03  0.00000000000E+00 0.  1.
         14    1    6    6    0    0  0.23120077240E+02  0.16635733259E+02  0.44045787720E+02  0.52452998089E+02  0.00000000000E+00 0. -1.
         -5    1    3    3    0  503  0.68759217303E+02  0.98395772778E+02 -0.46679804716E+02  0.12888231932E+03  0.47000000000E+01 0.  1.
         13    1    4    4    0    0  0.59096403117E+02  0.49689043428E+01  0.53998289427E+01  0.59550256291E+02  0.00000000000E+00 0. -1.
        -14    1    4    4    0    0 -0.19358688208E+02 -0.24966369384E+02  0.58312442978E+01  0.32126030247E+02  0.00000000000E+00 0.  1.
</event>
<event>
12    1  0.8691829E-002  0.2230834E+03  0.7818608E-02  0.1132713E+00
         21   -1    0    0  503  502  0.00000000000E+00  0.00000000000E+00  0.18015685551E+04  0.18015685551E+04  0.00000000000E+00 0.  1.
         21   -1    0    0  501  503 -0.00000000000E+00 -0.00000000000E+00 -0.38657405664E+02  0.38657405664E+02  0.00000000000E+00 0.  1.
          6    2    1    2  501    0  0.57218597587E+02 -0.12135066207E+03  0.36552684599E+03  0.42514677968E+03  0.17070430001E+03 0.  0.
         24    2    3    3    0    0  0.22803958346E+02 -0.12411523537E+03  0.17124883846E+03  0.22776885673E+03  0.81411763625E+02 0.  0.
         -6    2    1    2    0  502 -0.57218597587E+02  0.12135066207E+03  0.13973843035E+04  0.14150791811E+04  0.17823087867E+03 0.  0.
        -24    2    5    5    0    0 -0.36451027951E+02  0.98658156480E+02  0.13602385799E+04  0.13666216065E+04  0.79646166158E+02 0.  0.
          5    1    3    3  501    0  0.34414639241E+02  0.27645732918E+01  0.19427800753E+03  0.19737792295E+03  0.47000000000E+01 0. -1.
        -11    1    4    4    0    0 -0.73573754095E+01 -0.56991169870E+02  0.22311837750E+02  0.61643673803E+02  0.00000000000E+00 0.  1.
         12    1    4    4    0    0  0.30161333755E+02 -0.67124065495E+02  0.14893700071E+03  0.16612518293E+03  0.00000000000E+00 0. -1.
         -5    1    5    5    0  502 -0.20767569636E+02  0.22692505594E+02  0.37145723583E+02  0.48457574632E+02  0.47000000000E+01 0.  1.
         13    1    6    6    0    0  0.15772840765E+01  0.23186576680E+02  0.72961656940E+02  0.76573549916E+02  0.00000000000E+00 0. -1.
        -14    1    6    6    0    0 -0.38028312028E+02  0.75471579799E+02  0.12872769229E+04  0.12900480565E+04  0.00000000000E+00 0.  1.
</event>
<event>
12    1  0.8691829E-002  0.1976593E+03  0.7818608E-02  0.1151734E+00
         21   -1    0    0  503  502  0.00000000000E+00  0.00000000000E+00  0.55723089069E+02  0.55723089069E+02  0.00000000000E+00 0. -1.
         21   -1    0    0  501  503 -0.00000000000E+00 -0.00000000000E+00 -0.70966669880E+03  0.70966669880E+03  0.00000000000E+00 0. -1.
          6    2    1    2  501    0  0.66247654147E+02  0.70735259538E+02 -0.36916952594E+03  0.41875449427E+03  0.17227001760E+03 0.  0.
         24    2    3    3    0    0  0.56047071327E+02  0.32635980483E+02 -0.36515118237E+03  0.37883151793E+03  0.77275814870E+02 0.  0.
         -6    2    1    2    0  502 -0.66247654147E+02 -0.70735259538E+02 -0.28477408380E+03  0.34663529361E+03  0.17224261769E+03 0.  0.
        -24    2    5    5    0    0 -0.10959656008E+03 -0.71858337796E+02 -0.22298487792E+03  0.27100206736E+03  0.80900173299E+02 0.  0.
          5    1    3    3  501    0  0.10200582820E+02  0.38099279055E+02 -0.40183435641E+01  0.39922976334E+02  0.47000000000E+01 0. -1.
        -13    1    4    4    0    0 -0.19033679671E+02  0.11753083405E+02 -0.99609071094E+02  0.10209007285E+03  0.00000000000E+00 0.  1.
         14    1    4    4    0    0  0.75080750998E+02  0.20882897078E+02 -0.26554211128E+03  0.27674144508E+03  0.00000000000E+00 0. -1.
         -5    1    5    5    0  502  0.43348905928E+02  0.11230782580E+01 -0.61789205873E+02  0.75633226245E+02  0.47000000000E+01 0.  1.
         11    1    6    6    0    0 -0.81165915232E+02 -0.12300032980E+02 -0.85681806669E+02  0.11866157171E+03  0.00000000000E+00 0. -1.
        -12    1    6    6    0    0 -0.28430644843E+02 -0.59558304817E+02 -0.13730307126E+03  0.15234049565E+03  0.00000000000E+00 0.  1.
</event>
<event>
12    1  0.8691829E-002  0.1884964E+03  0.7818608E-02  0.1162910E+00
         21   -1    0    0  503  502  0.00000000000E+00  0.00000000000E+00  0.24410438717E+03  0.24410438717E+03  0.00000000000E+00 0.  1.
         21   -1    0    0  501  503 -0.00000000000E+00 -0.00000000000E+00 -0.17450037882E+03  0.17450037882E+03  0.00000000000E+00 0.  1.
          6    2    1    2  501    0 -0.16443418433E+01 -0.33453345081E+02 -0.64856476013E+02  0.18706534035E+03  0.17223602678E+03 0.  0.
         24    2    3    3    0    0 -0.43267186130E+02  0.24295723015E+02 -0.72929355452E+02  0.11526925818E+03  0.74202287309E+02 0.  0.
         -6    2    1    2    0  502  0.16443418433E+01  0.33453345081E+02  0.13446048437E+03  0.23153942564E+03  0.18549677521E+03 0.  0.
        -24    2    5    5    0    0  0.38765389818E+01  0.65141241121E+02  0.16785701148E+02  0.10956176348E+03  0.86392195281E+02 0.  0.
          5    1    3    3  501    0  0.41622844287E+02 -0.57749068097E+02  0.80728794381E+01  0.71796082170E+02  0.47000000000E+01 0. -1.
        -11    1    4    4    0    0 -0.46169606314E+02  0.36193679855E+02 -0.21625972672E+02  0.62524376867E+02  0.00000000000E+00 0.  1.
         12    1    4    4    0    0  0.29024201837E+01 -0.11897956839E+02 -0.51303382779E+02  0.52744881311E+02  0.00000000000E+00 0. -1.
         -5    1    5    5    0  502 -0.22321971385E+01 -0.31687896040E+02  0.11767478322E+03  0.12197766216E+03  0.47000000000E+01 0.  1.
         13    1    6    6    0    0 -0.12985866505E+02  0.24518858247E+02 -0.33010857833E+02  0.43122196993E+02  0.00000000000E+00 0. -1.
        -14    1    6    6    0    0  0.16862405487E+02  0.40622382874E+02  0.49796558981E+02  0.66439566491E+02  0.00000000000E+00 0.  1.
</event>
<event>
12    1  0.8691829E-002  0.2058351E+03  0.7818608E-02  0.1146705E+00
         21   -1    0    0  501  502  0.00000000000E+00  0.00000000000E+00  0.29534783216E+03  0.29534783216E+03  0.00000000000E+00 0.  1.
         21   -1    0    0  502  503 -0.00000000000E+00 -0.00000000000E+00 -0.13894263756E+03  0.13894263756E+03  0.00000000000E+00 0.  1.
         -6    2    1    2    0  503  0.94681696649E+02 -0.20146448946E+02  0.54323277932E+02  0.20453233365E+03  0.17179043599E+03 0.  0.
        -24    2    3    3    0    0  0.73649464775E+02 -0.26425030233E+02  0.10361015431E+03  0.15037458680E+03  0.75861231172E+02 0.  0.
          6    2    1    2  501    0 -0.94681696649E+02  0.20146448946E+02  0.10208191667E+03  0.22975813607E+03  0.18165236111E+03 0.  0.
         24    2    5    5    0    0 -0.10061606999E+03  0.15794384479E+02  0.26695288948E+01  0.12996299544E+03  0.80685796000E+02 0.  0.
          5    1    5    5  501    0  0.59343733447E+01  0.43520644666E+01  0.99412387772E+02  0.99795140636E+02  0.47000000000E+01 0. -1.
        -11    1    6    6    0    0 -0.92885402542E+02  0.25786231647E+02  0.29077902733E+02  0.10068839146E+03  0.00000000000E+00 0.  1.
         12    1    6    6    0    0 -0.77306674523E+01 -0.99918471683E+01 -0.26408373838E+02  0.29274603974E+02  0.00000000000E+00 0. -1.
         -5    1    3    3    0  503  0.21032231874E+02  0.62785812873E+01 -0.49286876381E+02  0.54157746851E+02  0.47000000000E+01 0.  1.
         13    1    4    4    0    0  0.28888395640E+02  0.23496558766E+02  0.17243803515E+02  0.41036281949E+02  0.00000000000E+00 0. -1.
        -14    1    4    4    0    0  0.44761069135E+02 -0.49921588999E+02  0.86366350797E+02  0.10933830485E+03  0.00000000000E+00 0.  1.
</event>
<event>
12    1  0.8691829E-002  0.1848981E+03  0.7818608E-02  0.1164354E+00
         21   -1    0    0  503  502  0.00000000000E+00  0.00000000000E+00  0.65958407726E+02  0.65958407726E+02  0.00000000000E+00 0.  1.
         21   -1    0    0  501  503 -0.00000000000E+00 -0.00000000000E+00 -0.53658266819E+03  0.53658266819E+03  0.00000000000E+00 0.  1.
          6    2    1    2  501    0  0.26194529135E+02  0.41205455878E+02 -0.15813095278E+03  0.23944414289E+03  0.17304351010E+03 0.  0.
         24    2    3    3    0    0 -0.35265739032E+02  0.12572880975E+02 -0.27927672759E+02  0.92569458086E+02  0.79921211071E+02 0.  0.
         -6    2    1    2    0  502 -0.26194529135E+02 -0.41205455878E+02 -0.31249330768E+03  0.36309693302E+03  0.17833472032E+03 0.  0.
        -24    2    5    5    0    0 -0.78586647984E+01  0.13965224786E+02 -0.52854240061E+02  0.96986911864E+02  0.79725179615E+02 0.  0.
          5    1    3    3  501    0  0.61460268168E+02  0.28632574903E+02 -0.13020328002E+03  0.14687468481E+03  0.47000000000E+01 0. -1.
        -13    1    4    4    0    0 -0.35180027757E+02 -0.72521995480E+01  0.19709299540E+02  0.40971761491E+02  0.00000000000E+00 0.  1.
         14    1    4    4    0    0 -0.85711274997E-01  0.19825080523E+02 -0.47636972299E+02  0.51597696595E+02  0.00000000000E+00 0. -1.
         -5    1    5    5    0  502 -0.18335864337E+02 -0.55170680664E+02 -0.25963906762E+03  0.26611002115E+03  0.47000000000E+01 0.  1.
         11    1    6    6    0    0 -0.41495007286E+02 -0.18563860712E+01 -0.39973427855E+02  0.57646827609E+02  0.00000000000E+00 0. -1.
        -12    1    6    6    0    0  0.33636342488E+02  0.15821610857E+02 -0.12880812206E+02  0.39340084255E+02  0.00000000000E+00 0.  1.
</event>
<event>
12    1  0.8691829E-002  0.2054498E+03  0.7818608E-02  0.1145226E+00
         21   -1    0    0  501  502  0.00000000000E+00  0.00000000000E+00  0.22347790403E+03  0.22347790403E+03  0.00000000000E+00 0. -1.
         21   -1    0    0  502  503 -0.00000000000E+00 -0.00000000000E+00 -0.21213887966E+03  0.21213887966E+03  0.00000000000E+00 0.  1.
         -6    2    1    2    0  503  0.43789715332E+02 -0.10366747054E+03 -0.66492002172E+02  0.21591865260E+03  0.17185806518E+03 0.  0.
        -24    2    3    3    0    0 -0.30675148217E+02 -0.37916899985E+02  0.46614412904E+01  0.93635963926E+02  0.79795417680E+02 0.  0.
          6    2    1    2  501    0 -0.43789715332E+02  0.10366747054E+03  0.77831026534E+02  0.21969813109E+03  0.17188692939E+03 0.  0.
         24    2    5    5    0    0  0.13828045704E+02  0.10808829700E+03  0.16969855757E+02  0.13564147043E+03  0.78970486254E+02 0.  0.
          5    1    5    5  501    0 -0.57617761036E+02 -0.44208264584E+01  0.60861170777E+02  0.84056660662E+02  0.47000000000E+01 0. -1.
        -13    1    6    6    0    0 -0.13902159640E+02 -0.66302429344E+01 -0.36559721086E+01  0.15830233608E+02  0.00000000000E+00 0.  1.
         14    1    6    6    0    0  0.27730205344E+02  0.11471853994E+03  0.20625827866E+02  0.11981123682E+03  0.00000000000E+00 0. -1.
         -5    1    3    3    0  503  0.74464863549E+02 -0.65750570558E+02 -0.71153443462E+02  0.12228268867E+03  0.47000000000E+01 0.  1.
         11    1    4    4    0    0  0.11740040393E+02 -0.14636855610E+02  0.32710218092E+02  0.37709739567E+02  0.00000000000E+00 0. -1.
        -12    1    4    4    0    0 -0.42415188610E+02 -0.23280044375E+02 -0.28048776802E+02  0.55926224359E+02  0.00000000000E+00 0.  1.
</event>
<event>
12    1  0.8691829E-002  0.2406127E+03  0.7818608E-02  0.1119453E+00
         21   -1    0    0  503  502  0.00000000000E+00  0.00000000000E+00  0.19468829289E+03  0.19468829289E+03  0.00000000000E+00 0.  1.
         21   -1    0    0  501  503 -0.00000000000E+00 -0.00000000000E+00 -0.29773487659E+03  0.29773487659E+03  0.00000000000E+00 0.  1.
          6    2    1    2  501    0  0.95323399701E+01 -0.16845924233E+03 -0.38185581661E+02  0.24322160503E+03  0.17096557745E+03 0.  0.
         24    2    3    3    0    0 -0.35345526888E+02 -0.15955113799E+03  0.28650837471E+01  0.18157240076E+03  0.79085119382E+02 0.  0.
         -6    2    1    2    0  502 -0.95323399701E+01  0.16845924233E+03 -0.64861002041E+02  0.24920156445E+03  0.17153742538E+03 0.  0.
        -24    2    5    5    0    0 -0.58743345152E+02  0.15362230800E+03 -0.27920423289E+02  0.18573067341E+03  0.81643976457E+02 0.  0.
          5    1    3    3  501    0  0.44877866858E+02 -0.89081043401E+01 -0.41050665408E+02  0.61649204270E+02  0.47000000000E+01 0. -1.
        -13    1    4    4    0    0 -0.19075444617E+02 -0.14414598574E+03 -0.23154848748E+02  0.14723479484E+03  0.00000000000E+00 0.  1.
         14    1    4    4    0    0 -0.16270082271E+02 -0.15405152251E+02  0.26019932495E+02  0.34337605916E+02  0.00000000000E+00 0. -1.
         -5    1    5    5    0  502  0.49211005182E+02  0.14836934326E+02 -0.36940578753E+02  0.63470891043E+02  0.47000000000E+01 0.  1.
         11    1    6    6    0    0 -0.59739721182E+02  0.85388610734E+02 -0.47802716824E+02  0.11465229551E+03  0.00000000000E+00 0. -1.
        -12    1    6    6    0    0  0.99637603064E+00  0.68233697267E+02  0.19882293535E+02  0.71078377895E+02  0.00000000000E+00 0.  1.
</event>
<event>
12    1  0.8691829E-002  0.2189459E+03  0.7818608E-02  0.1135652E+00
         21   -1    0    0  503  502  0.00000000000E+00  0.00000000000E+00  0.13491412475E+03  0.13491412475E+03  0.00000000000E+00 0. -1.
         21   -1    0    0  501  503 -0.00000000000E+00 -0.00000000000E+00 -0.51983016057E+03  0.51983016057E+03  0.00000000000E+00 0.  1.
          6    2    1    2  501    0  0.56183380210E+02 -0.11609213256E+03 -0.38275182536E+03  0.44094928935E+03  0.17692755724E+03 0.  0.
         24    2    3    3    0    0  0.34716675249E+02  0.94442766445E+01 -0.18704831056E+03  0.20740664836E+03  0.82073170995E+02 0.  0.
         -6    2    1    2    0  502 -0.56183380210E+02  0.11609213256E+03 -0.21642104612E+01  0.21379499596E+03  0.17049827282E+03 0.  0.
        -24    2    5    5    0    0 -0.10684032929E+02  0.23745731858E+01  0.38531565428E+02  0.84643495430E+02  0.74565760418E+02 0.  0.
          5    1    3    3  501    0  0.21466704962E+02 -0.12553640921E+03 -0.19570351480E+03  0.23354264100E+03  0.47000000000E+01 0. -1.
        -13    1    4    4    0    0 -0.18681547973E+02  0.19916279521E+02 -0.10828007333E+03  0.11167019613E+03  0.00000000000E+00 0.  1.
         14    1    4    4    0    0  0.53398223222E+02 -0.10472002876E+02 -0.78768237236E+02  0.95736452225E+02  0.00000000000E+00 0. -1.
         -5    1    5    5    0  502 -0.45499347282E+02  0.11371755938E+03 -0.40695775889E+02  0.12915150053E+03  0.47000000000E+01 0.  1.
         13    1    6    6    0    0  0.30252061060E+02  0.11310660067E+02  0.94896561289E+01  0.33662617293E+02  0.00000000000E+00 0. -1.
        -14    1    6    6    0    0 -0.40936093989E+02 -0.89360868814E+01  0.29041909299E+02  0.50980878137E+02  0.00000000000E+00 0.  1.
</event>
<event>
12    1  0.8691829E-002  0.1825009E+03  0.7818608E-02  0.1166011E+00
         21   -1    0    0  501  502  0.00000000000E+00  0.00000000000E+00  0.10049485667E+03  0.10049485667E+03  0.00000000000E+00 0. -1.
         21   -1    0    0  502  503 -0.00000000000E+00 -0.00000000000E+00 -0.61225052300E+03  0.61225052300E+03  0.00000000000E+00 0. -1.
         -6    2    1    2    0  503  0.38898608755E+02  0.44311375235E+02 -0.49823835469E+03  0.52974458829E+03  0.17003314678E+03 0.  0.
        -24    2    3    3    0    0  0.58702909305E+02  0.31653163403E+02 -0.49459868552E+03  0.50550045830E+03  0.80342388036E+02 0.  0.
          6    2    1    2  501    0 -0.38898608755E+02 -0.44311375235E+02 -0.13517311645E+02  0.18300079138E+03  0.17271355533E+03 0.  0.
         24    2    5    5    0    0 -0.36966919147E+02 -0.11429928771E+02 -0.72247355971E+02  0.11550094655E+03  0.81385452176E+02 0.  0.
          5    1    5    5  501    0 -0.19316896080E+01 -0.32881446464E+02  0.58730044325E+02  0.67499844835E+02  0.47000000000E+01 0. -1.
        -13    1    6    6    0    0 -0.12421241896E+02 -0.38078685193E+02 -0.68137775789E+02  0.79038155379E+02  0.00000000000E+00 0.  1.
         14    1    6    6    0    0 -0.24545677251E+02  0.26648756422E+02 -0.41095801812E+01  0.36462791169E+02  0.00000000000E+00 0. -1.
         -5    1    3    3    0  503 -0.19804300551E+02  0.12658211832E+02 -0.36396691684E+01  0.24244129986E+02  0.47000000000E+01 0.  1.
         13    1    4    4    0    0 -0.16480360338E+02  0.11817069302E+02 -0.19212911336E+03  0.19319638093E+03  0.00000000000E+00 0. -1.
        -14    1    4    4    0    0  0.75183269644E+02  0.19836094101E+02 -0.30246957216E+03  0.31230407738E+03  0.00000000000E+00 0.  1.
</event>
<event>
12    1  0.8691829E-002  0.2122716E+03  0.7818608E-02  0.1140829E+00
         21   -1    0    0  503  502  0.00000000000E+00  0.00000000000E+00  0.75240180513E+03  0.75240180513E+03  0.00000000000E+00 0. -1.
         21   -1    0    0  501  503 -0.00000000000E+00 -0.00000000000E+00 -0.85487317667E+02  0.85487317667E+02  0.00000000000E+00 0. -1.
          6    2    1    2  501    0 -0.11417274170E+03 -0.25314604428E+02  0.10052827707E+03  0.23487266258E+03  0.17715244563E+03 0.  0.
         24    2    3    3    0    0 -0.91081822010E+02  0.23115448351E+02  0.12459426122E+03  0.17588179737E+03  0.81120000403E+02 0.  0.
         -6    2    1    2    0  502  0.11417274170E+03  0.25314604428E+02  0.56638621040E+03  0.60301646023E+03  0.17076084981E+03 0.  0.
        -24    2    5    5    0    0  0.79257893418E+01  0.44070363389E+01  0.37211020444E+03  0.38055118703E+03  0.79189403278E+02 0.  0.
          5    1    3    3  501    0 -0.23090919688E+02 -0.48430052778E+02 -0.24065984152E+02  0.58990865203E+02  0.47000000000E+01 0. -1.
        -13    1    4    4    0    0 -0.50118544337E+02  0.50285962780E+02  0.51140124217E+02  0.87497764795E+02  0.00000000000E+00 0.  1.
         14    1    4    4    0    0 -0.40963277673E+02 -0.27170514430E+02  0.73454137001E+02  0.88384032578E+02  0.00000000000E+00 0. -1.
         -5    1    5    5    0  502  0.10624695236E+03  0.20907568089E+02  0.19427600596E+03  0.22246527320E+03  0.47000000000E+01 0.  1.
         11    1    6    6    0    0 -0.43427694515E+01  0.31807648080E+02  0.70671739803E+02  0.77621394793E+02  0.00000000000E+00 0. -1.
        -12    1    6    6    0    0  0.12268558793E+02 -0.27400611741E+02  0.30143846464E+03  0.30292979223E+03  0.00000000000E+00 0.  1.
</event>
<event>
12    1  0.8691829E-002  0.2010722E+03  0.7818608E-02  0.1148972E+00
         21   -1    0    0  501  502  0.00000000000E+00  0.00000000000E+00  0.13482883243E+04  0.13482883243E+04  0.00000000000E+00 0.  1.
         21   -1    0    0  502  503 -0.00000000000E+00 -0.00000000000E+00 -0.58584679906E+02  0.58584679906E+02  0.00000000000E+00 0.  1.
         -6    2    1    2    0  503  0.58511591076E+02 -0.86268660901E+02  0.15202681206E+03  0.25156412864E+03  0.17119132890E+03 0.  0.
        -24    2    3    3    0    0  0.14031278169E+02 -0.99236463760E+02  0.16282375613E+03  0.20375904368E+03  0.70437346731E+02 0.  0.
          6    2    1    2  501    0 -0.58511591076E+02  0.86268660901E+02  0.11376768323E+04  0.11553088755E+04  0.17194224314E+03 0.  0.
         24    2    5    5    0    0 -0.10399213088E+03  0.47169466117E+02  0.82652221567E+03  0.83839167501E+03  0.81989669529E+02 0.  0.
          5    1    5    5  501    0  0.45480539806E+02  0.39099194784E+02  0.31115461665E+03  0.31691720054E+03  0.47000000000E+01 0. -1.
        -13    1    6    6    0    0 -0.68150449311E+02  0.59013565774E+02  0.39198667586E+03  0.40221963992E+03  0.00000000000E+00 0.  1.
         14    1    6    6    0    0 -0.35841681570E+02 -0.11844099657E+02  0.43453553982E+03  0.43617203509E+03  0.00000000000E+00 0. -1.
         -5    1    3    3    0  503  0.44480312907E+02  0.12967802859E+02 -0.10796944070E+02  0.47805084965E+02  0.47000000000E+01 0.  1.
         11    1    4    4    0    0 -0.22928294547E+02 -0.53118621717E+02  0.11092128873E+03  0.12510326517E+03  0.00000000000E+00 0. -1.
        -12    1    4    4    0    0  0.36959572715E+02 -0.46117842043E+02  0.51902467399E+02  0.78655778504E+02  0.00000000000E+00 0.  1.
</event>
<event>
12    1  0.8691829E-002  0.1766821E+03  0.7818608E-02  0.1171372E+00
         21   -1    0    0  501  502  0.00000000000E+00  0.00000000000E+00  0.13251513750E+04  0.13251513750E+04  0.00000000000E+00 0. -1.
         21   -1    0    0  502  503 -0.00000000000E+00 -0.00000000000E+00 -0.27951536480E+02  0.27951536480E+02  0.00000000000E+00 0. -1.
         -6    2    1    2    0  503  0.30841677030E+02  0.16484822269E+02  0.92003464271E+03  0.93660545381E+03  0.17188098764E+03 0.  0.
        -24    2    3    3    0    0  0.68756744556E+02  0.20154312874E+02  0.84997738030E+03  0.85672349387E+03  0.79874349348E+02 0.  0.
          6    2    1    2  501    0 -0.30841677030E+02 -0.16484822269E+02  0.37716519582E+03  0.41649745769E+03  0.17318657255E+03 0.  0.
         24    2    5    5    0    0 -0.50446492159E+02  0.30034134335E+02  0.32541728086E+03  0.34405231428E+03  0.95019421610E+02 0.  0.
          5    1    5    5  501    0  0.19604815130E+02 -0.46518956604E+02  0.51747914962E+02  0.72445143403E+02  0.47000000000E+01 0. -1.
        -13    1    6    6    0    0 -0.11497992607E+02 -0.14329600590E+02  0.23716253102E+03  0.23787309097E+03  0.00000000000E+00 0.  1.
         14    1    6    6    0    0 -0.38948499552E+02  0.44363734926E+02  0.88254749843E+02  0.10617922331E+03  0.00000000000E+00 0. -1.
         -5    1    3    3    0  503 -0.37915067527E+02 -0.36694906050E+01  0.70057262416E+02  0.79881959941E+02  0.47000000000E+01 0.  1.
         13    1    4    4    0    0  0.13613010410E+02  0.43176295496E+02  0.45574074850E+03  0.45798377306E+03  0.00000000000E+00 0. -1.
        -14    1    4    4    0    0  0.55143734146E+02 -0.23021982622E+02  0.39423663180E+03  0.39873972081E+03  0.00000000000E+00 0.  1.
</event>
<event>
12    1  0.8691829E-002  0.2025968E+03  0.7818608E-02  0.1147907E+00
         21   -1    0    0  503  502  0.00000000000E+00  0.00000000000E+00  0.36236546086E+03  0.36236546086E+03  0.00000000000E+00 0. -1.
         21   -1    0    0  501  503 -0.00000000000E+00 -0.00000000000E+00 -0.20880098124E+03  0.20880098124E+03  0.00000000000E+00 0. -1.
          6    2    1    2  501    0 -0.83065643573E+02  0.64635736072E+02 -0.11747202011E+03  0.23277873217E+03  0.17119749742E+03 0.  0.
         24    2    3    3    0    0  0.15411125093E+02  0.16120075497E+02 -0.85393726167E+02  0.11831236056E+03  0.78793188677E+02 0.  0.
         -6    2    1    2    0  502  0.83065643573E+02 -0.64635736072E+02  0.27103649972E+03  0.33838770993E+03  0.17311204040E+03 0.  0.
        -24    2    5    5    0    0 -0.24229644232E+02 -0.23494457118E+02  0.10509711861E+03  0.13648958755E+03  0.80280371157E+02 0.  0.
          5    1    3    3  501    0 -0.98476768666E+02  0.48515660574E+02 -0.32078293938E+02  0.11446637161E+03  0.47000000000E+01 0. -1.
        -13    1    4    4    0    0 -0.38167732922E+01 -0.64186567334E+01  0.13308098220E+02  0.15260156973E+02  0.00000000000E+00 0.  1.
         14    1    4    4    0    0  0.19227898385E+02  0.22538732231E+02 -0.98701824387E+02  0.10305220359E+03  0.00000000000E+00 0. -1.
         -5    1    5    5    0  502  0.10729528781E+03 -0.41141278954E+02  0.16593938111E+03  0.20189812238E+03  0.47000000000E+01 0.  1.
         11    1    6    6    0    0  0.12531366822E+02 -0.42623937705E+02  0.42959290903E+02  0.61800775843E+02  0.00000000000E+00 0. -1.
        -12    1    6    6    0    0 -0.36761011054E+02  0.19129480587E+02  0.62137827711E+02  0.74688811705E+02  0.00000000000E+00 0.  1.
</event>
<event>
12    1  0.8691829E-002  0.1816172E+03  0.7818608E-02  0.1166251E+00
         21   -1    0    0  501  502  0.00000000000E+00  0.00000000000E+00  0.31047020098E+02  0.31047020098E+02  0.00000000000E+00 0.  1.
         21   -1    0    0  502  503 -0.00000000000E+00 -0.00000000000E+00 -0.11439298927E+04  0.11439298927E+04  0.00000000000E+00 0. -1.
         -6    2    1    2    0  503  0.42285825019E+01 -0.59534003120E+02 -0.71333029764E+03  0.73608389500E+03  0.17151445571E+03 0.  0.
        -24    2    3    3    0    0  0.55537995589E+01 -0.95198343270E+02 -0.66101395331E+03  0.67257963339E+03  0.79563481167E+02 0.  0.
          6    2    1    2  501    0 -0.42285825019E+01  0.59534003120E+02 -0.39955257495E+03  0.43889301778E+03  0.17153029607E+03 0.  0.
         24    2    5    5    0    0 -0.12909816964E+02 -0.19256756224E+02 -0.13369213085E+03  0.16142732022E+03  0.87451173955E+02 0.  0.
          5    1    5    5  501    0  0.86812344620E+01  0.78790759344E+02 -0.26586044409E+03  0.27746569756E+03  0.47000000000E+01 0. -1.
        -13    1    6    6    0    0 -0.16122877771E+02  0.14370478507E+02  0.19090618427E+01  0.21681843954E+02  0.00000000000E+00 0.  1.
         14    1    6    6    0    0  0.32130608072E+01 -0.33627234731E+02 -0.13560119270E+03  0.13974547626E+03  0.00000000000E+00 0. -1.
         -5    1    3    3    0  503 -0.13252170570E+01  0.35664340150E+02 -0.52316344328E+02  0.63504261608E+02  0.47000000000E+01 0.  1.
         11    1    4    4    0    0 -0.36529349861E+02 -0.42993064977E+02 -0.26629055737E+03  0.27220113516E+03  0.00000000000E+00 0. -1.
        -12    1    4    4    0    0  0.42083149420E+02 -0.52205278293E+02 -0.39472339594E+03  0.40037849823E+03  0.00000000000E+00 0.  1.
</event>
<event>
12    1  0.8691829E-002  0.1998049E+03  0.7818608E-02  0.1150200E+00
         21   -1    0    0  501  502  0.00000000000E+00  0.00000000000E+00  0.34443228879E+02  0.34443228879E+02  0.00000000000E+00 0. -1.
         21   -1    0    0  502  503 -0.00000000000E+00 -0.00000000000E+00 -0.13280685237E+04  0.13280685237E+04  0.00000000000E+00 0. -1.
         -6    2    1    2    0  503 -0.56008712099E+02  0.82032660387E+02 -0.89361619769E+03  0.91537722688E+03  0.17175338573E+03 0.  0.
        -24    2    3    3    0    0 -0.62894551604E+02 -0.83488621185E+01 -0.55830084216E+03  0.56799456748E+03  0.83021504498E+02 0.  0.
          6    2    1    2  501    0  0.56008712099E+02 -0.82032660387E+02 -0.40000909714E+03  0.44713452571E+03  0.17336572062E+03 0.  0.
         24    2    5    5    0    0  0.60013470334E+02 -0.41426962608E+02 -0.10877543265E+03  0.15301890539E+03  0.79151000042E+02 0.  0.
          5    1    5    5  501    0 -0.40047582352E+01 -0.40605697779E+02 -0.29123366449E+03  0.29411562032E+03  0.47000000000E+01 0. -1.
        -13    1    6    6    0    0  0.26185807376E+01  0.14209029920E+02  0.38105330027E+01  0.14942344465E+02  0.00000000000E+00 0.  1.
         14    1    6    6    0    0  0.57394889597E+02 -0.55635992528E+02 -0.11258596565E+03  0.13807656093E+03  0.00000000000E+00 0. -1.
         -5    1    3    3    0  503  0.68858395052E+01  0.90381522506E+02 -0.33531535552E+03  0.34738265939E+03  0.47000000000E+01 0.  1.
         13    1    4    4    0    0  0.79107684617E+01  0.23211998663E+02 -0.19351816410E+03  0.19506577602E+03  0.00000000000E+00 0. -1.
        -14    1    4    4    0    0 -0.70805320066E+02 -0.31560860782E+02 -0.36478267807E+03  0.37292879146E+03  0.00000000000E+00 0.  1.
</event>
<event>
12    1  0.8691829E-002  0.2008363E+03  0.7818608E-02  0.1149666E+00
         21   -1    0    0  501  502  0.00000000000E+00  0.00000000000E+00  0.14923523330E+03  0.14923523330E+03  0.00000000000E+00 0.  1.
         21   -1    0    0  502  503 -0.00000000000E+00 -0.00000000000E+00 -0.28357110688E+03  0.28357110688E+03  0.00000000000E+00 0.  1.
         -6    2    1    2    0  503 -0.99853322570E+01  0.98931344318E+02 -0.12013474383E+03  0.23146859654E+03  0.17105039246E+03 0.  0.
        -24    2    3    3    0    0 -0.20248916109E+02  0.81344478682E+01 -0.31420874264E+01  0.82946580628E+02  0.79962958167E+02 0.  0.
          6    2    1    2  501    0  0.99853322570E+01 -0.98931344318E+02 -0.14201129758E+02  0.20133774364E+03  0.17449383135E+03 0.  0.
         24    2    5    5    0    0  0.31607304991E+02 -0.10084714631E+03 -0.63739456914E+02  0.14704855632E+03  0.79946175032E+02 0.  0.
          5    1    5    5  501    0 -0.21621972734E+02  0.19158019885E+01  0.49538327156E+02  0.54289187317E+02  0.47000000000E+01 0. -1.
        -11    1    6    6    0    0  0.31922539096E+02 -0.94215296597E+02 -0.18323660555E+02  0.10115002299E+03  0.00000000000E+00 0.  1.
         12    1    6    6    0    0 -0.31523410459E+00 -0.66318497098E+01 -0.45415796359E+02  0.45898533332E+02  0.00000000000E+00 0. -1.
         -5    1    3    3    0  503  0.10263583852E+02  0.90796896450E+02 -0.11699265640E+03  0.14852201591E+03  0.47000000000E+01 0.  1.
         11    1    4    4    0    0  0.29400628610E+02 -0.24770370811E+01  0.88018929726E+01  0.30789705995E+02  0.00000000000E+00 0. -1.
        -12    1    4    4    0    0 -0.49649544719E+02  0.10611484949E+02 -0.11943980399E+02  0.52156874633E+02  0.00000000000E+00 0.  1.
</event>
<event>
12    1  0.8691829E-002  0.3129326E+03  0.7818608E-02  0.1079052E+00
         21   -1    0    0  501  502  0.00000000000E+00  0.00000000000E+00  0.41723335756E+03  0.41723335756E+03  0.00000000000E+00 0.  1.
         21   -1    0    0  502  503 -0.00000000000E+00 -0.00000000000E+00 -0.24517895086E+03  0.24517895086E+03  0.00000000000E+00 0.  1.
         -6    2    1    2    0  503  0.24775428456E+03  0.82018936269E+02  0.15347075378E+02  0.31243518228E+03  0.17108746004E+03 0.  0.
        -24    2    3    3    0    0  0.19805159263E+03  0.20409731287E+02  0.58034054350E+02  0.22237786777E+03  0.80268138988E+02 0.  0.
          6    2    1    2  501    0 -0.24775428456E+03 -0.82018936269E+02  0.15670733132E+03  0.34997712613E+03  0.17267747306E+03 0.  0.
         24    2    5    5    0    0 -0.13803351702E+03 -0.83161110057E+02  0.30491434427E+02  0.18266755074E+03  0.80428132339E+02 0.  0.
          5    1    5    5  501    0 -0.10972076754E+03  0.11421737877E+01  0.12621589689E+03  0.16730957540E+03  0.47000000000E+01 0. -1.
        -11    1    6    6    0    0 -0.79712513985E+02 -0.25924535270E+01  0.45803693408E+01  0.79886078164E+02  0.00000000000E+00 0.  1.
         12    1    6    6    0    0 -0.58321003034E+02 -0.80568656530E+02  0.25911065087E+02  0.10278147257E+03  0.00000000000E+00 0. -1.
         -5    1    3    3    0  503  0.49702691930E+02  0.61609204982E+02 -0.42686978972E+02  0.90057314513E+02  0.47000000000E+01 0.  1.
         11    1    4    4    0    0  0.81725313343E+01 -0.12873766093E+02 -0.96744607837E+01  0.18058773859E+02  0.00000000000E+00 0. -1.
        -12    1    4    4    0    0  0.18987906129E+03  0.33283497380E+02  0.67708515134E+02  0.20431909391E+03  0.00000000000E+00 0.  1.
</event>
<event>
12    1  0.8691829E-002  0.1778669E+03  0.7818608E-02  0.1170686E+00
         21   -1    0    0  503  502  0.00000000000E+00  0.00000000000E+00  0.15582939845E+03  0.15582939845E+03  0.00000000000E+00 0. -1.
         21   -1    0    0  501  503 -0.00000000000E+00 -0.00000000000E+00 -0.28735492116E+03  0.28735492116E+03  0.00000000000E+00 0. -1.
          6    2    1    2  501    0 -0.44145861036E+02  0.12757200649E+02 -0.18797292279E+03  0.25657520880E+03  0.16847971644E+03 0.  0.
         24    2    3    3    0    0 -0.27801418287E+01 -0.17784957720E+02 -0.18759176180E+03  0.20494012918E+03  0.80534176239E+02 0.  0.
         -6    2    1    2    0  502  0.44145861036E+02 -0.12757200649E+02  0.56447400080E+02  0.18660911081E+03  0.17182854259E+03 0.  0.
        -24    2    5    5    0    0 -0.67344305971E+01 -0.27965830661E+02 -0.27187704332E+02  0.87427322194E+02  0.77954635264E+02 0.  0.
          5    1    3    3  501    0 -0.41365719207E+02  0.30542158369E+02 -0.38116098767E+00  0.51635079617E+02  0.47000000000E+01 0. -1.
        -13    1    4    4    0    0  0.36344518106E+02  0.42459510743E+01 -0.68421431040E+02  0.77591522233E+02  0.00000000000E+00 0.  1.
         14    1    4    4    0    0 -0.39124659935E+02 -0.22030908794E+02 -0.11917033076E+03  0.12734860695E+03  0.00000000000E+00 0. -1.
         -5    1    5    5    0  502  0.50880291633E+02  0.15208630011E+02  0.83635104412E+02  0.99181788618E+02  0.47000000000E+01 0.  1.
         13    1    6    6    0    0  0.21304298695E+02 -0.19472147497E+02  0.17676060438E+02  0.33844952114E+02  0.00000000000E+00 0. -1.
        -14    1    6    6    0    0 -0.28038729292E+02 -0.84936831633E+01 -0.44863764770E+02  0.53582370079E+02  0.00000000000E+00 0.  1.
</event>
<event>
12    1  0.8691829E-002  0.1951335E+03  0.7818608E-02  0.1153930E+00
         21   -1    0    0  503  502  0.00000000000E+00  0.00000000000E+00  0.24151985574E+03  0.24151985574E+03  0.00000000000E+00 0. -1.
         21   -1    0    0  501  503 -0.00000000000E+00 -0.00000000000E+00 -0.23457762059E+03  0.23457762059E+03  0.00000000000E+00 0. -1.
          6    2    1    2  501    0 -0.86776546902E+02 -0.35149133269E+02  0.13984771681E+03  0.24000230207E+03  0.17110841721E+03 0.  0.
         24    2    3    3    0    0 -0.15033289686E+02  0.26617074035E+02  0.10860263800E+03  0.14019997609E+03  0.83228792411E+02 0.  0.
         -6    2    1    2    0  502  0.86776546902E+02  0.35149133269E+02 -0.13290548166E+03  0.23609517426E+03  0.17120582232E+03 0.  0.
        -24    2    5    5    0    0 -0.90088214808E+01  0.10792737172E+02 -0.10563770287E+03  0.13346139529E+03  0.80342876003E+02 0.  0.
          5    1    3    3  501    0 -0.71743257216E+02 -0.61766207305E+02  0.31245078812E+02  0.99802325978E+02  0.47000000000E+01 0. -1.
        -11    1    4    4    0    0 -0.46359318814E+02  0.17935100980E+02  0.89819321665E+02  0.10265653819E+03  0.00000000000E+00 0.  1.
         12    1    4    4    0    0  0.31326029128E+02  0.86819730552E+01  0.18783316332E+02  0.37543437902E+02  0.00000000000E+00 0. -1.
         -5    1    5    5    0  502  0.95785368383E+02  0.24356396097E+02 -0.27267778786E+02  0.10263377898E+03  0.47000000000E+01 0.  1.
         13    1    6    6    0    0  0.11208276580E+02  0.21522215546E+02  0.11064311886E+01  0.24291056294E+02  0.00000000000E+00 0. -1.
        -14    1    6    6    0    0 -0.20217098061E+02 -0.10729478374E+02 -0.10674413406E+03  0.10917033899E+03  0.00000000000E+00 0.  1.
</event>
<event>
12    1  0.8691829E-002  0.2089105E+03  0.7818608E-02  0.1142640E+00
         21   -1    0    0  501  502  0.00000000000E+00  0.00000000000E+00  0.21110042340E+03  0.21110042340E+03  0.00000000000E+00 0.  1.
         21   -1    0    0  502  503 -0.00000000000E+00 -0.00000000000E+00 -0.66223699715E+03  0.66223699715E+03  0.00000000000E+00 0.  1.
         -6    2    1    2    0  503  0.11127867906E+03 -0.37115803909E+02 -0.58794987803E+03  0.62361464473E+03  0.17160897044E+03 0.  0.
        -24    2    3    3    0    0  0.30272582356E+02  0.35851434853E+02 -0.29564098297E+03  0.31160056530E+03  0.86542283633E+02 0.  0.
          6    2    1    2  501    0 -0.11127867906E+03  0.37115803909E+02  0.13681330427E+03  0.24972277583E+03  0.17286716643E+03 0.  0.
         24    2    5    5    0    0 -0.10463956586E+03  0.23442688590E+02  0.16687471945E+03  0.21571085749E+03  0.84764400879E+02 0.  0.
          5    1    5    5  501    0 -0.66391131945E+01  0.13673115319E+02 -0.30061415177E+02  0.34011918337E+02  0.47000000000E+01 0. -1.
        -13    1    6    6    0    0  0.85394459879E+00 -0.18640820204E+02  0.47030176908E+02  0.50596906419E+02  0.00000000000E+00 0.  1.
         14    1    6    6    0    0 -0.10549351046E+03  0.42083508794E+02  0.11984454254E+03  0.16511395107E+03  0.00000000000E+00 0. -1.
         -5    1    3    3    0  503  0.81006096700E+02 -0.72967238762E+02 -0.29230889506E+03  0.31201407943E+03  0.47000000000E+01 0.  1.
         13    1    4    4    0    0  0.28924905980E+02 -0.10088142562E+02 -0.33231855635E+02  0.45197091005E+02  0.00000000000E+00 0. -1.
        -14    1    4    4    0    0  0.13476763759E+01  0.45939577416E+02 -0.26240912734E+03  0.26640347429E+03  0.00000000000E+00 0.  1.
</event>
<event>
12    1  0.8691829E-002  0.2069740E+03  0.7818608E-02  0.1144173E+00
         21   -1    0    0  501  502  0.00000000000E+00  0.00000000000E+00  0.70295924014E+02  0.70295924014E+02  0.00000000000E+00 0. -1.
         21   -1    0    0  502  503 -0.00000000000E+00 -0.00000000000E+00 -0.65439667076E+03  0.65439667076E+03  0.00000000000E+00 0. -1.
         -6    2    1    2    0  503 -0.96679851937E+02 -0.59609094265E+02 -0.38930009353E+03  0.44046463418E+03  0.17191362148E+03 0.  0.
        -24    2    3    3    0    0 -0.94589595868E+02 -0.24177932565E+02 -0.38405896473E+03  0.40428044121E+03  0.80060119198E+02 0.  0.
          6    2    1    2  501    0  0.96679851937E+02  0.59609094265E+02 -0.19480065322E+03  0.28422796060E+03  0.17302601308E+03 0.  0.
         24    2    5    5    0    0  0.46962946937E+02  0.31698564827E+02 -0.20438953773E+03  0.22622102134E+03  0.78680048075E+02 0.  0.
          5    1    5    5  501    0  0.49716905000E+02  0.27910529437E+02  0.95888845084E+01  0.58006939260E+02  0.47000000000E+01 0. -1.
        -13    1    6    6    0    0  0.56963026801E+01  0.50801618834E+02 -0.11790336459E+03  0.12850858229E+03  0.00000000000E+00 0.  1.
         14    1    6    6    0    0  0.41266644257E+02 -0.19103054007E+02 -0.86486173137E+02  0.97712439047E+02  0.00000000000E+00 0. -1.
         -5    1    3    3    0  503 -0.20902560688E+01 -0.35431161700E+02 -0.52411287998E+01  0.36184192970E+02  0.47000000000E+01 0.  1.
         11    1    4    4    0    0 -0.80344861787E+02 -0.39262041307E+02 -0.36602663861E+03  0.37679212422E+03  0.00000000000E+00 0. -1.
        -12    1    4    4    0    0 -0.14244734080E+02  0.15084108743E+02 -0.18032326120E+02  0.27488316989E+02  0.00000000000E+00 0.  1.
</event>
<event>
12    1  0.8691829E-002  0.1810076E+03  0.7818608E-02  0.1167237E+00
         21   -1    0    0  503  502  0.00000000000E+00  0.00000000000E+00  0.10524851794E+03  0.10524851794E+03  0.00000000000E+00 0. -1.
         21   -1    0    0  501  503 -0.00000000000E+00 -0.00000000000E+00 -0.30876623876E+03  0.30876623876E+03  0.00000000000E+00 0. -1.
          6    2    1    2  501    0  0.28845026882E+02  0.43039241579E+02 -0.10823173300E+03  0.20945870540E+03  0.17168118519E+03 0.  0.
         24    2    3    3    0    0  0.38141002739E+02 -0.38481443564E+02 -0.85636441329E+02  0.12422564562E+03  0.71852998256E+02 0.  0.
         -6    2    1    2    0  502 -0.28845026882E+02 -0.43039241579E+02 -0.95285987819E+02  0.20455605130E+03  0.17343398386E+03 0.  0.
        -24    2    5    5    0    0  0.34117031171E+02  0.20087140745E+02 -0.32936340389E+02  0.95658257781E+02  0.80611628964E+02 0.  0.
          5    1    3    3  501    0 -0.92959758570E+01  0.81520685143E+02 -0.22595291670E+02  0.85233059777E+02  0.47000000000E+01 0. -1.
        -13    1    4    4    0    0  0.19763378005E+02 -0.16973706227E+02  0.73192090695E+01  0.27060462573E+02  0.00000000000E+00 0.  1.
         14    1    4    4    0    0  0.18377624733E+02 -0.21507737337E+02 -0.92955650399E+02  0.97165183050E+02  0.00000000000E+00 0. -1.
         -5    1    5    5    0  502 -0.62962058052E+02 -0.63126382324E+02 -0.62349647430E+02  0.10889779352E+03  0.47000000000E+01 0.  1.
         13    1    6    6    0    0  0.38158974856E+01  0.19940283396E+02  0.23833111406E+02  0.31308036905E+02  0.00000000000E+00 0. -1.
        -14    1    6    6    0    0  0.30301133685E+02  0.14685734924E+00 -0.56769451795E+02  0.64350220876E+02  0.00000000000E+00 0.  1.
</event>
<event>
12    1  0.8691829E-002  0.1790745E+03  0.7818608E-02  0.1168720E+00
         21   -1    0    0  501  502  0.00000000000E+00  0.00000000000E+00  0.73459491468E+03  0.73459491468E+03  0.00000000000E+00 0.  1.
         21   -1    0    0  502  503 -0.00000000000E+00 -0.00000000000E+00 -0.43970163677E+02  0.43970163677E+02  0.00000000000E+00 0.  1.
         -6    2    1    2    0  503  0.39219015560E+02  0.25555767814E+02  0.37921952352E+03  0.41934243429E+03  0.17276979403E+03 0.  0.
        -24    2    3    3    0    0 -0.13922339175E+02  0.44640969109E+02  0.33605106064E+03  0.34811143908E+03  0.77875612425E+02 0.  0.
          6    2    1    2  501    0 -0.39219015560E+02 -0.25555767814E+02  0.31140522749E+03  0.35922264407E+03  0.17284809474E+03 0.  0.
         24    2    5    5    0    0  0.26847658340E+02  0.31111814188E+02  0.18427902136E+03  0.20508250480E+03  0.80070808163E+02 0.  0.
          5    1    5    5  501    0 -0.66066673900E+02 -0.56667582002E+02  0.12712620612E+03  0.15414013927E+03  0.47000000000E+01 0. -1.
        -11    1    6    6    0    0 -0.24522861074E+02  0.29269084404E+02  0.88367469610E+02  0.96264529824E+02  0.00000000000E+00 0.  1.
         12    1    6    6    0    0  0.51370519414E+02  0.18427297838E+01  0.95911551755E+02  0.10881797498E+03  0.00000000000E+00 0. -1.
         -5    1    3    3    0  503  0.53141354735E+02 -0.19085201295E+02  0.43168462879E+02  0.71230995212E+02  0.47000000000E+01 0.  1.
         11    1    4    4    0    0  0.12025564142E+02  0.23338946892E+02  0.28965834005E+03  0.29084579178E+03  0.00000000000E+00 0. -1.
        -12    1    4    4    0    0 -0.25947903317E+02  0.21302022217E+02  0.46392720586E+02  0.57265647298E+02  0.00000000000E+00 0.  1.
</event>
<event>
12    1  0.8691829E-002  0.2249070E+03  0.7818608E-02  0.1130379E+00
         21   -1    0    0  501  502  0.00000000000E+00  0.00000000000E+00  0.18609625359E+04  0.18609625359E+04  0.00000000000E+00 0. -1.
         21   -1    0    0  502  503 -0.00000000000E+00 -0.00000000000E+00 -0.27330058690E+02  0.27330058690E+02  0.00000000000E+00 0.  1.
         -6    2    1    2    0  503  0.40462456607E+02 -0.13896815272E+03  0.83155920850E+03  0.86129017214E+03  0.17140795060E+03 0.  0.
        -24    2    3    3    0    0  0.71659794302E+02 -0.79369360831E+02  0.70928965569E+03  0.72165771382E+03  0.79141763244E+02 0.  0.
          6    2    1    2  501    0 -0.40462456607E+02  0.13896815272E+03  0.10020732687E+04  0.10270024225E+04  0.17214465422E+03 0.  0.
         24    2    5    5    0    0 -0.28095860026E+02  0.30657337418E+02  0.70160217113E+03  0.70733206739E+03  0.79647958734E+02 0.  0.
          5    1    5    5  501    0 -0.12366596581E+02  0.10831081530E+03  0.30047109759E+03  0.31967035506E+03  0.47000000000E+01 0. -1.
        -11    1    6    6    0    0  0.22378484745E+02 -0.96814578644E+01  0.23871747384E+03  0.23995949559E+03  0.00000000000E+00 0.  1.
         12    1    6    6    0    0 -0.50474344771E+02  0.40338795283E+02  0.46288469729E+03  0.46737257180E+03  0.00000000000E+00 0. -1.
         -5    1    3    3    0  503 -0.31197337695E+02 -0.59598791886E+02  0.12226955281E+03  0.13963245832E+03  0.47000000000E+01 0.  1.
         11    1    4    4    0    0  0.38604761108E+02  0.47068663026E+01  0.30039799283E+03  0.30290499544E+03  0.00000000000E+00 0. -1.
        -12    1    4    4    0    0  0.33055033194E+02 -0.84076227134E+02  0.40889166287E+03  0.41875271838E+03  0.00000000000E+00 0.  1.
</event>
<event>
12    1  0.8691829E-002  0.1751736E+03  0.7818608E-02  0.1173936E+00
         21   -1    0    0  503  502  0.00000000000E+00  0.00000000000E+00  0.45090990836E+02  0.45090990836E+02  0.00000000000E+00 0.  1.
         21   -1    0    0  501  503 -0.00000000000E+00 -0.00000000000E+00 -0.67074812322E+03  0.67074812322E+03  0.00000000000E+00 0.  1.
          6    2    1    2  501    0  0.31163423464E+02 -0.14698854633E+02 -0.36361602720E+03  0.40361172025E+03  0.17175153623E+03 0.  0.
         24    2    3    3    0    0  0.70169144177E+02  0.33887762986E+02 -0.25762444693E+03  0.28057347112E+03  0.79240316551E+02 0.  0.
         -6    2    1    2    0  502 -0.31163423464E+02  0.14698854633E+02 -0.26204110518E+03  0.31222739381E+03  0.16623233545E+03 0.  0.
        -24    2    5    5    0    0 -0.32182787692E+02 -0.14316981161E+02 -0.26820555784E+03  0.28217663164E+03  0.80303937734E+02 0.  0.
          5    1    3    3  501    0 -0.39005720713E+02 -0.48586617619E+02 -0.10599158027E+03  0.12303824913E+03  0.47000000000E+01 0. -1.
        -11    1    4    4    0    0  0.37062047877E+02  0.61630831987E+01 -0.27826896391E+02  0.46753771507E+02  0.00000000000E+00 0.  1.
         12    1    4    4    0    0  0.33107096299E+02  0.27724679787E+02 -0.22979755054E+03  0.23381969961E+03  0.00000000000E+00 0. -1.
         -5    1    5    5    0  502  0.10193642279E+01  0.29015835794E+02  0.61644526539E+01  0.30050762166E+02  0.47000000000E+01 0.  1.
         11    1    6    6    0    0  0.81600670629E+01 -0.25850262023E+02 -0.30538232341E+02  0.40833887590E+02  0.00000000000E+00 0. -1.
        -12    1    6    6    0    0 -0.40342854755E+02  0.11533280862E+02 -0.23766732550E+03  0.24134274405E+03  0.00000000000E+00 0.  1.
</event>
<event>
12    1  0.8691829E-002  0.1932263E+03  0.7818608E-02  0.1155641E+00
         21   -1    0    0  501  502  0.00000000000E+00  0.00000000000E+00  0.42484712767E+03  0.42484712767E+03  0.00000000000E+00 0.  1.
         21   -1    0    0  502  503 -0.00000000000E+00 -0.00000000000E+00 -0.92490242250E+02  0.92490242250E+02  0.00000000000E+00 0.  1.
         -6    2    1    2    0  503  0.26879372950E+02 -0.85184521035E+02  0.10781002816E+03  0.22126768805E+03  0.17134025881E+03 0.  0.
        -24    2    3    3    0    0 -0.30240578125E+02 -0.49653324546E+02  0.11784872397E+03  0.15309129809E+03  0.78540935855E+02 0.  0.
          6    2    1    2  501    0 -0.26879372950E+02  0.85184521035E+02  0.22454685726E+03  0.29606968187E+03  0.17104695876E+03 0.  0.
         24    2    5    5    0    0  0.27207764124E+02  0.10313872079E+03  0.18113656754E+03  0.22427612408E+03  0.78175863148E+02 0.  0.
          5    1    5    5  501    0 -0.54087137074E+02 -0.17954199756E+02  0.43410289720E+02  0.71793557785E+02  0.47000000000E+01 0. -1.
        -13    1    6    6    0    0  0.99554670581E+01 -0.80422524301E+01  0.49407590718E+02  0.51038212831E+02  0.00000000000E+00 0.  1.
         14    1    6    6    0    0  0.17252297066E+02  0.11118097322E+03  0.13172897682E+03  0.17323791125E+03  0.00000000000E+00 0. -1.
         -5    1    3    3    0  503  0.57119951075E+02 -0.35531196488E+02 -0.10038695811E+02  0.68176389962E+02  0.47000000000E+01 0.  1.
         13    1    4    4    0    0  0.98466034214E+01  0.15266798248E+02  0.40774075865E+02  0.44638055405E+02  0.00000000000E+00 0. -1.
        -14    1    4    4    0    0 -0.40087181546E+02 -0.64920122794E+02  0.77074648106E+02  0.10845324268E+03  0.00000000000E+00 0.  1.
</event>
<event>
12    1  0.8691829E-002  0.2151594E+03  0.7818608E-02  0.1139020E+00
         21   -1    0    0  503  502  0.00000000000E+00  0.00000000000E+00  0.88068387347E+02  0.88068387347E+02  0.00000000000E+00 0.  1.
         21   -1    0    0  501  503 -0.00000000000E+00 -0.00000000000E+00 -0.70158475120E+03  0.70158475120E+03  0.00000000000E+00 0. -1.
          6    2    1    2  501    0 -0.10885660438E+03 -0.72080333711E+02 -0.51842194212E+03  0.56129750779E+03  0.17102118980E+03 0.  0.
         24    2    3    3    0    0 -0.53709584286E+02 -0.30004504094E+02 -0.12034878640E+03  0.15719863801E+03  0.80265756660E+02 0.  0.
         -6    2    1    2    0  502  0.10885660438E+03  0.72080333711E+02 -0.95094421740E+02  0.22835563076E+03  0.16142493682E+03 0.  0.
        -24    2    5    5    0    0  0.94567644363E+02  0.11613947170E+02 -0.12050432716E+02  0.12453486023E+03  0.79283007983E+02 0.  0.
          5    1    3    3  501    0 -0.55147020096E+02 -0.42075829617E+02 -0.39807315571E+03  0.40409886978E+03  0.47000000000E+01 0. -1.
        -11    1    4    4    0    0 -0.31139789987E+01  0.43713887704E+01  0.11036351310E+02  0.12272202542E+02  0.00000000000E+00 0.  1.
         12    1    4    4    0    0 -0.50595605287E+02 -0.34375892865E+02 -0.13138513771E+03  0.14492643547E+03  0.00000000000E+00 0. -1.
         -5    1    5    5    0  502  0.14288960019E+02  0.60466386541E+02 -0.83043989024E+02  0.10382077053E+03  0.47000000000E+01 0.  1.
         11    1    6    6    0    0  0.49712054678E+01  0.41552560358E+00  0.26056277163E+02  0.26529514223E+02  0.00000000000E+00 0. -1.
        -12    1    6    6    0    0  0.89596438895E+02  0.11198421567E+02 -0.38106709879E+02  0.98005346008E+02  0.00000000000E+00 0.  1.
</event>
<event>
12    1  0.8691829E-002  0.1890888E+03  0.7818608E-02  0.1159472E+00
         21   -1    0    0  503  502  0.00000000000E+00  0.00000000000E+00  0.16268967551E+03  0.16268967551E+03  0.00000000000E+00 0. -1.
         21   -1    0    0  501  503 -0.00000000000E+00 -0.00000000000E+00 -0.23945196513E+03  0.23945196513E+03  0.00000000000E+00 0. -1.
          6    2    1    2  501    0  0.77942580991E+02  0.84197447713E+01  0.20715634108E+02  0.18940584903E+03  0.17117096751E+03 0.  0.
         24    2    3    3    0    0  0.17486949342E+02  0.49849155101E+01 -0.50576643293E+02  0.95750308527E+02  0.79243182396E+02 0.  0.
         -6    2    1    2    0  502 -0.77942580991E+02 -0.84197447713E+01 -0.97477923729E+02  0.21273579160E+03  0.17207159377E+03 0.  0.
        -24    2    5    5    0    0 -0.83703441639E+02  0.48817934027E+02 -0.87408306794E+02  0.15414546327E+03  0.82043615985E+02 0.  0.
          5    1    3    3  501    0  0.60455631649E+02  0.34348292612E+01  0.71292277401E+02  0.93655540504E+02  0.47000000000E+01 0. -1.
        -13    1    4    4    0    0 -0.24699369959E+02 -0.19789370943E+02 -0.26220819030E+02  0.41099993057E+02  0.00000000000E+00 0.  1.
         14    1    4    4    0    0  0.42186319301E+02  0.24774286453E+02 -0.24355824263E+02  0.54650315470E+02  0.00000000000E+00 0. -1.
         -5    1    5    5    0  502  0.57608606477E+01 -0.57237678798E+02 -0.10069616934E+02  0.58590328338E+02  0.47000000000E+01 0.  1.
         13    1    6    6    0    0 -0.69508080019E+02  0.37365089379E+01 -0.21136984776E+02  0.72746868059E+02  0.00000000000E+00 0. -1.
        -14    1    6    6    0    0 -0.14195361620E+02  0.45081425089E+02 -0.66271322018E+02  0.81398595207E+02  0.00000000000E+00 0.  1.
</event>
<event>
12    1  0.8691829E-002  0.2206361E+03  0.7818608E-02  0.1134220E+00
         21   -1    0    0  503  502  0.00000000000E+00  0.00000000000E+00  0.83736839152E+02  0.83736839152E+02  0.00000000000E+00 0.  1.
         21   -1    0    0  501  503 -0.00000000000E+00 -0.00000000000E+00 -0.57967331936E+03  0.57967331936E+03  0.00000000000E+00 0. -1.
          6    2    1    2  501    0  0.33628461835E+02 -0.13363909444E+03 -0.29315747127E+03  0.36690813384E+03  0.17230784865E+03 0.  0.
         24    2    3    3    0    0  0.35340327009E+02 -0.28128391949E+02 -0.22107545365E+03  0.23902793174E+03  0.78866030716E+02 0.  0.
         -6    2    1    2    0  502 -0.33628461835E+02  0.13363909444E+03 -0.20277900894E+03  0.29650202467E+03  0.16674484448E+03 0.  0.
        -24    2    5    5    0    0 -0.43308117309E+02  0.14671613415E+03 -0.21490716483E+03  0.27567207357E+03  0.80054891199E+02 0.  0.
          5    1    3    3  501    0 -0.17118651736E+01 -0.10551070249E+03 -0.72082017618E+02  0.12788020209E+03  0.47000000000E+01 0. -1.
        -13    1    4    4    0    0  0.95752760864E+01 -0.17135458524E+02 -0.38494132767E+01  0.20003195583E+02  0.00000000000E+00 0.  1.
         14    1    4    4    0    0  0.25765050923E+02 -0.10992933425E+02 -0.21722604037E+03  0.21902473616E+03  0.00000000000E+00 0. -1.
         -5    1    5    5    0  502  0.96796554732E+01 -0.13077039705E+02  0.12128155896E+02  0.20829951103E+02  0.47000000000E+01 0.  1.
         11    1    6    6    0    0 -0.16044717635E+02 -0.52063183896E+01 -0.11864327716E+02  0.20622826851E+02  0.00000000000E+00 0. -1.
        -12    1    6    6    0    0 -0.27263399673E+02  0.15192245254E+03 -0.20304283712E+03  0.25504924672E+03  0.00000000000E+00 0.  1.
</event>
<event>
12    1  0.8691829E-002  0.2382979E+03  0.7818608E-02  0.1122610E+00
         21   -1    0    0  503  502  0.00000000000E+00  0.00000000000E+00  0.36237126523E+02  0.36237126523E+02  0.00000000000E+00 0.  1.
         21   -1    0    0  501  503 -0.00000000000E+00 -0.00000000000E+00 -0.15178088875E+04  0.15178088875E+04  0.00000000000E+00 0.  1.
          6    2    1    2  501    0 -0.96403249411E+02  0.11440751535E+03 -0.83149800813E+03  0.86497100546E+03  0.18548109528E+03 0.  0.
         24    2    3    3    0    0 -0.65437047827E+02  0.63246219881E+02 -0.22223309043E+03  0.25276008288E+03  0.78854432070E+02 0.  0.
         -6    2    1    2    0  502  0.96403249411E+02 -0.11440751535E+03 -0.65007375289E+03  0.68907500860E+03  0.17275942005E+03 0.  0.
        -24    2    5    5    0    0  0.13072562542E+03 -0.70976723295E+02 -0.54064144841E+03  0.56634857112E+03  0.79565343443E+02 0.  0.
          5    1    3    3  501    0 -0.30966201584E+02  0.51161295469E+02 -0.60926491770E+03  0.61221092258E+03  0.47000000000E+01 0. -1.
        -11    1    4    4    0    0 -0.30133908319E+02 -0.14341299040E+02 -0.83628774588E+02  0.90041641632E+02  0.00000000000E+00 0.  1.
         12    1    4    4    0    0 -0.35303139509E+02  0.77587518922E+02 -0.13860431584E+03  0.16271844125E+03  0.00000000000E+00 0. -1.
         -5    1    5    5    0  502 -0.34322376006E+02 -0.43430792055E+02 -0.10943230447E+03  0.12272643748E+03  0.47000000000E+01 0.  1.
         11    1    6    6    0    0  0.17263199515E+02 -0.30479045106E+02 -0.23876234702E+03  0.24131814810E+03  0.00000000000E+00 0. -1.
        -12    1    6    6    0    0  0.11346242590E+03 -0.40497678189E+02 -0.30187910139E+03  0.32503042302E+03  0.00000000000E+00 0.  1.
</event>
<event>
12    1  0.8691829E-002  0.1936467E+03  0.7818608E-02  0.1155289E+00
         21   -1    0    0  503  502  0.00000000000E+00  0.00000000000E+00  0.45526543364E+02  0.45526543364E+02  0.00000000000E+00 0. -1.
         21   -1    0    0  501  503 -0.00000000000E+00 -0.00000000000E+00 -0.11994253065E+04  0.11994253065E+04  0.00000000000E+00 0. -1.
          6    2    1    2  501    0  0.89301632196E+02 -0.14087184886E+02 -0.92568542272E+03  0.94565203132E+03  0.17085383290E+03 0.  0.
         24    2    3    3    0    0  0.19166633146E+02 -0.81611990110E+01 -0.20118925484E+03  0.21772976716E+03  0.80592619054E+02 0.  0.
         -6    2    1    2    0  502 -0.89301632196E+02  0.14087184886E+02 -0.22821334044E+03  0.29929981857E+03  0.17124783896E+03 0.  0.
        -24    2    5    5    0    0 -0.10019856996E+03 -0.10065562710E+02 -0.23819404395E+03  0.27059785154E+03  0.79660063477E+02 0.  0.
          5    1    3    3  501    0  0.70134999050E+02 -0.59259858747E+01 -0.72449616787E+03  0.72792226416E+03  0.47000000000E+01 0. -1.
        -11    1    4    4    0    0  0.49062592115E+02 -0.17181697448E+02 -0.12850510942E+03  0.13862146955E+03  0.00000000000E+00 0.  1.
         12    1    4    4    0    0 -0.29895958969E+02  0.90204984373E+01 -0.72684145425E+02  0.79108297611E+02  0.00000000000E+00 0. -1.
         -5    1    5    5    0  502  0.10896937760E+02  0.24152747596E+02  0.99807035008E+01  0.28701967030E+02  0.47000000000E+01 0.  1.
         11    1    6    6    0    0 -0.51978114756E+02  0.23359161235E+02 -0.17644667039E+03  0.18542060920E+03  0.00000000000E+00 0. -1.
        -12    1    6    6    0    0 -0.48220455200E+02 -0.33424723945E+02 -0.61747373559E+02  0.85177242336E+02  0.00000000000E+00 0.  1.
</event>
<event>
12    1  0.8691829E-002  0.1886214E+03  0.7818608E-02  0.1161939E+00
         21   -1    0    0  503  502  0.00000000000E+00  0.00000000000E+00  0.50292517550E+03  0.50292517550E+03  0.00000000000E+00 0. -1.
         21   -1    0    0  501  503 -0.00000000000E+00 -0.00000000000E+00 -0.18971374994E+03  0.18971374994E+03  0.00000000000E+00 0.  1.
          6    2    1    2  501    0 -0.80178953227E+02  0.15810196779E+02 -0.12021003073E+03  0.22367047942E+03  0.16999825003E+03 0.  0.
         24    2    3    3    0    0 -0.61720905894E+02 -0.34360213693E+02 -0.20179633972E+02  0.11015422564E+03  0.82077044835E+02 0.  0.
         -6    2    1    2    0  502  0.80178953227E+02 -0.15810196779E+02  0.43342145630E+03  0.46896844602E+03  0.15936943785E+03 0.  0.
        -24    2    5    5    0    0  0.18839876011E+02  0.44246658266E+02  0.23146090655E+03  0.24947024128E+03  0.79677740459E+02 0.  0.
          5    1    3    3  501    0 -0.18458047333E+02  0.50170410472E+02 -0.10003039676E+03  0.11351625379E+03  0.47000000000E+01 0. -1.
        -11    1    4    4    0    0  0.18710759706E+02 -0.13731164777E+01 -0.13203492827E+02  0.22941451577E+02  0.00000000000E+00 0.  1.
         12    1    4    4    0    0 -0.80431665600E+02 -0.32987097215E+02 -0.69761411452E+01  0.87212774059E+02  0.00000000000E+00 0. -1.
         -5    1    5    5    0  502  0.61339077216E+02 -0.60056855045E+02  0.20196054974E+03  0.21949820474E+03  0.47000000000E+01 0.  1.
         13    1    6    6    0    0 -0.63494294082E+01  0.47358528424E+02  0.21245523426E+03  0.21776219147E+03  0.00000000000E+00 0. -1.
        -14    1    6    6    0    0  0.25189305419E+02 -0.31118701580E+01  0.19005672291E+02  0.31708049808E+02  0.00000000000E+00 0.  1.
</event>
<event>
12    1  0.8691829E-002  0.1837038E+03  0.7818608E-02  0.1164292E+00
         21   -1    0    0  503  502  0.00000000000E+00  0.00000000000E+00  0.17657158034E+04  0.17657158034E+04  0.00000000000E+00 0.  1.
         21   -1    0    0  501  503 -0.00000000000E+00 -0.00000000000E+00 -0.29258465539E+02  0.29258465539E+02  0.00000000000E+00 0.  1.
          6    2    1    2  501    0  0.56648353482E+02  0.34549625478E+02  0.33959161384E+03  0.38609524049E+03  0.17130194968E+03 0.  0.
         24    2    3    3    0    0  0.96201609513E+02  0.10160682319E+02  0.18230150560E+03  0.22201736641E+03  0.81852812456E+02 0.  0.
         -6    2    1    2    0  502 -0.56648353482E+02 -0.34549625478E+02  0.13968657240E+04  0.14088790285E+04  0.17118280664E+03 0.  0.
        -24    2    5    5    0    0 -0.45460061321E+02  0.10570224650E+02  0.38851080824E+03  0.39944220282E+03  0.80218940721E+02 0.  0.
          5    1    3    3  501    0 -0.39553256032E+02  0.24388943159E+02  0.15729010824E+03  0.16407787407E+03  0.47000000000E+01 0. -1.
        -13    1    4    4    0    0  0.26295176180E+02  0.31238394751E+02  0.23202759914E+02  0.46964259439E+02  0.00000000000E+00 0.  1.
         14    1    4    4    0    0  0.69906433333E+02 -0.21077712432E+02  0.15909874568E+03  0.17505310697E+03  0.00000000000E+00 0. -1.
         -5    1    5    5    0  502 -0.11188292161E+02 -0.45119850128E+02  0.10083549158E+04  0.10094368256E+04  0.47000000000E+01 0.  1.
         13    1    6    6    0    0  0.82012497799E+01  0.21910471218E+02  0.37694604923E+02  0.44364540877E+02  0.00000000000E+00 0. -1.
        -14    1    6    6    0    0 -0.53661311101E+02 -0.11340246569E+02  0.35081620331E+03  0.35507766194E+03  0.00000000000E+00 0.  1.
</event>
<event>
12    1  0.8691829E-002  0.2154492E+03  0.7818608E-02  0.1137345E+00
         21   -1    0    0  501  502  0.00000000000E+00  0.00000000000E+00  0.93268365714E+03  0.93268365714E+03  0.00000000000E+00 0.  1.
         21   -1    0    0  502  503 -0.00000000000E+00 -0.00000000000E+00 -0.17100613562E+03  0.17100613562E+03  0.00000000000E+00 0. -1.
         -6    2    1    2    0  503  0.45995687151E+02  0.12154998536E+03 -0.83837193659E+02  0.23118613177E+03  0.17183815148E+03 0.  0.
        -24    2    3    3    0    0 -0.27401629459E+01  0.49510239381E+01 -0.39189021754E+00  0.79674714527E+02  0.79472545109E+02 0.  0.
          6    2    1    2  501    0 -0.45995687151E+02 -0.12154998536E+03  0.84551471518E+03  0.87250366099E+03  0.17169013565E+03 0.  0.
         24    2    5    5    0    0  0.13991035645E+02 -0.10948844849E+03  0.71485585766E+03  0.72815091723E+03  0.83674318642E+02 0.  0.
          5    1    5    5  501    0 -0.59986722796E+02 -0.12061536871E+02  0.13065885753E+03  0.14435274377E+03  0.47000000000E+01 0. -1.
        -13    1    6    6    0    0 -0.11583457050E+02 -0.49436537963E+02  0.52376126415E+03  0.52621669451E+03  0.00000000000E+00 0.  1.
         14    1    6    6    0    0  0.25574492695E+02 -0.60051910523E+02  0.19109459351E+03  0.20193422271E+03  0.00000000000E+00 0. -1.
         -5    1    3    3    0  503  0.48735850097E+02  0.11659896142E+03 -0.83445303441E+02  0.15151141724E+03  0.47000000000E+01 0.  1.
         11    1    4    4    0    0  0.40318244846E+01 -0.17891768146E+02 -0.33909702052E+02  0.38551768692E+02  0.00000000000E+00 0. -1.
        -12    1    4    4    0    0 -0.67719874306E+01  0.22842792084E+02  0.33517811834E+02  0.41122945835E+02  0.00000000000E+00 0.  1.
</event>
<event>
12    1  0.8691829E-002  0.2333632E+03  0.7818608E-02  0.1124333E+00
         21   -1    0    0  503  502  0.00000000000E+00  0.00000000000E+00  0.18913124598E+03  0.18913124598E+03  0.00000000000E+00 0.  1.
         21   -1    0    0  501  503 -0.00000000000E+00 -0.00000000000E+00 -0.29392932999E+03  0.29392932999E+03  0.00000000000E+00 0. -1.
          6    2    1    2  501    0  0.15645276079E+03 -0.10506872121E+02 -0.87670280909E+02  0.24928790819E+03  0.17283090665E+03 0.  0.
         24    2    3    3    0    0  0.99819381275E+02  0.36821970105E+02 -0.10972280703E+03  0.17211431885E+03  0.79148455518E+02 0.  0.
         -6    2    1    2    0  502 -0.15645276079E+03  0.10506872121E+02 -0.17127803100E+02  0.23377266778E+03  0.17253532346E+03 0.  0.
        -24    2    5    5    0    0 -0.68311311039E+02 -0.48199541252E+02 -0.48124892799E+02  0.12332689962E+03  0.76836761190E+02 0.  0.
          5    1    3    3  501    0  0.56633379518E+02 -0.47328842226E+02  0.22052526125E+02  0.77173589333E+02  0.47000000000E+01 0. -1.
        -13    1    4    4    0    0  0.73936974391E+01  0.37379908236E+02 -0.46568954404E+02  0.60171353781E+02  0.00000000000E+00 0.  1.
         14    1    4    4    0    0  0.92425683836E+02 -0.55793813065E+00 -0.63153852630E+02  0.11194296507E+03  0.00000000000E+00 0. -1.
         -5    1    5    5    0  502 -0.88141449754E+02  0.58706413373E+02  0.30997089698E+02  0.11044576817E+03  0.47000000000E+01 0.  1.
         11    1    6    6    0    0 -0.35215939949E+02 -0.41423346894E+02  0.10774814289E+02  0.55427003503E+02  0.00000000000E+00 0. -1.
        -12    1    6    6    0    0 -0.33095371090E+02 -0.67761943580E+01 -0.58899707088E+02  0.67899896117E+02  0.00000000000E+00 0.  1.
</event>
<event>
12    1  0.8691829E-002  0.1740884E+03  0.7818608E-02  0.1173734E+00
         21   -1    0    0  501  502  0.00000000000E+00  0.00000000000E+00  0.22582731515E+02  0.22582731515E+02  0.00000000000E+00 0.  1.
         21   -1    0    0  502  503 -0.00000000000E+00 -0.00000000000E+00 -0.13853414854E+04  0.13853414854E+04  0.00000000000E+00 0.  1.
         -6    2    1    2    0  503  0.55703116323E+01 -0.24457453497E+02 -0.81011636849E+03  0.82861045865E+03  0.17227178033E+03 0.  0.
        -24    2    3    3    0    0  0.70453472305E+02 -0.11514047786E+02 -0.53598087347E+03  0.54656486674E+03  0.79758333558E+02 0.  0.
          6    2    1    2  501    0 -0.55703116323E+01  0.24457453497E+02 -0.55264238536E+03  0.57931375823E+03  0.17193495563E+03 0.  0.
         24    2    5    5    0    0 -0.60605324288E+02  0.16251055228E+02 -0.37195853650E+03  0.39019754837E+03  0.99819195301E+02 0.  0.
          5    1    5    5  501    0  0.55035012656E+02  0.82063982692E+01 -0.18068384886E+03  0.18911620986E+03  0.47000000000E+01 0. -1.
        -13    1    6    6    0    0  0.13059796168E+02  0.30882591122E+02 -0.54604786356E+02  0.64077885447E+02  0.00000000000E+00 0.  1.
         14    1    6    6    0    0 -0.73665120456E+02 -0.14631535895E+02 -0.31735375014E+03  0.32611966292E+03  0.00000000000E+00 0. -1.
         -5    1    3    3    0  503 -0.64883160673E+02 -0.12943405711E+02 -0.27413549501E+03  0.28204559191E+03  0.47000000000E+01 0.  1.
         13    1    4    4    0    0  0.37091835688E+02 -0.12262281242E+02 -0.76724279209E+02  0.86097519338E+02  0.00000000000E+00 0. -1.
        -14    1    4    4    0    0  0.33361636617E+02  0.74823345543E+00 -0.45925659426E+03  0.46046734740E+03  0.00000000000E+00 0.  1.
</event>
<event>
12    1  0.8691829E-002  0.1787124E+03  0.7818608E-02  0.1169361E+00
         21   -1    0    0  503  502  0.00000000000E+00  0.00000000000E+00  0.26922947096E+03  0.26922947096E+03  0.00000000000E+00 0. -1.
         21   -1    0    0  501  503 -0.00000000000E+00 -0.00000000000E+00 -0.30299434667E+03  0.30299434667E+03  0.00000000000E+00 0. -1.
          6    2    1    2  501    0 -0.40761397502E+02  0.19285218687E+02 -0.24058685287E+03  0.29970010904E+03  0.17292978459E+03 0.  0.
         24    2    3    3    0    0  0.35952577848E+02 -0.72957842553E+01 -0.18334289037E+03  0.20024888997E+03  0.71688117319E+02 0.  0.
         -6    2    1    2    0  502  0.40761397502E+02 -0.19285218687E+02  0.20682197716E+03  0.27252370859E+03  0.17164040993E+03 0.  0.
        -24    2    5    5    0    0 -0.33250229126E+01  0.46185815285E+02  0.14713404216E+03  0.17345399405E+03  0.79332694263E+02 0.  0.
          5    1    3    3  501    0 -0.76713975349E+02  0.26581002943E+02 -0.57243962499E+02  0.99451219067E+02  0.47000000000E+01 0. -1.
        -11    1    4    4    0    0  0.31973199677E+02  0.97238596922E+01 -0.27085605513E+02  0.43017077666E+02  0.00000000000E+00 0.  1.
         12    1    4    4    0    0  0.39793781701E+01 -0.17019643947E+02 -0.15625728486E+03  0.15723181231E+03  0.00000000000E+00 0. -1.
         -5    1    5    5    0  502  0.44086420414E+02 -0.65471033972E+02  0.59687934993E+02  0.99069714535E+02  0.47000000000E+01 0.  1.
         13    1    6    6    0    0  0.24084279945E+02 -0.59351044986E+01  0.81888739656E+02  0.85563097702E+02  0.00000000000E+00 0. -1.
        -14    1    6    6    0    0 -0.27409302858E+02  0.52120919784E+02  0.65245302507E+02  0.87890896352E+02  0.00000000000E+00 0.  1.
</event>
<event>
12    1  0.8691829E-002  0.3906757E+03  0.7818608E-02  0.1047112E+00
         21   -1    0    0  501  502  0.00000000000E+00  0.00000000000E+00  0.15321129685E+04  0.15321129685E+04  0.00000000000E+00 0. -1.
         21   -1    0    0  502  503 -0.00000000000E+00 -0.00000000000E+00 -0.10161639614E+03  0.10161639614E+03  0.00000000000E+00 0. -1.
         -6    2    1    2    0  503  0.32225765318E+03  0.13744018896E+03  0.59574417622E+03  0.71207916305E+03  0.17148122454E+03 0.  0.
        -24    2    3    3    0    0  0.53866964800E+02  0.37549999751E+02  0.13642383983E+03  0.17077622297E+03  0.79002543512E+02 0.  0.
          6    2    1    2  501    0 -0.32225765318E+03 -0.13744018896E+03  0.83475239616E+03  0.92165020161E+03  0.17288068333E+03 0.  0.
         24    2    5    5    0    0 -0.15534311537E+03 -0.10778917718E+03  0.33313715537E+03  0.39214138656E+03  0.83931594483E+02 0.  0.
          5    1    5    5  501    0 -0.16691453781E+03 -0.29651011778E+02  0.50161524078E+03  0.52950881505E+03  0.47000000000E+01 0. -1.
        -13    1    6    6    0    0 -0.41043737228E+02  0.48367179282E+01  0.37704444926E+02  0.55942893857E+02  0.00000000000E+00 0.  1.
         14    1    6    6    0    0 -0.11429937814E+03 -0.11262589511E+03  0.29543271045E+03  0.33619849270E+03  0.00000000000E+00 0. -1.
         -5    1    3    3    0  503  0.26839068838E+03  0.99890189211E+02  0.45932033639E+03  0.54130294007E+03  0.47000000000E+01 0.  1.
         11    1    4    4    0    0  0.24742759040E+01  0.49073622768E+02  0.54471425364E+02  0.73358562377E+02  0.00000000000E+00 0. -1.
        -12    1    4    4    0    0  0.51392688896E+02 -0.11523623017E+02  0.81952414465E+02  0.97417660597E+02  0.00000000000E+00 0.  1.
</event>
<event>
12    1  0.8691829E-002  0.1768272E+03  0.7818608E-02  0.1171323E+00
         21   -1    0    0  503  502  0.00000000000E+00  0.00000000000E+00  0.11076981671E+03  0.11076981671E+03  0.00000000000E+00 0. -1.
         21   -1    0    0  501  503 -0.00000000000E+00 -0.00000000000E+00 -0.38939952974E+03  0.38939952974E+03  0.00000000000E+00 0. -1.
          6    2    1    2  501    0  0.15860708136E+02 -0.36523281417E+02 -0.27256346151E+03  0.32489797197E+03  0.17228563345E+03 0.  0.
         24    2    3    3    0    0  0.74105426341E+01  0.39632049055E+02 -0.84041513675E+02  0.12134538793E+03  0.77692417235E+02 0.  0.
         -6    2    1    2    0  502 -0.15860708136E+02  0.36523281417E+02 -0.60662515220E+01  0.17527137447E+03  0.17058060603E+03 0.  0.
        -24    2    5    5    0    0  0.40926154709E+02  0.53689405386E+02 -0.33429011115E+02  0.10977149496E+03  0.79842218977E+02 0.  0.
          5    1    3    3  501    0  0.84501655021E+01 -0.76155330472E+02 -0.18852194783E+03  0.20355258405E+03  0.47000000000E+01 0. -1.
        -13    1    4    4    0    0  0.12182431409E+02  0.32487862299E+02  0.21152947284E+01  0.34761290304E+02  0.00000000000E+00 0.  1.
         14    1    4    4    0    0 -0.47718887751E+01  0.71441867559E+01 -0.86156808403E+02  0.86584097622E+02  0.00000000000E+00 0. -1.
         -5    1    5    5    0  502 -0.56786862845E+02 -0.17166123969E+02  0.27362759593E+02  0.65499879515E+02  0.47000000000E+01 0.  1.
         11    1    6    6    0    0  0.24462771165E+02  0.73525446430E+02 -0.17404835419E+02  0.79418805971E+02  0.00000000000E+00 0. -1.
        -12    1    6    6    0    0  0.16463383544E+02 -0.19836041044E+02 -0.16024175696E+02  0.30352688987E+02  0.00000000000E+00 0.  1.
</event>
<event>
12    1  0.8691829E-002  0.2515135E+03  0.7818608E-02  0.1112428E+00
         21   -1    0    0  503  502  0.00000000000E+00  0.00000000000E+00  0.19721161648E+04  0.19721161648E+04  0.00000000000E+00 0. -1.
         21   -1    0    0  501  503 -0.00000000000E+00 -0.00000000000E+00 -0.44529529870E+02  0.44529529870E+02  0.00000000000E+00 0. -1.
          6    2    1    2  501    0 -0.13890571586E+03  0.11924470471E+03  0.42859620779E+03  0.49670116868E+03  0.17176508417E+03 0.  0.
         24    2    3    3    0    0 -0.50708780214E+02  0.26486977399E+02  0.86531028506E+02  0.13144321557E+03  0.80726449589E+02 0.  0.
         -6    2    1    2    0  502  0.13890571586E+03 -0.11924470471E+03  0.14989904271E+04  0.15199445260E+04  0.17246728359E+03 0.  0.
        -24    2    5    5    0    0  0.13738272020E+03 -0.55521741031E+02  0.13025375898E+04  0.13133561844E+04  0.79646835973E+02 0.  0.
          5    1    3    3  501    0 -0.88196935643E+02  0.92757727316E+02  0.34206517928E+03  0.36525795311E+03  0.47000000000E+01 0. -1.
        -11    1    4    4    0    0  0.93360245496E+01  0.82457296855E+01 -0.10226968924E+02  0.16116584806E+02  0.00000000000E+00 0.  1.
         12    1    4    4    0    0 -0.60044804764E+02  0.18241247713E+02  0.96757997430E+02  0.11532663077E+03  0.00000000000E+00 0. -1.
         -5    1    5    5    0  502  0.15229956591E+01 -0.63722963684E+02  0.19645283728E+03  0.20658834162E+03  0.47000000000E+01 0.  1.
         11    1    6    6    0    0  0.13877249452E+03 -0.66452695595E+02  0.11244463440E+04  0.11349243792E+04  0.00000000000E+00 0. -1.
        -12    1    6    6    0    0 -0.13897743197E+01  0.10930954564E+02  0.17809124581E+03  0.17843180510E+03  0.00000000000E+00 0.  1.
</event>
<event>
12    1  0.8691829E-002  0.2036299E+03  0.7818608E-02  0.1146769E+00
         21   -1    0    0  503  502  0.00000000000E+00  0.00000000000E+00  0.48127389787E+02  0.48127389787E+02  0.00000000000E+00 0. -1.
         21   -1    0    0  501  503 -0.00000000000E+00 -0.00000000000E+00 -0.86041123778E+03  0.86041123778E+03  0.00000000000E+00 0.  1.
          6    2    1    2  501    0  0.70579588081E+02  0.78662982198E+02 -0.40390873271E+03  0.45221048649E+03  0.17373173778E+03 0.  0.
         24    2    3    3    0    0  0.59615376466E+02 -0.23587854007E+02 -0.13315991244E+03  0.16255127100E+03  0.67682888940E+02 0.  0.
         -6    2    1    2    0  502 -0.70579588081E+02 -0.78662982198E+02 -0.40837511529E+03  0.45632814108E+03  0.17405687155E+03 0.  0.
        -24    2    5    5    0    0 -0.11171720432E+03 -0.79443349894E+02 -0.35610133626E+03  0.38963818368E+03  0.78852856096E+02 0.  0.
          5    1    3    3  501    0  0.10964211615E+02  0.10225083620E+03 -0.27074882026E+03  0.28965921549E+03  0.47000000000E+01 0. -1.
        -13    1    4    4    0    0  0.51485642987E+02 -0.13944465133E+02 -0.13882841510E+03  0.14872305934E+03  0.00000000000E+00 0.  1.
         14    1    4    4    0    0  0.81297334788E+01 -0.96433888746E+01  0.56685026544E+01  0.13828211662E+02  0.00000000000E+00 0. -1.
         -5    1    5    5    0  502  0.41137616242E+02  0.78036769562E+00 -0.52273779030E+02  0.66689957399E+02  0.47000000000E+01 0.  1.
         11    1    6    6    0    0 -0.65044807627E+02 -0.85347058538E+01 -0.97964948054E+02  0.11790165075E+03  0.00000000000E+00 0. -1.
        -12    1    6    6    0    0 -0.46672396695E+02 -0.70908644040E+02 -0.25813638821E+03  0.27173653293E+03  0.00000000000E+00 0.  1.
</event>
<event>
12    1  0.8691829E-002  0.2495260E+03  0.7818608E-02  0.1113981E+00
         21   -1    0    0  503  502  0.00000000000E+00  0.00000000000E+00  0.86649172245E+03  0.86649172245E+03  0.00000000000E+00 0. -1.
         21   -1    0    0  501  503 -0.00000000000E+00 -0.00000000000E+00 -0.82178719231E+02  0.82178719231E+02  0.00000000000E+00 0. -1.
          6    2    1    2  501    0 -0.15283794881E+03  0.91925545636E+02  0.21699028866E+03  0.32889768164E+03  0.17111152819E+03 0.  0.
         24    2    3    3    0    0 -0.85921442389E+02  0.19257931112E+02  0.38576724139E+02  0.12490775287E+03  0.79752247052E+02 0.  0.
         -6    2    1    2    0  502  0.15283794881E+03 -0.91925545636E+02  0.56732271456E+03  0.61977276004E+03  0.17450921781E+03 0.  0.
        -24    2    5    5    0    0  0.16348215849E+03 -0.81520638459E+02  0.57006840238E+03  0.60392378233E+03  0.79836838792E+02 0.  0.
          5    1    3    3  501    0 -0.66916506419E+02  0.72667614524E+02  0.17841356453E+03  0.20398992877E+03  0.47000000000E+01 0. -1.
        -13    1    4    4    0    0 -0.32909016055E+02 -0.20021122048E+02 -0.13537287863E+02  0.40830219550E+02  0.00000000000E+00 0.  1.
         14    1    4    4    0    0 -0.53012426334E+02  0.39279053160E+02  0.52114012002E+02  0.84077533325E+02  0.00000000000E+00 0. -1.
         -5    1    5    5    0  502 -0.10644209682E+02 -0.10404907177E+02 -0.27456878197E+01  0.15848977718E+02  0.47000000000E+01 0.  1.
         11    1    6    6    0    0  0.83724388296E+02 -0.73882203859E+02  0.40984289112E+03  0.42478176591E+03  0.00000000000E+00 0. -1.
        -12    1    6    6    0    0  0.79757770194E+02 -0.76384346001E+01  0.16022551126E+03  0.17914201642E+03  0.00000000000E+00 0.  1.
</event>
<event>
12    1  0.8691829E-002  0.2254210E+03  0.7818608E-02  0.1130353E+00
         21   -1    0    0  501  502  0.00000000000E+00  0.00000000000E+00  0.65123155863E+02  0.65123155863E+02  0.00000000000E+00 0. -1.
         21   -1    0    0  502  503 -0.00000000000E+00 -0.00000000000E+00 -0.10306728874E+04  0.10306728874E+04  0.00000000000E+00 0. -1.
         -6    2    1    2    0  503  0.16955185053E+02  0.14244649762E+03 -0.75538844773E+03  0.78760393028E+03  0.17067442994E+03 0.  0.
        -24    2    3    3    0    0  0.11518164521E+02  0.15289804788E+03 -0.45063644650E+03  0.48258808093E+03  0.79420197606E+02 0.  0.
          6    2    1    2  501    0 -0.16955185053E+02 -0.14244649762E+03 -0.21016128384E+03  0.30819211302E+03  0.17388539421E+03 0.  0.
         24    2    5    5    0    0  0.62725802884E+02 -0.96569544171E+02 -0.96234043339E+02  0.16171596881E+03  0.60256620055E+02 0.  0.
          5    1    5    5  501    0 -0.79680987937E+02 -0.45876953449E+02 -0.11392724050E+03  0.14647614422E+03  0.47000000000E+01 0. -1.
        -11    1    6    6    0    0  0.61712750371E+02 -0.10228666226E+03 -0.78225192932E+02  0.14279427735E+03  0.00000000000E+00 0.  1.
         12    1    6    6    0    0  0.10130525129E+01  0.57171180868E+01 -0.18008850407E+02  0.18921691457E+02  0.00000000000E+00 0. -1.
         -5    1    3    3    0  503  0.54370205320E+01 -0.10451550256E+02 -0.30475200123E+03  0.30501584934E+03  0.47000000000E+01 0.  1.
         13    1    4    4    0    0  0.40568406305E+02  0.58410471202E+02 -0.23172248267E+03  0.24238994969E+03  0.00000000000E+00 0. -1.
        -14    1    4    4    0    0 -0.29050241785E+02  0.94487576674E+02 -0.21891396383E+03  0.24019813125E+03  0.00000000000E+00 0.  1.
</event>
<event>
12    1  0.8691829E-002  0.1834045E+03  0.7818608E-02  0.1165871E+00
         21   -1    0    0  501  502  0.00000000000E+00  0.00000000000E+00  0.89749279740E+03  0.89749279740E+03  0.00000000000E+00 0.  1.
         21   -1    0    0  502  503 -0.00000000000E+00 -0.00000000000E+00 -0.68632148676E+02  0.68632148676E+02  0.00000000000E+00 0.  1.
         -6    2    1    2    0  503 -0.49175621906E+02  0.42569916936E+02  0.79858580474E+02  0.19499506026E+03  0.16557548440E+03 0.  0.
        -24    2    3    3    0    0 -0.87941147347E+02  0.60380538667E+02  0.71564417793E+02  0.15128159159E+03  0.79907441536E+02 0.  0.
          6    2    1    2  501    0  0.49175621906E+02 -0.42569916936E+02  0.74900206826E+03  0.77112988582E+03  0.17148400197E+03 0.  0.
         24    2    5    5    0    0  0.50011243156E+02 -0.59224780634E+02  0.27319046142E+03  0.29500295112E+03  0.79906281814E+02 0.  0.
          5    1    5    5  501    0 -0.83562125067E+00  0.16654863698E+02  0.47581160683E+03  0.47612693470E+03  0.47000000000E+01 0. -1.
        -11    1    6    6    0    0  0.89186078740E+01  0.19967373473E+02  0.61837041824E+02  0.65590070219E+02  0.00000000000E+00 0.  1.
         12    1    6    6    0    0  0.41092635282E+02 -0.79192154108E+02  0.21135341960E+03  0.22941288090E+03  0.00000000000E+00 0. -1.
         -5    1    3    3    0  503  0.38765525441E+02 -0.17810621731E+02  0.82941626807E+01  0.43713468677E+02  0.47000000000E+01 0.  1.
         13    1    4    4    0    0  0.56836277594E+01  0.33793330395E+02  0.29644552098E+02  0.45311061263E+02  0.00000000000E+00 0. -1.
        -14    1    4    4    0    0 -0.93624775106E+02  0.26587208273E+02  0.41919865695E+02  0.10597053032E+03  0.00000000000E+00 0.  1.
</event>
<event>
12    1  0.8691829E-002  0.2433862E+03  0.7818608E-02  0.1118609E+00
         21   -1    0    0  501  502  0.00000000000E+00  0.00000000000E+00  0.70370170151E+03  0.70370170151E+03  0.00000000000E+00 0. -1.
         21   -1    0    0  502  503 -0.00000000000E+00 -0.00000000000E+00 -0.83493274640E+02  0.83493274640E+02  0.00000000000E+00 0.  1.
         -6    2    1    2    0  503  0.15634608905E+03 -0.72758059284E+02  0.26150244534E+03  0.35723991665E+03  0.17175271286E+03 0.  0.
        -24    2    3    3    0    0  0.14180026302E+03 -0.62469184281E+02  0.28100227051E+03  0.33041129042E+03  0.78737736995E+02 0.  0.
          6    2    1    2  501    0 -0.15634608905E+03  0.72758059284E+02  0.35870598153E+03  0.42995505950E+03  0.16264543416E+03 0.  0.
         24    2    5    5    0    0 -0.36579050389E+02  0.73094373391E+02  0.16967535357E+03  0.20612716811E+03  0.83772725133E+02 0.  0.
          5    1    5    5  501    0 -0.11976703866E+03 -0.33631410618E+00  0.18903062796E+03  0.22382789139E+03  0.47000000000E+01 0. -1.
        -11    1    6    6    0    0 -0.40259646304E+02  0.50517957757E+02  0.43462368637E+02  0.77858080274E+02  0.00000000000E+00 0.  1.
         12    1    6    6    0    0  0.36805959157E+01  0.22576415634E+02  0.12621298493E+03  0.12826908784E+03  0.00000000000E+00 0. -1.
         -5    1    3    3    0  503  0.14545826031E+02 -0.10288875004E+02 -0.19499825168E+02  0.26828626229E+02  0.47000000000E+01 0.  1.
         11    1    4    4    0    0 -0.42947314620E+01  0.66120314949E+01  0.36409106734E+02  0.37253009703E+02  0.00000000000E+00 0. -1.
        -12    1    4    4    0    0  0.14609499448E+03 -0.69081215776E+02  0.24459316377E+03  0.29315828071E+03  0.00000000000E+00 0.  1.
</event>
<event>
12    1  0.8691829E-002  0.1730836E+03  0.7818608E-02  0.1176114E+00
         21   -1    0    0  501  502  0.00000000000E+00  0.00000000000E+00  0.34440998208E+02  0.34440998208E+02  0.00000000000E+00 0.  1.
         21   -1    0    0  502  503 -0.00000000000E+00 -0.00000000000E+00 -0.12628780301E+04  0.12628780301E+04  0.00000000000E+00 0.  1.
         -6    2    1    2    0  503 -0.14067419323E+02 -0.11199546321E+02 -0.99533276259E+03  0.10102698828E+04  0.17214704654E+03 0.  0.
        -24    2    3    3    0    0  0.12118919015E+02 -0.61816095840E+02 -0.42284923019E+03  0.43493759246E+03  0.80007124472E+02 0.  0.
          6    2    1    2  501    0  0.14067419323E+02  0.11199546321E+02 -0.23310426933E+03  0.28704914556E+03  0.16654215521E+03 0.  0.
         24    2    5    5    0    0  0.17751476756E+02  0.27112103916E+02 -0.43510531860E+02  0.96695114723E+02  0.80041225145E+02 0.  0.
          5    1    5    5  501    0 -0.36840574333E+01 -0.15912557595E+02 -0.18959373747E+03  0.19035403084E+03  0.47000000000E+01 0. -1.
        -13    1    6    6    0    0  0.16472601300E+02 -0.26716661363E+02 -0.23672002225E+02  0.39312724115E+02  0.00000000000E+00 0.  1.
         14    1    6    6    0    0  0.12788754556E+01  0.53828765278E+02 -0.19838529635E+02  0.57382390608E+02  0.00000000000E+00 0. -1.
         -5    1    3    3    0  503 -0.26186338338E+02  0.50616549519E+02 -0.57248353240E+03  0.57533229031E+03  0.47000000000E+01 0.  1.
         11    1    4    4    0    0 -0.22428621327E+02  0.42165908155E+00 -0.43246824696E+02  0.48718668879E+02  0.00000000000E+00 0. -1.
        -12    1    4    4    0    0  0.34547540342E+02 -0.62237754921E+02 -0.37960240549E+03  0.38621892358E+03  0.00000000000E+00 0.  1.
</event>
<event>
12    1  0.8691829E-002  0.1949638E+03  0.7818608E-02  0.1154284E+00
         21   -1    0    0  501  502  0.00000000000E+00  0.00000000000E+00  0.41240028476E+02  0.41240028476E+02  0.00000000000E+00 0. -1.
         21   -1    0    0  502  503 -0.00000000000E+00 -0.00000000000E+00 -0.10464603360E+04  0.10464603360E+04  0.00000000000E+00 0. -1.
         -6    2    1    2    0  503  0.74298049797E+02 -0.52869749943E+02 -0.69517642222E+03  0.72199803208E+03  0.17232379306E+03 0.  0.
        -24    2    3    3    0    0  0.10119561389E+03 -0.82904252010E+02 -0.58261779072E+03  0.60234400668E+03  0.79127397602E+02 0.  0.
          6    2    1    2  501    0 -0.74298049797E+02  0.52869749943E+02 -0.31004388533E+03  0.36570233242E+03  0.17115950001E+03 0.  0.
         24    2    5    5    0    0 -0.47741606003E+02 -0.13336071222E+02 -0.26516023399E+03  0.28129209832E+03  0.79738216363E+02 0.  0.
          5    1    5    5  501    0 -0.26556443794E+02  0.66205821164E+02 -0.44883651336E+02  0.84410234097E+02  0.47000000000E+01 0. -1.
        -11    1    6    6    0    0  0.18638004900E+02  0.70820264804E+01 -0.10258315261E+03  0.10450279195E+03  0.00000000000E+00 0.  1.
         12    1    6    6    0    0 -0.66379610903E+02 -0.20418097702E+02 -0.16257708138E+03  0.17678930637E+03  0.00000000000E+00 0. -1.
         -5    1    3    3    0  503 -0.26897564092E+02  0.30034502067E+02 -0.11255863150E+03  0.11965402539E+03  0.47000000000E+01 0.  1.
         11    1    4    4    0    0  0.44143457126E+02 -0.66884545234E+02 -0.20504193871E+03  0.22014627825E+03  0.00000000000E+00 0. -1.
        -12    1    4    4    0    0  0.57052156762E+02 -0.16019706776E+02 -0.37757585201E+03  0.38219772843E+03  0.00000000000E+00 0.  1.
</event>
<event>
12    1  0.8691829E-002  0.1785341E+03  0.7818608E-02  0.1169838E+00
         21   -1    0    0  501  502  0.00000000000E+00  0.00000000000E+00  0.28022898290E+02  0.28022898290E+02  0.00000000000E+00 0. -1.
         21   -1    0    0  502  503 -0.00000000000E+00 -0.00000000000E+00 -0.16687451589E+04  0.16687451589E+04  0.00000000000E+00 0. -1.
         -6    2    1    2    0  503 -0.29026380178E+02  0.36645952726E+02 -0.13099152733E+04  0.13220258914E+04  0.17230489788E+03 0.  0.
        -24    2    3    3    0    0  0.39342757015E+02  0.54866102314E+02 -0.84722519728E+03  0.85393347619E+03  0.82787107346E+02 0.  0.
          6    2    1    2  501    0  0.29026380178E+02 -0.36645952726E+02 -0.33080698730E+03  0.37474216573E+03  0.16974384034E+03 0.  0.
         24    2    5    5    0    0  0.40102284769E+02 -0.55516905071E+02 -0.33533453364E+03  0.35190848051E+03  0.81853583966E+02 0.  0.
          5    1    5    5  501    0 -0.11075904592E+02  0.18870952344E+02  0.45275463462E+01  0.22833685222E+02  0.47000000000E+01 0. -1.
        -13    1    6    6    0    0 -0.15453311968E+02  0.96861888657E+01 -0.95729250565E+02  0.97451098092E+02  0.00000000000E+00 0.  1.
         14    1    6    6    0    0  0.55555596737E+02 -0.65203093936E+02 -0.23960528308E+03  0.25445738242E+03  0.00000000000E+00 0. -1.
         -5    1    3    3    0  503 -0.68369137193E+02 -0.18220149588E+02 -0.46269007600E+03  0.46809241523E+03  0.47000000000E+01 0.  1.
         13    1    4    4    0    0 -0.14551710510E+02  0.22892397065E+02 -0.52329381651E+03  0.52399640507E+03  0.00000000000E+00 0. -1.
        -14    1    4    4    0    0  0.53894467525E+02  0.31973705249E+02 -0.32393138077E+03  0.32993707113E+03  0.00000000000E+00 0.  1.
</event>
<event>
12    1  0.8691829E-002  0.2034220E+03  0.7818608E-02  0.1147027E+00
         21   -1    0    0  503  502  0.00000000000E+00  0.00000000000E+00  0.29413469288E+02  0.29413469288E+02  0.00000000000E+00 0.  1.
         21   -1    0    0  501  503 -0.00000000000E+00 -0.00000000000E+00 -0.14597108763E+04  0.14597108763E+04  0.00000000000E+00 0.  1.
          6    2    1    2  501    0 -0.10449507322E+03 -0.28301228490E+02 -0.86193315506E+03  0.88545353515E+03  0.17140309000E+03 0.  0.
         24    2    3    3    0    0 -0.13637304785E+03  0.88072739127E+00 -0.64321668859E+03  0.66245852507E+03  0.80778741612E+02 0.  0.
         -6    2    1    2    0  502  0.10449507322E+03  0.28301228490E+02 -0.56836425192E+03  0.60367081040E+03  0.17222178902E+03 0.  0.
        -24    2    5    5    0    0 -0.22532658616E+01  0.50514904070E+02 -0.25761433067E+03  0.27431346824E+03  0.79535543952E+02 0.  0.
          5    1    3    3  501    0  0.31877974635E+02 -0.29181955881E+02 -0.21871646647E+03  0.22299501008E+03  0.47000000000E+01 0. -1.
        -13    1    4    4    0    0 -0.75211496652E+02 -0.39693107444E+02 -0.33575443639E+03  0.34635726290E+03  0.00000000000E+00 0.  1.
         14    1    4    4    0    0 -0.61161551203E+02  0.40573834836E+02 -0.30746225220E+03  0.31610126218E+03  0.00000000000E+00 0. -1.
         -5    1    5    5    0  502  0.10674833908E+03 -0.22213675580E+02 -0.31074992125E+03  0.32935734217E+03  0.47000000000E+01 0.  1.
         13    1    6    6    0    0  0.51179526715E+01 -0.16409758475E+02 -0.15965018092E+02  0.23459655058E+02  0.00000000000E+00 0. -1.
        -14    1    6    6    0    0 -0.73712185331E+01  0.66924662545E+02 -0.24164931257E+03  0.25085381318E+03  0.00000000000E+00 0.  1.
</event>
<event>
12    1  0.8691829E-002  0.1727412E+03  0.7818608E-02  0.1175292E+00
         21   -1    0    0  501  502  0.00000000000E+00  0.00000000000E+00  0.21567105595E+03  0.21567105595E+03  0.00000000000E+00 0. -1.
         21   -1    0    0  502  503 -0.00000000000E+00 -0.00000000000E+00 -0.14047496433E+03  0.14047496433E+03  0.00000000000E+00 0. -1.
         -6    2    1    2    0  503  0.33420797378E+01  0.46482503178E+01  0.11589622339E+02  0.17206637185E+03  0.17158013069E+03 0.  0.
        -24    2    3    3    0    0  0.32805695760E+02  0.15639858273E+02  0.65582297694E+02  0.10940682265E+03  0.79674313490E+02 0.  0.
          6    2    1    2  501    0 -0.33420797378E+01 -0.46482503178E+01  0.63606469284E+02  0.18407964842E+03  0.17264633880E+03 0.  0.
         24    2    5    5    0    0 -0.86743034064E+01  0.62790116199E+02  0.21816344098E+02  0.10442495333E+03  0.80067320274E+02 0.  0.
          5    1    5    5  501    0  0.53322236686E+01 -0.67438366517E+02  0.41790125186E+02  0.79654695095E+02  0.47000000000E+01 0. -1.
        -11    1    6    6    0    0 -0.34981614841E+02  0.36278988016E+01  0.18143098556E+02  0.39573312369E+02  0.00000000000E+00 0.  1.
         12    1    6    6    0    0  0.26307311435E+02  0.59162217397E+02  0.36732455420E+01  0.64851640959E+02  0.00000000000E+00 0. -1.
         -5    1    3    3    0  503 -0.29463616022E+02 -0.10991607955E+02 -0.53992675356E+02  0.62659549205E+02  0.47000000000E+01 0.  1.
         11    1    4    4    0    0 -0.18741531602E+02  0.34703085758E+01 -0.63400831915E+01  0.20086928667E+02  0.00000000000E+00 0. -1.
        -12    1    4    4    0    0  0.51547227362E+02  0.12169549697E+02  0.71922380886E+02  0.89319893982E+02  0.00000000000E+00 0.  1.
</event>
<event>
12    1  0.8691829E-002  0.1920562E+03  0.7818608E-02  0.1156742E+00
         21   -1    0    0  503  502  0.00000000000E+00  0.00000000000E+00  0.12339206450E+04  0.12339206450E+04  0.00000000000E+00 0.  1.
         21   -1    0    0  501  503 -0.00000000000E+00 -0.00000000000E+00 -0.32671568687E+02  0.32671568687E+02  0.00000000000E+00 0. -1.
          6    2    1    2  501    0  0.25150907484E+02 -0.81859591574E+02  0.41390446948E+03  0.45629211513E+03  0.17190702019E+03 0.  0.
         24    2    3    3    0    0 -0.27680480229E+02 -0.35561517217E+02  0.10305422928E+03  0.13756867851E+03  0.79209447933E+02 0.  0.
         -6    2    1    2    0  502 -0.25150907484E+02  0.81859591574E+02  0.78734460684E+03  0.81030009856E+03  0.17129261203E+03 0.  0.
        -24    2    5    5    0    0  0.41224991929E+02  0.58620204848E+02  0.28677039016E+03  0.30478801609E+03  0.74314532277E+02 0.  0.
          5    1    3    3  501    0  0.52831387713E+02 -0.46298074357E+02  0.31085024020E+03  0.31872343662E+03  0.47000000000E+01 0. -1.
        -13    1    4    4    0    0  0.54347365413E+01 -0.17878477203E+02 -0.80105678505E+01  0.20330900266E+02  0.00000000000E+00 0.  1.
         14    1    4    4    0    0 -0.33115216770E+02 -0.17683040014E+02  0.11106479713E+03  0.11723777824E+03  0.00000000000E+00 0. -1.
         -5    1    5    5    0  502 -0.66375899414E+02  0.23239386726E+02  0.50057421668E+03  0.50551208247E+03  0.47000000000E+01 0.  1.
         11    1    6    6    0    0  0.15087284168E+02  0.38692074744E+02  0.46768474352E+02  0.62545927004E+02  0.00000000000E+00 0. -1.
        -12    1    6    6    0    0  0.26137707762E+02  0.19928130104E+02  0.24000191580E+03  0.24224208909E+03  0.00000000000E+00 0.  1.
</event>
<event>
12    1  0.8691829E-002  0.3322180E+03  0.7818608E-02  0.1070272E+00
         21   -1    0    0  501  502  0.00000000000E+00  0.00000000000E+00  0.26896296093E+03  0.26896296093E+03  0.00000000000E+00 0. -1.
         21   -1    0    0  502  503 -0.00000000000E+00 -0.00000000000E+00 -0.85641595123E+03  0.85641595123E+03  0.00000000000E+00 0.  1.
         -6    2    1    2    0  503 -0.27985018273E+03  0.46030092235E+02 -0.70017920494E+03  0.77455703403E+03  0.17103445784E+03 0.  0.
        -24    2    3    3    0    0 -0.69613206872E+02  0.50188556585E+02 -0.29730334193E+03  0.32008158932E+03  0.81841657596E+02 0.  0.
          6    2    1    2  501    0  0.27985018273E+03 -0.46030092235E+02  0.11272621464E+03  0.35082187813E+03  0.17301415129E+03 0.  0.
         24    2    5    5    0    0  0.27617175727E+03 -0.35680960411E+02  0.13947432719E+03  0.32152705148E+03  0.79891091128E+02 0.  0.
          5    1    5    5  501    0  0.36784254589E+01 -0.10349131824E+02 -0.26748112552E+02  0.29294826650E+02  0.47000000000E+01 0. -1.
        -11    1    6    6    0    0  0.22341402027E+02 -0.13780519858E+02  0.40377104834E+02  0.48159646665E+02  0.00000000000E+00 0.  1.
         12    1    6    6    0    0  0.25383035524E+03 -0.21900440553E+02  0.99097222354E+02  0.27336740482E+03  0.00000000000E+00 0. -1.
         -5    1    3    3    0  503 -0.21023697586E+03 -0.41584643499E+01 -0.40287586301E+03  0.45447544470E+03  0.47000000000E+01 0.  1.
         11    1    4    4    0    0  0.96729156369E+01  0.22421318557E+01 -0.14207117128E+01  0.10030497193E+02  0.00000000000E+00 0. -1.
        -12    1    4    4    0    0 -0.79286122509E+02  0.47946424729E+02 -0.29588263022E+03  0.31005109213E+03  0.00000000000E+00 0.  1.
</event>
<event>
12    1  0.8691829E-002  0.1786853E+03  0.7818608E-02  0.1169169E+00
         21   -1    0    0  501  502  0.00000000000E+00  0.00000000000E+00  0.48967540540E+03  0.48967540540E+03  0.00000000000E+00 0. -1.
         21   -1    0    0  502  503 -0.00000000000E+00 -0.00000000000E+00 -0.18160329989E+03  0.18160329989E+03  0.00000000000E+00 0. -1.
         -6    2    1    2    0  503 -0.44735675793E+02 -0.22443812173E+02 -0.11477151630E+03  0.21236982593E+03  0.17153261095E+03 0.  0.
        -24    2    3    3    0    0 -0.86161863047E+02 -0.20714861734E+02 -0.38612700696E+02  0.12552874433E+03  0.80084660558E+02 0.  0.
          6    2    1    2  501    0  0.44735675793E+02  0.22443812173E+02  0.42284362181E+03  0.45890887936E+03  0.17115964962E+03 0.  0.
         24    2    5    5    0    0  0.84400087613E+02  0.53351819503E+02  0.31792656348E+03  0.34246898237E+03  0.78980457636E+02 0.  0.
          5    1    5    5  501    0 -0.39664411820E+02 -0.30908007330E+02  0.10491705833E+03  0.11643989699E+03  0.47000000000E+01 0. -1.
        -11    1    6    6    0    0  0.39630201851E+01  0.43678766085E+02  0.81576245496E+02  0.92618702025E+02  0.00000000000E+00 0.  1.
         12    1    6    6    0    0  0.80437067427E+02  0.96730534184E+01  0.23635031798E+03  0.24985028035E+03  0.00000000000E+00 0. -1.
         -5    1    3    3    0  503  0.41426187254E+02 -0.17289504397E+01 -0.76158815600E+02  0.86841081601E+02  0.47000000000E+01 0.  1.
         11    1    4    4    0    0 -0.76190391120E+02 -0.28305622484E+01 -0.59173098326E+02  0.96511363824E+02  0.00000000000E+00 0. -1.
        -12    1    4    4    0    0 -0.99714719268E+01 -0.17884299485E+02  0.20560397630E+02  0.29017380502E+02  0.00000000000E+00 0.  1.
</event>
<event>
12    1  0.8691829E-002  0.1937636E+03  0.7818608E-02  0.1155696E+00
         21   -1    0    0  503  502  0.00000000000E+00  0.00000000000E+00  0.33215055952E+02  0.33215055952E+02  0.00000000000E+00 0.  1.
         21   -1    0    0  501  503 -0.00000000000E+00 -0.00000000000E+00 -0.12080159069E+04  0.12080159069E+04  0.00000000000E+00 0.  1.
          6    2    1    2  501    0  0.87040174601E+02  0.20281303860E+02 -0.75591759544E+03  0.77970360668E+03  0.16893483920E+03 0.  0.
         24    2    3    3    0    0  0.10938407269E+03  0.45400678389E+02 -0.54632872966E+03  0.56738352893E+03  0.97071577156E+02 0.  0.
         -6    2    1    2    0  502 -0.87040174601E+02 -0.20281303860E+02 -0.41888325548E+03  0.46152735615E+03  0.17192148053E+03 0.  0.
        -24    2    5    5    0    0 -0.11119204039E+03  0.22902851439E+02 -0.35112273547E+03  0.37749306575E+03  0.79533822200E+02 0.  0.
          5    1    3    3  501    0 -0.22343898085E+02 -0.25119374528E+02 -0.20958886578E+03  0.21232007775E+03  0.47000000000E+01 0. -1.
        -11    1    4    4    0    0  0.79618698350E+02  0.43902617149E+02 -0.19909343124E+03  0.21887158629E+03  0.00000000000E+00 0.  1.
         12    1    4    4    0    0  0.29765374336E+02  0.14980612399E+01 -0.34723529842E+03  0.34851194265E+03  0.00000000000E+00 0. -1.
         -5    1    5    5    0  502  0.24151865793E+02 -0.43184155300E+02 -0.67760520018E+02  0.84034290402E+02  0.47000000000E+01 0.  1.
         11    1    6    6    0    0 -0.21936337782E+02  0.40496898854E+02 -0.14624188941E+03  0.15332283571E+03  0.00000000000E+00 0. -1.
        -12    1    6    6    0    0 -0.89255702613E+02 -0.17594047415E+02 -0.20488084605E+03  0.22417023003E+03  0.00000000000E+00 0.  1.
</event>
<event>
12    1  0.8691829E-002  0.2332724E+03  0.7818608E-02  0.1125010E+00
         21   -1    0    0  503  502  0.00000000000E+00  0.00000000000E+00  0.91752283008E+03  0.91752283008E+03  0.00000000000E+00 0. -1.
         21   -1    0    0  501  503 -0.00000000000E+00 -0.00000000000E+00 -0.11874242288E+03  0.11874242288E+03  0.00000000000E+00 0.  1.
          6    2    1    2  501    0  0.15012987613E+03 -0.10466966135E+02  0.28324588100E+02  0.23126948688E+03  0.17330538418E+03 0.  0.
         24    2    3    3    0    0  0.68494288490E+02  0.39895946280E+01 -0.52996445873E+02  0.11504314785E+03  0.75623529220E+02 0.  0.
         -6    2    1    2    0  502 -0.15012987613E+03  0.10466966135E+02  0.77045581909E+03  0.80499576608E+03  0.17823433212E+03 0.  0.
        -24    2    5    5    0    0 -0.56731107336E+02  0.69391596635E+02  0.45942364612E+03  0.47490707388E+03  0.80206171751E+02 0.  0.
          5    1    3    3  501    0  0.81635587637E+02 -0.14456560763E+02  0.81321033973E+02  0.11622633903E+03  0.47000000000E+01 0. -1.
        -11    1    4    4    0    0  0.53920331773E+02 -0.15162113201E+02  0.89875055843E+00  0.56018743362E+02  0.00000000000E+00 0.  1.
         12    1    4    4    0    0  0.14573956717E+02  0.19151707829E+02 -0.53895196431E+02  0.59024404491E+02  0.00000000000E+00 0. -1.
         -5    1    5    5    0  502 -0.93398768792E+02 -0.58924630500E+02  0.31103217298E+03  0.33008869220E+03  0.47000000000E+01 0.  1.
         11    1    6    6    0    0 -0.64836301139E+02  0.54442846486E+02  0.44383728923E+03  0.45183991501E+03  0.00000000000E+00 0. -1.
        -12    1    6    6    0    0  0.81051938037E+01  0.14948750148E+02  0.15586356883E+02  0.23067158873E+02  0.00000000000E+00 0.  1.
</event>
<event>
12    1  0.8691829E-002  0.1813900E+03  0.7818608E-02  0.1166661E+00
         21   -1    0    0  501  502  0.00000000000E+00  0.00000000000E+00  0.14538426627E+04  0.14538426627E+04  0.00000000000E+00 0.  1.
         21   -1    0    0  502  503 -0.00000000000E+00 -0.00000000000E+00 -0.27512640136E+02  0.27512640136E+02  0.00000000000E+00 0.  1.
         -6    2    1    2    0  503  0.19617125318E+02  0.52867603007E+02  0.39662119305E+03  0.43579200777E+03  0.17154150578E+03 0.  0.
        -24    2    3    3    0    0  0.57106172440E+02 -0.17576364842E+02  0.21451509214E+03  0.23691389623E+03  0.80879082211E+02 0.  0.
          6    2    1    2  501    0 -0.19617125318E+02 -0.52867603007E+02  0.10297088295E+04  0.10455632951E+04  0.17240219071E+03 0.  0.
         24    2    5    5    0    0  0.15633336817E+02 -0.84186874828E+02  0.90162329016E+03  0.90899284709E+03  0.77534557448E+02 0.  0.
          5    1    5    5  501    0 -0.35250462135E+02  0.31319271821E+02  0.12808553939E+03  0.13657044800E+03  0.47000000000E+01 0. -1.
        -13    1    6    6    0    0 -0.85624546475E+01 -0.63186436974E+02  0.79766824061E+03  0.80021276141E+03  0.00000000000E+00 0.  1.
         14    1    6    6    0    0  0.24195791464E+02 -0.21000437854E+02  0.10395504955E+03  0.10878008569E+03  0.00000000000E+00 0. -1.
         -5    1    3    3    0  503 -0.37489047122E+02  0.70443967849E+02  0.18210610091E+03  0.19887811154E+03  0.47000000000E+01 0.  1.
         13    1    4    4    0    0  0.51369844067E+00  0.64504031040E+01  0.14069676722E+03  0.14084548943E+03  0.00000000000E+00 0. -1.
        -14    1    4    4    0    0  0.56592474000E+02 -0.24026767946E+02  0.73818324920E+02  0.96068406801E+02  0.00000000000E+00 0.  1.
</event>
<event>
12    1  0.8691829E-002  0.2610272E+03  0.7818608E-02  0.1106856E+00
         21   -1    0    0  501  502  0.00000000000E+00  0.00000000000E+00  0.38660349550E+03  0.38660349550E+03  0.00000000000E+00 0.  1.
         21   -1    0    0  502  503 -0.00000000000E+00 -0.00000000000E+00 -0.22265983932E+03  0.22265983932E+03  0.00000000000E+00 0. -1.
         -6    2    1    2    0  503  0.18664196099E+03 -0.50089130740E+02 -0.59041671204E+02  0.26762125566E+03  0.17547385824E+03 0.  0.
        -24    2    3    3    0    0  0.60272998484E+02 -0.80526224334E+02 -0.17497205145E+02  0.13107981869E+03  0.82209850552E+02 0.  0.
          6    2    1    2  501    0 -0.18664196099E+03  0.50089130740E+02  0.22298532739E+03  0.34164207915E+03  0.17219962659E+03 0.  0.
         24    2    5    5    0    0 -0.10674523881E+03  0.50350542798E+02  0.22023055779E+03  0.26155941370E+03  0.77344069835E+02 0.  0.
          5    1    5    5  501    0 -0.79896722178E+02 -0.26141205823E+00  0.27547695918E+01  0.80082665456E+02  0.47000000000E+01 0. -1.
        -11    1    6    6    0    0 -0.30622555291E+02  0.55624527517E+02  0.11790086772E+03  0.13391207400E+03  0.00000000000E+00 0.  1.
         12    1    6    6    0    0 -0.76122683519E+02 -0.52739847188E+01  0.10232969008E+03  0.12764733970E+03  0.00000000000E+00 0. -1.
         -5    1    3    3    0  503  0.12636896250E+03  0.30437093595E+02 -0.41544466059E+02  0.13654143697E+03  0.47000000000E+01 0.  1.
         11    1    4    4    0    0 -0.18426881487E+02 -0.13431831830E+02 -0.15629034997E+02  0.27644724679E+02  0.00000000000E+00 0. -1.
        -12    1    4    4    0    0  0.78699879972E+02 -0.67094392504E+02 -0.18681701476E+01  0.10343509401E+03  0.00000000000E+00 0.  1.
</event>
<event>
12    1  0.8691829E-002  0.3029718E+03  0.7818608E-02  0.1083810E+00
         21   -1    0    0  503  502  0.00000000000E+00  0.00000000000E+00  0.11838429529E+03  0.11838429529E+03  0.00000000000E+00 0. -1.
         21   -1    0    0  501  503 -0.00000000000E+00 -0.00000000000E+00 -0.89367808879E+03  0.89367808879E+03  0.00000000000E+00 0. -1.
          6    2    1    2  501    0  0.13781219802E+03 -0.20775590648E+03 -0.57269631800E+03  0.64789888325E+03  0.17215449938E+03 0.  0.
         24    2    3    3    0    0  0.10672022489E+03 -0.68786579929E+02 -0.38187451937E+03  0.40975137990E+03  0.77118381781E+02 0.  0.
         -6    2    1    2    0  502 -0.13781219802E+03  0.20775590648E+03 -0.20259747550E+03  0.36416350083E+03  0.17150685017E+03 0.  0.
        -24    2    5    5    0    0 -0.13609829943E+03  0.13346314472E+03 -0.20321474648E+03  0.28969993308E+03  0.79338892929E+02 0.  0.
          5    1    3    3  501    0  0.31091973135E+02 -0.13896932655E+03 -0.19082179863E+03  0.23814750335E+03  0.47000000000E+01 0. -1.
        -13    1    4    4    0    0  0.59452285642E+02 -0.41240213306E+02 -0.31572343620E+03  0.32390834758E+03  0.00000000000E+00 0.  1.
         14    1    4    4    0    0  0.47267939243E+02 -0.27546366622E+02 -0.66151083163E+02  0.85843032320E+02  0.00000000000E+00 0. -1.
         -5    1    5    5    0  502 -0.17138985866E+01  0.74292761763E+02  0.61727097852E+00  0.74463567750E+02  0.47000000000E+01 0.  1.
         13    1    6    6    0    0 -0.65098275777E+02  0.71395786617E+02 -0.15780001827E+03  0.18502969930E+03  0.00000000000E+00 0. -1.
        -14    1    6    6    0    0 -0.71000023657E+02  0.62067358104E+02 -0.45414728207E+02  0.10467023378E+03  0.00000000000E+00 0.  1.
</event>
<event>
12    1  0.8691829E-002  0.1929638E+03  0.7818608E-02  0.1157214E+00
         21   -1    0    0  503  502  0.00000000000E+00  0.00000000000E+00  0.32676082314E+03  0.32676082314E+03  0.00000000000E+00 0.  1.
         21   -1    0    0  501  503 -0.00000000000E+00 -0.00000000000E+00 -0.14867982513E+03  0.14867982513E+03  0.00000000000E+00 0.  1.
          6    2    1    2  501    0 -0.81017042568E+02 -0.15756487807E+02 -0.32794909695E+02  0.18960212281E+03  0.16751546429E+03 0.  0.
         24    2    3    3    0    0  0.15938316620E+02  0.11867627748E+02 -0.25065152238E+02  0.88383188876E+02  0.82392085143E+02 0.  0.
         -6    2    1    2    0  502  0.81017042568E+02  0.15756487807E+02  0.21087590770E+03  0.28583852546E+03  0.17442186242E+03 0.  0.
        -24    2    5    5    0    0  0.28477782302E+02  0.55336233818E+02  0.19032435937E+03  0.21676330340E+03  0.83005331592E+02 0.  0.
          5    1    3    3  501    0 -0.96955359188E+02 -0.27624115555E+02 -0.77297574572E+01  0.10121893393E+03  0.47000000000E+01 0. -1.
        -11    1    4    4    0    0 -0.54974414127E+01  0.24362000519E+02 -0.48310396136E+02  0.54384035398E+02  0.00000000000E+00 0.  1.
         12    1    4    4    0    0  0.21435758032E+02 -0.12494372771E+02  0.23245243898E+02  0.33999153478E+02  0.00000000000E+00 0. -1.
         -5    1    5    5    0  502  0.52539260266E+02 -0.39579746011E+02  0.20551548333E+02  0.69075222059E+02  0.47000000000E+01 0.  1.
         11    1    6    6    0    0 -0.18861066239E+02 -0.38582353441E+01  0.11223565371E+02  0.22284394075E+02  0.00000000000E+00 0. -1.
        -12    1    6    6    0    0  0.47338848542E+02  0.59194469162E+02  0.17910079400E+03  0.19447890932E+03  0.00000000000E+00 0.  1.
</event>
<event>
12    1  0.8691829E-002  0.2654066E+03  0.7818608E-02  0.1104047E+00
         21   -1    0    0  501  502  0.00000000000E+00  0.00000000000E+00  0.31962493163E+03  0.31962493163E+03  0.00000000000E+00 0.  1.
         21   -1    0    0  502  503 -0.00000000000E+00 -0.00000000000E+00 -0.27313099576E+03  0.27313099576E+03  0.00000000000E+00 0.  1.
         -6    2    1    2    0  503 -0.13009494072E+03  0.15323721263E+03 -0.10778203912E+03  0.28576776418E+03  0.17216245280E+03 0.  0.
        -24    2    3    3    0    0 -0.49627297474E+02  0.15730902691E+03 -0.57111018590E+02  0.19047210005E+03  0.76216493292E+02 0.  0.
          6    2    1    2  501    0  0.13009494072E+03 -0.15323721263E+03  0.15427597499E+03  0.30698816321E+03  0.17330412273E+03 0.  0.
         24    2    5    5    0    0  0.31985438651E+02 -0.10642971465E+03  0.27896768341E+02  0.14022422785E+03  0.80834719925E+02 0.  0.
          5    1    5    5  501    0  0.98109502070E+02 -0.46807497974E+02  0.12637920665E+03  0.16676393536E+03  0.47000000000E+01 0. -1.
        -11    1    6    6    0    0  0.56255003993E+02 -0.95401307960E+02  0.23195907240E+02  0.11315513752E+03  0.00000000000E+00 0.  1.
         12    1    6    6    0    0 -0.24269565342E+02 -0.11028406691E+02  0.47008611009E+01  0.27069090327E+02  0.00000000000E+00 0. -1.
         -5    1    3    3    0  503 -0.80467643247E+02 -0.40718142834E+01 -0.50671020534E+02  0.95295664137E+02  0.47000000000E+01 0.  1.
         11    1    4    4    0    0 -0.39037793225E+02  0.47227987177E+02 -0.50988388373E+02  0.79713535999E+02  0.00000000000E+00 0. -1.
        -12    1    4    4    0    0 -0.10589504249E+02  0.11008103973E+03 -0.61226302170E+01  0.11075856405E+03  0.00000000000E+00 0.  1.
</event>
<event>
12    1  0.8691829E-002  0.2410428E+03  0.7818608E-02  0.1119230E+00
         21   -1    0    0  503  502  0.00000000000E+00  0.00000000000E+00  0.52796810299E+03  0.52796810299E+03  0.00000000000E+00 0. -1.
         21   -1    0    0  501  503 -0.00000000000E+00 -0.00000000000E+00 -0.18130964817E+03  0.18130964817E+03  0.00000000000E+00 0.  1.
          6    2    1    2  501    0 -0.15229617068E+03 -0.71006795779E+02 -0.49389219887E+02  0.24605066065E+03  0.17281650359E+03 0.  0.
         24    2    3    3    0    0 -0.10888637043E+03 -0.11623907474E+03 -0.21104953299E+02  0.17711257572E+03  0.74536442492E+02 0.  0.
         -6    2    1    2    0  502  0.15229617068E+03  0.71006795779E+02  0.39604767471E+03  0.46322709050E+03  0.17172503627E+03 0.  0.
        -24    2    5    5    0    0  0.83218811361E+02 -0.46902756267E+01  0.11262403653E+03  0.16180914666E+03  0.80936129692E+02 0.  0.
          5    1    3    3  501    0 -0.43409800248E+02  0.45232278964E+02 -0.28284266588E+02  0.68938084934E+02  0.47000000000E+01 0. -1.
        -13    1    4    4    0    0  0.93611174454E+01 -0.19187294696E+02  0.49971736066E+01  0.21926115516E+02  0.00000000000E+00 0.  1.
         14    1    4    4    0    0 -0.11824748788E+03 -0.97051780047E+02 -0.26102126906E+02  0.15518646020E+03  0.00000000000E+00 0. -1.
         -5    1    5    5    0  502  0.69077359322E+02  0.75697071406E+02  0.28342363818E+03  0.30141794384E+03  0.47000000000E+01 0.  1.
         11    1    6    6    0    0  0.87262208202E+02 -0.21728312527E+02  0.11284794326E+03  0.14429646858E+03  0.00000000000E+00 0. -1.
        -12    1    6    6    0    0 -0.40433968414E+01  0.17038036900E+02 -0.22390673382E+00  0.17512678083E+02  0.00000000000E+00 0.  1.
</event>
<event>
12    1  0.8691829E-002  0.5004089E+03  0.7818608E-02  0.1013713E+00
         21   -1    0    0  501  502  0.00000000000E+00  0.00000000000E+00  0.10704201692E+04  0.10704201692E+04  0.00000000000E+00 0. -1.
         21   -1    0    0  502  503 -0.00000000000E+00 -0.00000000000E+00 -0.23916962247E+03  0.23916962247E+03  0.00000000000E+00 0.  1.
         -6    2    1    2    0  503 -0.36127341728E+03 -0.30018873935E+03  0.51537851979E+03  0.71834814430E+03  0.17256093559E+03 0.  0.
        -24    2    3    3    0    0 -0.13290513128E+03 -0.80172117696E+02  0.24912205263E+03  0.30425397125E+03  0.80108298791E+02 0.  0.
          6    2    1    2  501    0  0.36127341728E+03  0.30018873935E+03  0.31587202691E+03  0.59124164734E+03  0.17076236970E+03 0.  0.
         24    2    5    5    0    0  0.73681500578E+02  0.11700923371E+03  0.10746966473E+03  0.19159495788E+03  0.77709553767E+02 0.  0.
          5    1    5    5  501    0  0.28759191670E+03  0.18317950564E+03  0.20840236218E+03  0.39964668946E+03  0.47000000000E+01 0. -1.
        -11    1    6    6    0    0  0.36806472730E+02  0.19324526491E+01  0.16717972144E+02  0.40471488738E+02  0.00000000000E+00 0.  1.
         12    1    6    6    0    0  0.36875027848E+02  0.11507678106E+03  0.90751692587E+02  0.15112346914E+03  0.00000000000E+00 0. -1.
         -5    1    3    3    0  503 -0.22836828599E+03 -0.22001662165E+03  0.26625646716E+03  0.41409417305E+03  0.47000000000E+01 0.  1.
         13    1    4    4    0    0 -0.13938576964E+03 -0.84534695552E+02  0.21826103065E+03  0.27241950193E+03  0.00000000000E+00 0. -1.
        -14    1    4    4    0    0  0.64806383582E+01  0.43625778557E+01  0.30861021981E+02  0.31834469318E+02  0.00000000000E+00 0.  1.
</event>
<event>
12    1  0.8691829E-002  0.2006666E+03  0.7818608E-02  0.1151428E+00
         21   -1    0    0  501  502  0.00000000000E+00  0.00000000000E+00  0.15090614111E+03  0.15090614111E+03  0.00000000000E+00 0. -1.
         21   -1    0    0  502  503 -0.00000000000E+00 -0.00000000000E+00 -0.25347665228E+03  0.25347665228E+03  0.00000000000E+00 0. -1.
         -6    2    1    2    0  503 -0.64674445805E+02  0.47964430410E+02 -0.42860775473E+02  0.19502102376E+03  0.17237396296E+03 0.  0.
        -24    2    3    3    0    0 -0.98754746438E+02 -0.62203708911E+01 -0.33641768462E+02  0.13017860189E+03  0.77611254637E+02 0.  0.
          6    2    1    2  501    0  0.64674445805E+02 -0.47964430410E+02 -0.59709735694E+02  0.20936176963E+03  0.18380350248E+03 0.  0.
         24    2    5    5    0    0  0.16761738917E+01 -0.91956926056E+02 -0.26749373977E+02  0.12562051707E+03  0.81277915149E+02 0.  0.
          5    1    5    5  501    0  0.62998271913E+02  0.43992495646E+02 -0.32960361716E+02  0.83741252568E+02  0.47000000000E+01 0. -1.
        -11    1    6    6    0    0 -0.31099848896E+02 -0.27739032958E+02 -0.33133461730E+02  0.53239842571E+02  0.00000000000E+00 0.  1.
         12    1    6    6    0    0  0.32776022788E+02 -0.64217893098E+02  0.63840877526E+01  0.72380674494E+02  0.00000000000E+00 0. -1.
         -5    1    3    3    0  503  0.34080300633E+02  0.54184801301E+02 -0.92190070116E+01  0.64842421867E+02  0.47000000000E+01 0.  1.
         11    1    4    4    0    0 -0.88987324568E+02  0.20852621649E+02 -0.41449135127E+02  0.10035739418E+03  0.00000000000E+00 0. -1.
        -12    1    4    4    0    0 -0.97674218705E+01 -0.27072992540E+02  0.78073666658E+01  0.29821207711E+02  0.00000000000E+00 0.  1.
</event>
<event>
12    1  0.8691829E-002  0.2526922E+03  0.7818608E-02  0.1112311E+00
         21   -1    0    0  501  502  0.00000000000E+00  0.00000000000E+00  0.22517623439E+03  0.22517623439E+03  0.00000000000E+00 0. -1.
         21   -1    0    0  502  503 -0.00000000000E+00 -0.00000000000E+00 -0.35223913101E+03  0.35223913101E+03  0.00000000000E+00 0. -1.
         -6    2    1    2    0  503  0.37420358777E+02 -0.18192279399E+03 -0.19506261185E+03  0.31573368652E+03  0.16474875429E+03 0.  0.
        -24    2    3    3    0    0  0.22273026266E+02 -0.17393523091E+03 -0.96672291095E+02  0.21575374821E+03  0.80340498836E+02 0.  0.
          6    2    1    2  501    0 -0.37420358777E+02  0.18192279399E+03  0.67999715228E+02  0.26168167887E+03  0.17133929369E+03 0.  0.
         24    2    5    5    0    0  0.14233298799E+02  0.14372033095E+03 -0.46194828799E+01  0.16460868337E+03  0.78845156432E+02 0.  0.
          5    1    5    5  501    0 -0.51653657576E+02  0.38202463040E+02  0.72619198108E+02  0.97072995509E+02  0.47000000000E+01 0. -1.
        -11    1    6    6    0    0  0.93514808452E+01  0.15339829656E+03 -0.49712613278E+01  0.15376345802E+03  0.00000000000E+00 0.  1.
         12    1    6    6    0    0  0.48818179538E+01 -0.96779656063E+01  0.35177844795E+00  0.10845225350E+02  0.00000000000E+00 0. -1.
         -5    1    3    3    0  503  0.15147332511E+02 -0.79875630862E+01 -0.98390320753E+02  0.99979938309E+02  0.47000000000E+01 0.  1.
         13    1    4    4    0    0  0.23783004243E+02 -0.12804179643E+02 -0.32621266071E+02  0.42352394350E+02  0.00000000000E+00 0. -1.
        -14    1    4    4    0    0 -0.15099779780E+01 -0.16113105126E+03 -0.64051025025E+02  0.17340135386E+03  0.00000000000E+00 0.  1.
</event>
<event>
12    1  0.8691829E-002  0.1833364E+03  0.7818608E-02  0.1165868E+00
         21   -1    0    0  503  502  0.00000000000E+00  0.00000000000E+00  0.36781982472E+02  0.36781982472E+02  0.00000000000E+00 0. -1.
         21   -1    0    0  501  503 -0.00000000000E+00 -0.00000000000E+00 -0.10504227077E+04  0.10504227077E+04  0.00000000000E+00 0. -1.
          6    2    1    2  501    0 -0.46481084684E+02  0.94303027651E+01 -0.71440338258E+03  0.73626988905E+03  0.17167333699E+03 0.  0.
         24    2    3    3    0    0 -0.41269398720E+02  0.69484530887E+02 -0.37480602961E+03  0.39133203359E+03  0.78293916596E+02 0.  0.
         -6    2    1    2    0  502  0.46481084684E+02 -0.94303027651E+01 -0.29923734262E+03  0.35093480110E+03  0.17709552665E+03 0.  0.
        -24    2    5    5    0    0  0.23570964741E+02  0.63712700022E+02 -0.15612107628E+03  0.18851827440E+03  0.80934855296E+02 0.  0.
          5    1    3    3  501    0 -0.52116859631E+01 -0.60054228122E+02 -0.33959735297E+03  0.34493785546E+03  0.47000000000E+01 0. -1.
        -11    1    4    4    0    0  0.78026420059E+01  0.54421965623E+02 -0.25722010287E+03  0.26303006081E+03  0.00000000000E+00 0.  1.
         12    1    4    4    0    0 -0.49072040726E+02  0.15062565264E+02 -0.11758592673E+03  0.12830197278E+03  0.00000000000E+00 0. -1.
         -5    1    5    5    0  502  0.22910119943E+02 -0.73143002787E+02 -0.14311626634E+03  0.16241652670E+03  0.47000000000E+01 0.  1.
         11    1    6    6    0    0  0.35521915814E+02  0.51319910299E+02 -0.47218420836E+02  0.78263139232E+02  0.00000000000E+00 0. -1.
        -12    1    6    6    0    0 -0.11950951073E+02  0.12392789723E+02 -0.10890265544E+03  0.11025513517E+03  0.00000000000E+00 0.  1.
</event>
<event>
12    1  0.8691829E-002  0.2383151E+03  0.7818608E-02  0.1122312E+00
         21   -1    0    0  503  502  0.00000000000E+00  0.00000000000E+00  0.11253146516E+04  0.11253146516E+04  0.00000000000E+00 0. -1.
         21   -1    0    0  501  503 -0.00000000000E+00 -0.00000000000E+00 -0.56789455611E+02  0.56789455611E+02  0.00000000000E+00 0. -1.
          6    2    1    2  501    0 -0.95719079458E+02  0.14382552273E+03  0.32004625717E+03  0.39902844340E+03  0.16415288226E+03 0.  0.
         24    2    3    3    0    0  0.92259999767E+01  0.60490927465E+02  0.17630803258E+03  0.20245557734E+03  0.78482272271E+02 0.  0.
         -6    2    1    2    0  502  0.95719079458E+02 -0.14382552273E+03  0.74847893881E+03  0.78307566380E+03  0.15211459573E+03 0.  0.
        -24    2    5    5    0    0  0.68721025497E+02 -0.74241710412E+02  0.63011223653E+03  0.64306292130E+03  0.79082736512E+02 0.  0.
          5    1    3    3  501    0 -0.10494507943E+03  0.83334595263E+02  0.14373822459E+03  0.19657286606E+03  0.47000000000E+01 0. -1.
        -13    1    4    4    0    0  0.10092238221E+02  0.52534440568E+02  0.18384013965E+03  0.19146518656E+03  0.00000000000E+00 0.  1.
         14    1    4    4    0    0 -0.86623824452E+00  0.79564868968E+01 -0.75321070710E+01  0.10990390774E+02  0.00000000000E+00 0. -1.
         -5    1    5    5    0  502  0.26998053961E+02 -0.69583812316E+02  0.11836670228E+03  0.14001274250E+03  0.47000000000E+01 0.  1.
         11    1    6    6    0    0  0.28728640665E+02 -0.95808718319E+01  0.53638594343E+02  0.61597294605E+02  0.00000000000E+00 0. -1.
        -12    1    6    6    0    0  0.39992384832E+02 -0.64660838581E+02  0.57647364219E+03  0.58146562669E+03  0.00000000000E+00 0.  1.
</event>
<event>
12    1  0.8691829E-002  0.2829103E+03  0.7818608E-02  0.1094341E+00
         21   -1    0    0  503  502  0.00000000000E+00  0.00000000000E+00  0.28199102625E+03  0.28199102625E+03  0.00000000000E+00 0. -1.
         21   -1    0    0  501  503 -0.00000000000E+00 -0.00000000000E+00 -0.28643717816E+03  0.28643717816E+03  0.00000000000E+00 0.  1.
          6    2    1    2  501    0 -0.81149529832E+02 -0.20957638385E+03 -0.37131651079E+02  0.28533664062E+03  0.17184508171E+03 0.  0.
         24    2    3    3    0    0  0.18746929646E+02 -0.61353024447E+02 -0.18874750775E+02  0.10560108126E+03  0.81729377624E+02 0.  0.
         -6    2    1    2    0  502  0.81149529832E+02  0.20957638385E+03  0.32685499172E+02  0.28309156379E+03  0.16901178885E+03 0.  0.
        -24    2    5    5    0    0  0.95031979782E+01  0.76560720773E+02  0.62827317428E+02  0.12895856051E+03  0.82043791819E+02 0.  0.
          5    1    3    3  501    0 -0.99896459478E+02 -0.14822335941E+03 -0.18256900303E+02  0.17973555936E+03  0.47000000000E+01 0. -1.
        -13    1    4    4    0    0  0.33188235396E+02 -0.50888396171E+02 -0.43839933025E+02  0.74920141225E+02  0.00000000000E+00 0.  1.
         14    1    4    4    0    0 -0.14441305750E+02 -0.10464628276E+02  0.24965182250E+02  0.30680940036E+02  0.00000000000E+00 0. -1.
         -5    1    5    5    0  502  0.71646331854E+02  0.13301566308E+03 -0.30141818256E+02  0.15413300328E+03  0.47000000000E+01 0.  1.
         11    1    6    6    0    0  0.23236712677E+02  0.66434757174E+02  0.71712578470E+01  0.70745662170E+02  0.00000000000E+00 0. -1.
        -12    1    6    6    0    0 -0.13733514699E+02  0.10125963600E+02  0.55656059581E+02  0.58212898338E+02  0.00000000000E+00 0.  1.
</event>
<event>
12    1  0.8691829E-002  0.2767895E+03  0.7818608E-02  0.1097667E+00
         21   -1    0    0  501  502  0.00000000000E+00  0.00000000000E+00  0.24728724164E+03  0.24728724164E+03  0.00000000000E+00 0.  1.
         21   -1    0    0  502  503 -0.00000000000E+00 -0.00000000000E+00 -0.32478198049E+03  0.32478198049E+03  0.00000000000E+00 0. -1.
         -6    2    1    2    0  503  0.18616530352E+03  0.10790292150E+03 -0.10365383123E+03  0.29556138380E+03  0.17410299872E+03 0.  0.
        -24    2    3    3    0    0  0.91207137307E+02  0.64289307600E+02  0.12428620740E+02  0.13930381982E+03  0.82457423163E+02 0.  0.
          6    2    1    2  501    0 -0.18616530352E+03 -0.10790292150E+03  0.26159092379E+02  0.27650783833E+03  0.17167331138E+03 0.  0.
         24    2    5    5    0    0 -0.15959358937E+03 -0.14119813020E+03  0.24117871830E+02  0.23360232008E+03  0.92635557247E+02 0.  0.
          5    1    5    5  501    0 -0.26571714148E+02  0.33295208695E+02  0.20412205491E+01  0.42905518248E+02  0.47000000000E+01 0. -1.
        -13    1    6    6    0    0 -0.37260769624E+02 -0.16034291276E+02  0.41119432476E+02  0.57760463786E+02  0.00000000000E+00 0.  1.
         14    1    6    6    0    0 -0.12233281975E+03 -0.12516383892E+03 -0.17001560646E+02  0.17584185630E+03  0.00000000000E+00 0. -1.
         -5    1    3    3    0  503  0.94958166215E+02  0.43613613903E+02 -0.11608245197E+03  0.15625756399E+03  0.47000000000E+01 0.  1.
         13    1    4    4    0    0  0.83210517108E+01 -0.16268808643E+02 -0.11056346061E+02  0.21357828178E+02  0.00000000000E+00 0. -1.
        -14    1    4    4    0    0  0.82886085596E+02  0.80558116243E+02  0.23484966801E+02  0.11794599164E+03  0.00000000000E+00 0.  1.
</event>
<event>
12    1  0.8691829E-002  0.1853287E+03  0.7818608E-02  0.1162856E+00
         21   -1    0    0  501  502  0.00000000000E+00  0.00000000000E+00  0.56063260359E+03  0.56063260359E+03  0.00000000000E+00 0. -1.
         21   -1    0    0  502  503 -0.00000000000E+00 -0.00000000000E+00 -0.68455795752E+02  0.68455795752E+02  0.00000000000E+00 0. -1.
         -6    2    1    2    0  503 -0.26395770359E+02 -0.63120548786E+02  0.34887816276E+03  0.39482098716E+03  0.17171691553E+03 0.  0.
        -24    2    3    3    0    0 -0.13386684234E+02 -0.63900253674E+02  0.36426366924E+03  0.37411716936E+03  0.54892530875E+02 0.  0.
          6    2    1    2  501    0  0.26395770359E+02  0.63120548786E+02  0.14329864508E+03  0.23426741218E+03  0.17223756372E+03 0.  0.
         24    2    5    5    0    0  0.12112467611E+02 -0.27320766606E+02  0.41980489390E+02  0.97625167838E+02  0.82916679542E+02 0.  0.
          5    1    5    5  501    0  0.14283302747E+02  0.90441315392E+02  0.10131815569E+03  0.13664224434E+03  0.47000000000E+01 0. -1.
        -11    1    6    6    0    0  0.45485541935E+02 -0.11772069424E+01  0.25350208525E+02  0.52086019368E+02  0.00000000000E+00 0.  1.
         12    1    6    6    0    0 -0.33373074324E+02 -0.26143559664E+02  0.16630280865E+02  0.45539148470E+02  0.00000000000E+00 0. -1.
         -5    1    3    3    0  503 -0.13009086125E+02  0.77970488797E+00 -0.15385506486E+02  0.20703817797E+02  0.47000000000E+01 0.  1.
         11    1    4    4    0    0  0.21034112411E+02 -0.32083277082E+02  0.15697566534E+03  0.16159557563E+03  0.00000000000E+00 0. -1.
        -12    1    4    4    0    0 -0.34420796645E+02 -0.31816976592E+02  0.20728800390E+03  0.21252159373E+03  0.00000000000E+00 0.  1.
</event>
<event>
12    1  0.8691829E-002  0.1902539E+03  0.7818608E-02  0.1158240E+00
         21   -1    0    0  501  502  0.00000000000E+00  0.00000000000E+00  0.19941518301E+03  0.19941518301E+03  0.00000000000E+00 0.  1.
         21   -1    0    0  502  503 -0.00000000000E+00 -0.00000000000E+00 -0.19643297797E+03  0.19643297797E+03  0.00000000000E+00 0.  1.
         -6    2    1    2    0  503 -0.83620806842E+02 -0.36085501848E+01 -0.53112246287E+02  0.19752837792E+03  0.17085399733E+03 0.  0.
        -24    2    3    3    0    0 -0.17813218917E+02 -0.56622959225E+02 -0.54797263741E+02  0.11287558423E+03  0.78833286895E+02 0.  0.
          6    2    1    2  501    0  0.83620806842E+02  0.36085501848E+01  0.56094451329E+02  0.19831978306E+03  0.17081770374E+03 0.  0.
         24    2    5    5    0    0  0.12093100433E+02  0.47950553764E+02  0.66188853351E+02  0.11342918866E+03  0.77715621641E+02 0.  0.
          5    1    5    5  501    0  0.71527706410E+02 -0.44342003579E+02 -0.10094402022E+02  0.84890594401E+02  0.47000000000E+01 0. -1.
        -11    1    6    6    0    0  0.22664832410E+02  0.55144091178E+02  0.16130878900E+02  0.61763829821E+02  0.00000000000E+00 0.  1.
         12    1    6    6    0    0 -0.10571731978E+02 -0.71935374140E+01  0.50057974451E+02  0.51665358836E+02  0.00000000000E+00 0. -1.
         -5    1    3    3    0  503 -0.65807587925E+02  0.53014409041E+02  0.16850174534E+01  0.84652793683E+02  0.47000000000E+01 0.  1.
         11    1    4    4    0    0  0.30226418846E+02 -0.34157632739E+02 -0.26899010010E+02  0.52952214403E+02  0.00000000000E+00 0. -1.
        -12    1    4    4    0    0 -0.48039637763E+02 -0.22465326486E+02 -0.27898253731E+02  0.59923369830E+02  0.00000000000E+00 0.  1.
</event>
<event>
12    1  0.8691829E-002  0.1758063E+03  0.7818608E-02  0.1172268E+00
         21   -1    0    0  501  502  0.00000000000E+00  0.00000000000E+00  0.21812198755E+03  0.21812198755E+03  0.00000000000E+00 0.  1.
         21   -1    0    0  502  503 -0.00000000000E+00 -0.00000000000E+00 -0.14154537373E+03  0.14154537373E+03  0.00000000000E+00 0.  1.
         -6    2    1    2    0  503  0.29817785598E+02  0.11500308907E+02  0.53155613495E+02  0.18366645592E+03  0.17287709606E+03 0.  0.
        -24    2    3    3    0    0  0.30859411937E+02  0.59764663127E+02 -0.81545293515E+01  0.10549001133E+03  0.80854980533E+02 0.  0.
          6    2    1    2  501    0 -0.29817785598E+02 -0.11500308907E+02  0.23421000321E+02  0.17600090535E+03  0.17148299620E+03 0.  0.
         24    2    5    5    0    0 -0.16369250755E+02 -0.14543858619E+02  0.81467384475E+02  0.11615444349E+03  0.79846376345E+02 0.  0.
          5    1    5    5  501    0 -0.13448534843E+02  0.30435497121E+01 -0.58046384154E+02  0.59846461864E+02  0.47000000000E+01 0. -1.
        -13    1    6    6    0    0  0.28288118387E+02 -0.12542847192E+02  0.57827741858E+02  0.65586495454E+02  0.00000000000E+00 0.  1.
         14    1    6    6    0    0 -0.44657369142E+02 -0.20010114272E+01  0.23639642618E+02  0.50567948036E+02  0.00000000000E+00 0. -1.
         -5    1    3    3    0  503 -0.10416263385E+01 -0.48264354220E+02  0.61310142847E+02  0.78176444596E+02  0.47000000000E+01 0.  1.
         13    1    4    4    0    0  0.46238649040E+02  0.25018878481E+02  0.21990613264E+02  0.56987226790E+02  0.00000000000E+00 0. -1.
        -14    1    4    4    0    0 -0.15379237103E+02  0.34745784646E+02 -0.30145142615E+02  0.48502784537E+02  0.00000000000E+00 0.  1.
</event>
<event>
12    1  0.8691829E-002  0.2276077E+03  0.7818608E-02  0.1128336E+00
         21   -1    0    0  503  502  0.00000000000E+00  0.00000000000E+00  0.61039841180E+03  0.61039841180E+03  0.00000000000E+00 0.  1.
         21   -1    0    0  501  503 -0.00000000000E+00 -0.00000000000E+00 -0.84897281498E+02  0.84897281498E+02  0.00000000000E+00 0.  1.
          6    2    1    2  501    0 -0.68203787732E+02 -0.13262111789E+03  0.26911849883E+03  0.35245855434E+03  0.17193646659E+03 0.  0.
         24    2    3    3    0    0 -0.81022607991E+02 -0.14299368432E+03  0.16370911217E+03  0.24566369921E+03  0.80858660264E+02 0.  0.
         -6    2    1    2    0  502  0.68203787732E+02  0.13262111789E+03  0.25638263147E+03  0.34283713895E+03  0.17194514403E+03 0.  0.
        -24    2    5    5    0    0  0.79846870855E+02  0.12156533640E+03  0.11787580714E+03  0.20332361963E+03  0.79322976433E+02 0.  0.
          5    1    3    3  501    0  0.12818820258E+02  0.10372566428E+02  0.10540938666E+03  0.10679485513E+03  0.47000000000E+01 0. -1.
        -13    1    4    4    0    0 -0.64139189603E+02 -0.48209852424E+02  0.42268069076E+02  0.90689664114E+02  0.00000000000E+00 0.  1.
         14    1    4    4    0    0 -0.16883418388E+02 -0.94783831895E+02  0.12144104310E+03  0.15497403509E+03  0.00000000000E+00 0. -1.
         -5    1    5    5    0  502 -0.11643083123E+02  0.11055781490E+02  0.13850682433E+03  0.13951351932E+03  0.47000000000E+01 0.  1.
         13    1    6    6    0    0 -0.43662331767E+01 -0.86564298502E+01  0.12549914421E+02  0.15858692313E+02  0.00000000000E+00 0. -1.
        -14    1    6    6    0    0  0.84213104032E+02  0.13022176625E+03  0.10532589272E+03  0.18746492732E+03  0.00000000000E+00 0.  1.
</event>
<event>
12    1  0.8691829E-002  0.2046921E+03  0.7818608E-02  0.1148002E+00
         21   -1    0    0  501  502  0.00000000000E+00  0.00000000000E+00  0.99242237125E+02  0.99242237125E+02  0.00000000000E+00 0. -1.
         21   -1    0    0  502  503 -0.00000000000E+00 -0.00000000000E+00 -0.44841822896E+03  0.44841822896E+03  0.00000000000E+00 0. -1.
         -6    2    1    2    0  503  0.61425643995E+02  0.66729132665E+02 -0.81786557656E+02  0.21091730192E+03  0.17196272953E+03 0.  0.
        -24    2    3    3    0    0 -0.23725093819E+02  0.26795023365E+01 -0.58210503303E+02  0.10168853449E+03  0.79887643236E+02 0.  0.
          6    2    1    2  501    0 -0.61425643995E+02 -0.66729132665E+02 -0.26738943418E+03  0.33674316417E+03  0.18350194064E+03 0.  0.
         24    2    5    5    0    0  0.42474817267E+02 -0.45429713335E+02 -0.12327123331E+03  0.15774283753E+03  0.76282611881E+02 0.  0.
          5    1    5    5  501    0 -0.10390046126E+03 -0.21299419330E+02 -0.14411820087E+03  0.17900032663E+03  0.47000000000E+01 0. -1.
        -13    1    6    6    0    0  0.58979744471E+02 -0.40459112778E+02 -0.63866566445E+02  0.95887894826E+02  0.00000000000E+00 0.  1.
         14    1    6    6    0    0 -0.16504927204E+02 -0.49706005570E+01 -0.59404666864E+02  0.61854942706E+02  0.00000000000E+00 0. -1.
         -5    1    3    3    0  503  0.85150737814E+02  0.64049630328E+02 -0.23576054354E+02  0.10922876743E+03  0.47000000000E+01 0.  1.
         11    1    4    4    0    0  0.23859980749E+02 -0.52340397563E+01 -0.45755876149E+02  0.51868044649E+02  0.00000000000E+00 0. -1.
        -12    1    4    4    0    0 -0.47585074568E+02  0.79135420928E+01 -0.12454627153E+02  0.49820489837E+02  0.00000000000E+00 0.  1.
</event>
<event>
12    1  0.8691829E-002  0.2215329E+03  0.7818608E-02  0.1132804E+00
         21   -1    0    0  503  502  0.00000000000E+00  0.00000000000E+00  0.87665788919E+02  0.87665788919E+02  0.00000000000E+00 0.  1.
         21   -1    0    0  501  503 -0.00000000000E+00 -0.00000000000E+00 -0.67484678629E+03  0.67484678629E+03  0.00000000000E+00 0.  1.
          6    2    1    2  501    0  0.13569771626E+03 -0.30204325332E+02 -0.45171182972E+03  0.50311073261E+03  0.17248379836E+03 0.  0.
         24    2    3    3    0    0  0.38487957690E+02  0.39070230838E+02 -0.26065947647E+03  0.27778476212E+03  0.78823889604E+02 0.  0.
         -6    2    1    2    0  502 -0.13569771626E+03  0.30204325332E+02 -0.13546916766E+03  0.25940184260E+03  0.17207919424E+03 0.  0.
        -24    2    5    5    0    0 -0.15670214175E+03  0.56717605164E+02 -0.97371140549E+02  0.20823848103E+03  0.78164429268E+02 0.  0.
          5    1    3    3  501    0  0.97209758572E+02 -0.69274556170E+02 -0.19105235325E+03  0.22532597049E+03  0.47000000000E+01 0. -1.
        -11    1    4    4    0    0  0.49415401054E+02  0.56652789798E+02 -0.19778911315E+03  0.21159384144E+03  0.00000000000E+00 0.  1.
         12    1    4    4    0    0 -0.10927443364E+02 -0.17582558960E+02 -0.62870363314E+02  0.66190920686E+02  0.00000000000E+00 0. -1.
         -5    1    5    5    0  502  0.21004425492E+02 -0.26513279832E+02 -0.38098027110E+02  0.51163361572E+02  0.47000000000E+01 0.  1.
         13    1    6    6    0    0 -0.39604361987E+02 -0.10744751278E+02 -0.50787408474E+02  0.65294073452E+02  0.00000000000E+00 0. -1.
        -14    1    6    6    0    0 -0.11709777977E+03  0.67462356442E+02 -0.46583732075E+02  0.14294440758E+03  0.00000000000E+00 0.  1.
</event>
<event>
12    1  0.8691829E-002  0.2914614E+03  0.7818608E-02  0.1089693E+00
         21   -1    0    0  501  502  0.00000000000E+00  0.00000000000E+00  0.16073074934E+04  0.16073074934E+04  0.00000000000E+00 0.  1.
         21   -1    0    0  502  503 -0.00000000000E+00 -0.00000000000E+00 -0.18557660063E+03  0.18557660063E+03  0.00000000000E+00 0.  1.
         -6    2    1    2    0  503  0.22620708342E+03  0.64714626524E+02 -0.47942790201E+02  0.29458823430E+03  0.17066367269E+03 0.  0.
        -24    2    3    3    0    0  0.17378918709E+03  0.54665514866E+02 -0.97767947154E+02  0.22142228070E+03  0.79235439248E+02 0.  0.
          6    2    1    2  501    0 -0.22620708342E+03 -0.64714626524E+02  0.14696736830E+04  0.14982958598E+04  0.17202360710E+03 0.  0.
         24    2    5    5    0    0 -0.24168931109E+03 -0.38350220115E+02  0.13667852368E+04  0.13908579537E+04  0.80619484857E+02 0.  0.
          5    1    5    5  501    0  0.15482227669E+02 -0.26364406410E+02  0.10288844621E+03  0.10743790608E+03  0.47000000000E+01 0. -1.
        -13    1    6    6    0    0 -0.93842882061E+02 -0.49617608955E+01  0.74314784751E+03  0.74906597095E+03  0.00000000000E+00 0.  1.
         14    1    6    6    0    0 -0.14784642903E+03 -0.33388459219E+02  0.62363738928E+03  0.64179198273E+03  0.00000000000E+00 0. -1.
         -5    1    3    3    0  503  0.52417896330E+02  0.10049111659E+02  0.49825156953E+02  0.73165953600E+02  0.47000000000E+01 0.  1.
         13    1    4    4    0    0  0.98531342309E+02  0.56837757489E+02 -0.24482121984E+02  0.11635433121E+03  0.00000000000E+00 0. -1.
        -14    1    4    4    0    0  0.75257844783E+02 -0.21722426234E+01 -0.73285825170E+02  0.10506794949E+03  0.00000000000E+00 0.  1.
</event>
<event>
12    1  0.8691829E-002  0.1885174E+03  0.7818608E-02  0.1159832E+00
         21   -1    0    0  503  502  0.00000000000E+00  0.00000000000E+00  0.22863442758E+02  0.22863442758E+02  0.00000000000E+00 0.  1.
         21   -1    0    0  501  503 -0.00000000000E+00 -0.00000000000E+00 -0.19161257992E+04  0.19161257992E+04  0.00000000000E+00 0.  1.
          6    2    1    2  501    0  0.73496779740E+02 -0.19614208792E+02 -0.52460911199E+03  0.55741386243E+03  0.17236298856E+03 0.  0.
         24    2    3    3    0    0  0.30275396328E+02  0.22212173442E+02 -0.12046876802E+03  0.14879540731E+03  0.78850294213E+02 0.  0.
         -6    2    1    2    0  502 -0.73496779740E+02  0.19614208792E+02 -0.13686532445E+04  0.13815753796E+04  0.17248864298E+03 0.  0.
        -24    2    5    5    0    0 -0.37559376307E+02  0.79091958714E+02 -0.89197192198E+03  0.89983242639E+03  0.80113927077E+02 0.  0.
          5    1    3    3  501    0  0.43221383412E+02 -0.41826382235E+02 -0.40414034397E+03  0.40861845512E+03  0.47000000000E+01 0. -1.
        -11    1    4    4    0    0  0.48321159357E+02  0.39334895331E+02 -0.82051675085E+02  0.10302740323E+03  0.00000000000E+00 0.  1.
         12    1    4    4    0    0 -0.18045763028E+02 -0.17122721888E+02 -0.38417092933E+02  0.45768004081E+02  0.00000000000E+00 0. -1.
         -5    1    5    5    0  502 -0.35937403434E+02 -0.59477749922E+02 -0.47668132251E+03  0.48174295317E+03  0.47000000000E+01 0.  1.
         11    1    6    6    0    0 -0.51478520815E+02  0.33770069277E+02 -0.31795289448E+03  0.32385876364E+03  0.00000000000E+00 0. -1.
        -12    1    6    6    0    0  0.13919144509E+02  0.45321889437E+02 -0.57401902750E+03  0.57597366275E+03  0.00000000000E+00 0.  1.
</event>
<event>
12    1  0.8691829E-002  0.1777009E+03  0.7818608E-02  0.1170306E+00
         21   -1    0    0  503  502  0.00000000000E+00  0.00000000000E+00  0.44153332193E+03  0.44153332193E+03  0.00000000000E+00 0. -1.
         21   -1    0    0  501  503 -0.00000000000E+00 -0.00000000000E+00 -0.13808537202E+03  0.13808537202E+03  0.00000000000E+00 0. -1.
          6    2    1    2  501    0  0.30564393829E+02 -0.29410175377E+02 -0.49899387614E+02  0.18457400162E+03  0.17256440132E+03 0.  0.
         24    2    3    3    0    0 -0.34627352476E+01  0.30397187998E+02  0.20953699677E+02  0.85695206086E+02  0.77256917117E+02 0.  0.
         -6    2    1    2    0  502 -0.30564393829E+02  0.29410175377E+02  0.35334733752E+03  0.39504469233E+03  0.17148419000E+03 0.  0.
        -24    2    5    5    0    0 -0.86027063551E+02  0.30940574438E+02  0.23516260522E+03  0.26439948268E+03  0.79042145344E+02 0.  0.
          5    1    3    3  501    0  0.34027129076E+02 -0.59807363375E+02 -0.70853087291E+02  0.98878795531E+02  0.47000000000E+01 0. -1.
        -11    1    4    4    0    0 -0.29137413611E+02  0.40626319369E+02  0.27825071078E+02  0.57216442374E+02  0.00000000000E+00 0.  1.
         12    1    4    4    0    0  0.25674678363E+02 -0.10229131372E+02 -0.68713714016E+01  0.28478763713E+02  0.00000000000E+00 0. -1.
         -5    1    5    5    0  502  0.55462669723E+02 -0.15303990614E+01  0.11818473231E+03  0.13064520965E+03  0.47000000000E+01 0.  1.
         11    1    6    6    0    0 -0.37881077301E+02  0.50446580002E+02  0.87536244549E+02  0.10790008138E+03  0.00000000000E+00 0. -1.
        -12    1    6    6    0    0 -0.48145986250E+02 -0.19506005563E+02  0.14762636067E+03  0.15649940131E+03  0.00000000000E+00 0.  1.
</event>
<event>
12    1  0.8691829E-002  0.1759614E+03  0.7818608E-02  0.1172355E+00
         21   -1    0    0  503  502  0.00000000000E+00  0.00000000000E+00  0.30851775188E+03  0.30851775188E+03  0.00000000000E+00 0.  1.
         21   -1    0    0  501  503 -0.00000000000E+00 -0.00000000000E+00 -0.25472855867E+03  0.25472855867E+03  0.00000000000E+00 0.  1.
          6    2    1    2  501    0  0.94181435408E+01 -0.26013184096E+02 -0.19334765244E+03  0.25986696830E+03  0.17141219133E+03 0.  0.
         24    2    3    3    0    0 -0.26687294095E+02 -0.45738362336E+02 -0.19450193852E+03  0.21844103850E+03  0.84150304576E+02 0.  0.
         -6    2    1    2    0  502 -0.94181435408E+01  0.26013184096E+02  0.24713684564E+03  0.30337934225E+03  0.17377289102E+03 0.  0.
        -24    2    5    5    0    0  0.34294195545E+02  0.12397649378E+02  0.52177894259E+02  0.10306150955E+03  0.81051517831E+02 0.  0.
          5    1    3    3  501    0  0.36105437636E+02  0.19725178240E+02  0.11542860797E+01  0.41425929801E+02  0.47000000000E+01 0. -1.
        -13    1    4    4    0    0 -0.27327741096E+01 -0.80369977418E+01 -0.16430424621E+03  0.16452339259E+03  0.00000000000E+00 0.  1.
         14    1    4    4    0    0 -0.23954519986E+02 -0.37701364595E+02 -0.30197692306E+02  0.53917645912E+02  0.00000000000E+00 0. -1.
         -5    1    5    5    0  502 -0.43712339086E+02  0.13615534719E+02  0.19495895138E+03  0.20031783270E+03  0.47000000000E+01 0.  1.
         11    1    6    6    0    0  0.24003286638E+02 -0.31189106042E+02  0.80148494556E+01  0.40164112301E+02  0.00000000000E+00 0. -1.
        -12    1    6    6    0    0  0.10290908907E+02  0.43586755419E+02  0.44163044803E+02  0.62897397247E+02  0.00000000000E+00 0.  1.
</event>
<event>
12    1  0.8691829E-002  0.1786489E+03  0.7818608E-02  0.1169278E+00
         21   -1    0    0  501  502  0.00000000000E+00  0.00000000000E+00  0.76579830753E+02  0.76579830753E+02  0.00000000000E+00 0.  1.
         21   -1    0    0  502  503 -0.00000000000E+00 -0.00000000000E+00 -0.52810552630E+03  0.52810552630E+03  0.00000000000E+00 0.  1.
         -6    2    1    2    0  503 -0.43059079421E+02  0.16295816643E+02 -0.36586572209E+03  0.40715247624E+03  0.17261452532E+03 0.  0.
        -24    2    3    3    0    0  0.29092297019E+02 -0.31638319234E+02 -0.13821289116E+03  0.16353104054E+03  0.76106852170E+02 0.  0.
          6    2    1    2  501    0  0.43059079421E+02 -0.16295816643E+02 -0.85659973458E+02  0.19753288081E+03  0.17193594734E+03 0.  0.
         24    2    5    5    0    0  0.18993313678E+02  0.51170636174E+02 -0.18826123385E+02  0.99452623611E+02  0.80976672262E+02 0.  0.
          5    1    5    5  501    0  0.24065765743E+02 -0.67466452817E+02 -0.66833850073E+02  0.98080257198E+02  0.47000000000E+01 0. -1.
        -13    1    6    6    0    0 -0.27433408421E+02  0.40459089659E+02 -0.20042530890E+01  0.48923888481E+02  0.00000000000E+00 0.  1.
         14    1    6    6    0    0  0.46426722099E+02  0.10711546515E+02 -0.16821870296E+02  0.50528735130E+02  0.00000000000E+00 0. -1.
         -5    1    3    3    0  503 -0.72151376440E+02  0.47934135876E+02 -0.22765283093E+03  0.24362143571E+03  0.47000000000E+01 0.  1.
         13    1    4    4    0    0 -0.42067232386E+01 -0.17243496364E+02  0.27624521979E+01  0.17962901476E+02  0.00000000000E+00 0. -1.
        -14    1    4    4    0    0  0.33299020258E+02 -0.14394822869E+02 -0.14097534336E+03  0.14556813906E+03  0.00000000000E+00 0.  1.
</event>
<event>
12    1  0.8691829E-002  0.2179782E+03  0.7818608E-02  0.1135609E+00
         21   -1    0    0  501  502  0.00000000000E+00  0.00000000000E+00  0.14712293061E+03  0.14712293061E+03  0.00000000000E+00 0.  1.
         21   -1    0    0  502  503 -0.00000000000E+00 -0.00000000000E+00 -0.47648433327E+03  0.47648433327E+03  0.00000000000E+00 0. -1.
         -6    2    1    2    0  503  0.12433224472E+03 -0.43877848156E+02 -0.34232888620E+03  0.40524371711E+03  0.17219068295E+03 0.  0.
        -24    2    3    3    0    0  0.41387221103E+02  0.12492544519E+02 -0.26089842674E+03  0.27597458762E+03  0.78898784489E+02 0.  0.
          6    2    1    2  501    0 -0.12433224472E+03  0.43877848156E+02  0.12967483546E+02  0.21836354676E+03  0.17358199875E+03 0.  0.
         24    2    5    5    0    0 -0.18908636106E+02  0.42712259792E+02 -0.39425059960E+02  0.10053925188E+03  0.79824383246E+02 0.  0.
          5    1    5    5  501    0 -0.10542360861E+03  0.11655883641E+01  0.52392543506E+02  0.11782429488E+03  0.47000000000E+01 0. -1.
        -11    1    6    6    0    0  0.10655549428E+02  0.33369628244E+02  0.14838168883E+02  0.38042661297E+02  0.00000000000E+00 0.  1.
         12    1    6    6    0    0 -0.29564185534E+02  0.93426315479E+01 -0.54263228843E+02  0.62496590587E+02  0.00000000000E+00 0. -1.
         -5    1    3    3    0  503  0.82945023614E+02 -0.56370392676E+02 -0.81430459458E+02  0.12926912949E+03  0.47000000000E+01 0.  1.
         13    1    4    4    0    0  0.62624138902E+02  0.10321853011E+02 -0.14736724731E+03  0.16045382203E+03  0.00000000000E+00 0. -1.
        -14    1    4    4    0    0 -0.21236917800E+02  0.21706915085E+01 -0.11353117943E+03  0.11552076559E+03  0.00000000000E+00 0.  1.
</event>
<event>
12    1  0.8691829E-002  0.2257989E+03  0.7818608E-02  0.1129685E+00
         21   -1    0    0  501  502  0.00000000000E+00  0.00000000000E+00  0.39793467633E+03  0.39793467633E+03  0.00000000000E+00 0.  1.
         21   -1    0    0  502  503 -0.00000000000E+00 -0.00000000000E+00 -0.12796759104E+03  0.12796759104E+03  0.00000000000E+00 0. -1.
         -6    2    1    2    0  503 -0.97162708759E+02 -0.10908690133E+03  0.13721140634E+03  0.26396862513E+03  0.17179034027E+03 0.  0.
        -24    2    3    3    0    0 -0.10804803823E+03 -0.20372369052E+02  0.56898661704E+02  0.14371478700E+03  0.72986781765E+02 0.  0.
          6    2    1    2  501    0  0.97162708759E+02  0.10908690133E+03  0.13275567895E+03  0.26193364224E+03  0.17217612677E+03 0.  0.
         24    2    5    5    0    0  0.10082376938E+03  0.10673149150E+03  0.16144076123E+03  0.23254188718E+03  0.80346537914E+02 0.  0.
          5    1    5    5  501    0 -0.36610606212E+01  0.23554098384E+01 -0.28685082283E+02  0.29391755068E+02  0.47000000000E+01 0. -1.
        -13    1    6    6    0    0  0.11037992451E+03  0.73820528882E+02  0.12243529267E+03  0.18062004072E+03  0.00000000000E+00 0.  1.
         14    1    6    6    0    0 -0.95561551332E+01  0.32910962613E+02  0.39005468567E+02  0.51921846454E+02  0.00000000000E+00 0. -1.
         -5    1    3    3    0  503  0.10885329470E+02 -0.88714532281E+02  0.80312744632E+02  0.12025383813E+03  0.47000000000E+01 0.  1.
         13    1    4    4    0    0 -0.66772627117E+02  0.16497536655E+02  0.68927613297E+01  0.69124978167E+02  0.00000000000E+00 0. -1.
        -14    1    4    4    0    0 -0.41275411112E+02 -0.36869905707E+02  0.50005900374E+02  0.74589808832E+02  0.00000000000E+00 0.  1.
</event>
<event>
12    1  0.8691829E-002  0.2791234E+03  0.7818608E-02  0.1096837E+00
         21   -1    0    0  503  502  0.00000000000E+00  0.00000000000E+00  0.33846859279E+03  0.33846859279E+03  0.00000000000E+00 0.  1.
         21   -1    0    0  501  503 -0.00000000000E+00 -0.00000000000E+00 -0.77518187409E+03  0.77518187409E+03  0.00000000000E+00 0. -1.
          6    2    1    2  501    0  0.21653610393E+03  0.14562895730E+02 -0.68638123704E+03  0.73915889692E+03  0.16774000746E+03 0.  0.
         24    2    3    3    0    0  0.65727987095E+02 -0.27296610597E+02 -0.18689534281E+03  0.21570540815E+03  0.80831186454E+02 0.  0.
         -6    2    1    2    0  502 -0.21653610393E+03 -0.14562895730E+02  0.24966795574E+03  0.37449156995E+03  0.17552744971E+03 0.  0.
        -24    2    5    5    0    0 -0.18067333394E+03 -0.35285510566E+02  0.10902405367E+03  0.22780018565E+03  0.78222499655E+02 0.  0.
          5    1    3    3  501    0  0.15080811684E+03  0.41859506328E+02 -0.49948589423E+03  0.52345348877E+03  0.47000000000E+01 0. -1.
        -11    1    4    4    0    0 -0.10919163388E+02 -0.17662276271E+02 -0.86897885782E+02  0.89344427277E+02  0.00000000000E+00 0.  1.
         12    1    4    4    0    0  0.76647150483E+02 -0.96343343263E+01 -0.99997457029E+02  0.12636098087E+03  0.00000000000E+00 0. -1.
         -5    1    5    5    0  502 -0.35862769997E+02  0.20722614835E+02  0.14064390207E+03  0.14669138430E+03  0.47000000000E+01 0.  1.
         11    1    6    6    0    0 -0.73616149822E+02 -0.41158093688E+02  0.15983969482E+02  0.85841793265E+02  0.00000000000E+00 0. -1.
        -12    1    6    6    0    0 -0.10705718411E+03  0.58725831224E+01  0.93040084185E+02  0.14195839238E+03  0.00000000000E+00 0.  1.
</event>
<event>
12    1  0.8691829E-002  0.1998920E+03  0.7818608E-02  0.1150196E+00
         21   -1    0    0  501  502  0.00000000000E+00  0.00000000000E+00  0.69298457520E+03  0.69298457520E+03  0.00000000000E+00 0.  1.
         21   -1    0    0  502  503 -0.00000000000E+00 -0.00000000000E+00 -0.88325352665E+02  0.88325352665E+02  0.00000000000E+00 0. -1.
         -6    2    1    2    0  503 -0.95318831633E+02  0.17419465899E+02  0.69441036136E+02  0.20998225781E+03  0.17286229675E+03 0.  0.
        -24    2    3    3    0    0 -0.64545545563E+02 -0.36750102393E+02  0.91379821980E+02  0.14376490669E+03  0.82470473829E+02 0.  0.
          6    2    1    2  501    0  0.95318831633E+02 -0.17419465899E+02  0.53521818640E+03  0.57132767006E+03  0.17483615777E+03 0.  0.
         24    2    5    5    0    0  0.14169887042E+02  0.13395233396E+02  0.41476776758E+03  0.42278444303E+03  0.79587475582E+02 0.  0.
          5    1    5    5  501    0  0.81148944591E+02 -0.30814699295E+02  0.12045041882E+03  0.14854322702E+03  0.47000000000E+01 0. -1.
        -11    1    6    6    0    0  0.45048943894E+02 -0.47919391977E+01  0.20181442689E+03  0.20683673012E+03  0.00000000000E+00 0.  1.
         12    1    6    6    0    0 -0.30879056852E+02  0.18187172594E+02  0.21295334069E+03  0.21594771291E+03  0.00000000000E+00 0. -1.
         -5    1    3    3    0  503 -0.30773286070E+02  0.54169568292E+02 -0.21938785844E+02  0.66217351116E+02  0.47000000000E+01 0.  1.
         11    1    4    4    0    0 -0.20227242107E+02  0.15862516741E+02 -0.41563496396E+01  0.26039124466E+02  0.00000000000E+00 0. -1.
        -12    1    4    4    0    0 -0.44318303456E+02 -0.52612619134E+02  0.95536171620E+02  0.11772578223E+03  0.00000000000E+00 0.  1.
</event>
<event>
12    1  0.8691829E-002  0.3373698E+03  0.7818608E-02  0.1068195E+00
         21   -1    0    0  503  502  0.00000000000E+00  0.00000000000E+00  0.53484697764E+02  0.53484697764E+02  0.00000000000E+00 0.  1.
         21   -1    0    0  501  503 -0.00000000000E+00 -0.00000000000E+00 -0.26311041595E+04  0.26311041595E+04  0.00000000000E+00 0. -1.
          6    2    1    2  501    0  0.16562902791E+03  0.23495943815E+03 -0.18810593621E+04  0.19106286634E+04  0.17169348611E+03 0.  0.
         24    2    3    3    0    0  0.31454397285E+02  0.23621400259E+02 -0.55754012094E+03  0.56363502217E+03  0.72705585098E+02 0.  0.
         -6    2    1    2    0  502 -0.16562902791E+03 -0.23495943815E+03 -0.69656009960E+03  0.77396019383E+03  0.17657716960E+03 0.  0.
        -24    2    5    5    0    0 -0.16818115396E+02 -0.49372421772E+02 -0.15665213696E+03  0.18395178164E+03  0.81104136266E+02 0.  0.
          5    1    3    3  501    0  0.13417463063E+03  0.21133803789E+03 -0.13235192412E+04  0.13469936413E+04  0.47000000000E+01 0. -1.
        -11    1    4    4    0    0  0.18318676366E+02  0.27769839397E+02 -0.54137699492E+03  0.54239818263E+03  0.00000000000E+00 0.  1.
         12    1    4    4    0    0  0.13135720919E+02 -0.41484391386E+01 -0.16163126018E+02  0.21236839549E+02  0.00000000000E+00 0. -1.
         -5    1    5    5    0  502 -0.14881091251E+03 -0.18558701638E+03 -0.53990796264E+03  0.59000841219E+03  0.47000000000E+01 0.  1.
         11    1    6    6    0    0  0.22311054136E+02 -0.34314105732E+02 -0.12467761211E+03  0.13122403725E+03  0.00000000000E+00 0. -1.
        -12    1    6    6    0    0 -0.39129169532E+02 -0.15058316040E+02 -0.31974524843E+02  0.52727744397E+02  0.00000000000E+00 0.  1.
</event>
<event>
12    1  0.8691829E-002  0.2161311E+03  0.7818608E-02  0.1138229E+00
         21   -1    0    0  503  502  0.00000000000E+00  0.00000000000E+00  0.53142641929E+03  0.53142641929E+03  0.00000000000E+00 0.  1.
         21   -1    0    0  501  503 -0.00000000000E+00 -0.00000000000E+00 -0.89835794199E+02  0.89835794199E+02  0.00000000000E+00 0. -1.
          6    2    1    2  501    0 -0.31411980255E+01  0.11843895021E+03  0.15187616689E+03  0.26415716494E+03  0.18076223519E+03 0.  0.
         24    2    3    3    0    0  0.40674368485E+02  0.50999013187E+02  0.15153762121E+03  0.18359567546E+03  0.80550715753E+02 0.  0.
         -6    2    1    2    0  502  0.31411980255E+01 -0.11843895021E+03  0.28971445820E+03  0.35710504855E+03  0.17190665012E+03 0.  0.
        -24    2    5    5    0    0 -0.13581859612E+02 -0.30432609011E+02  0.24001749795E+03  0.25455430694E+03  0.77967206269E+02 0.  0.
          5    1    3    3  501    0 -0.43815566510E+02  0.67439937021E+02  0.33854568031E+00  0.80561489479E+02  0.47000000000E+01 0. -1.
        -11    1    4    4    0    0 -0.18439179606E+02  0.32245403755E+02  0.84319066425E+02  0.92138343650E+02  0.00000000000E+00 0.  1.
         12    1    4    4    0    0  0.59113548091E+02  0.18753609432E+02  0.67218554788E+02  0.91457331813E+02  0.00000000000E+00 0. -1.
         -5    1    5    5    0  502  0.16723057638E+02 -0.88006341196E+02  0.49696960244E+02  0.10255074161E+03  0.47000000000E+01 0.  1.
         13    1    6    6    0    0 -0.37783338220E+02 -0.39251992192E+02  0.11977837327E+03  0.13158707475E+03  0.00000000000E+00 0. -1.
        -14    1    6    6    0    0  0.24201478608E+02  0.88193831808E+01  0.12023912468E+03  0.12296723218E+03  0.00000000000E+00 0.  1.
</event>
<event>
12    1  0.8691829E-002  0.1989267E+03  0.7818608E-02  0.1151291E+00
         21   -1    0    0  503  502  0.00000000000E+00  0.00000000000E+00  0.38724144116E+03  0.38724144116E+03  0.00000000000E+00 0. -1.
         21   -1    0    0  501  503 -0.00000000000E+00 -0.00000000000E+00 -0.26085032724E+03  0.26085032724E+03  0.00000000000E+00 0. -1.
          6    2    1    2  501    0 -0.94652254332E+02 -0.99383771724E+01 -0.19056164732E+03  0.27547339823E+03  0.17468265831E+03 0.  0.
         24    2    3    3    0    0 -0.62682908788E+02  0.19528902340E+02 -0.44792839765E+02  0.12328603058E+03  0.94247131320E+02 0.  0.
         -6    2    1    2    0  502  0.94652254332E+02  0.99383771724E+01  0.31695276123E+03  0.37261837018E+03  0.17125296012E+03 0.  0.
        -24    2    5    5    0    0  0.62852279375E+02 -0.61771578675E+02  0.19757326038E+03  0.22969492424E+03  0.77190854703E+02 0.  0.
          5    1    3    3  501    0 -0.31969345543E+02 -0.29467279512E+02 -0.14576880755E+03  0.15218736765E+03  0.47000000000E+01 0. -1.
        -13    1    4    4    0    0  0.65183369268E+01  0.40011159985E+02 -0.27765995076E+02  0.49135853734E+02  0.00000000000E+00 0.  1.
         14    1    4    4    0    0 -0.69201245715E+02 -0.20482257645E+02 -0.17026844689E+02  0.74150176850E+02  0.00000000000E+00 0. -1.
         -5    1    5    5    0  502  0.31799974956E+02  0.71709955848E+02  0.11937950085E+03  0.14292344593E+03  0.47000000000E+01 0.  1.
         11    1    6    6    0    0  0.49703279377E+02 -0.54826168110E+02  0.20120920919E+03  0.21438626484E+03  0.00000000000E+00 0. -1.
        -12    1    6    6    0    0  0.13148999998E+02 -0.69454105652E+01 -0.36359488074E+01  0.15308659399E+02  0.00000000000E+00 0.  1.
</event>
<event>
12    1  0.8691829E-002  0.2375435E+03  0.7818608E-02  0.1121744E+00
         21   -1    0    0  501  502  0.00000000000E+00  0.00000000000E+00  0.36247137907E+03  0.36247137907E+03  0.00000000000E+00 0. -1.
         21   -1    0    0  502  503 -0.00000000000E+00 -0.00000000000E+00 -0.47832111561E+03  0.47832111561E+03  0.00000000000E+00 0. -1.
         -6    2    1    2    0  503 -0.15302276596E+03  0.57802298851E+02 -0.40389542887E+03  0.46857063373E+03  0.17224937931E+03 0.  0.
        -24    2    3    3    0    0 -0.85314655069E+02 -0.15963924381E+02 -0.31246524108E+03  0.33289671136E+03  0.75181489085E+02 0.  0.
          6    2    1    2  501    0  0.15302276596E+03 -0.57802298851E+02  0.28804569233E+03  0.37222186095E+03  0.16976960930E+03 0.  0.
         24    2    5    5    0    0  0.14982831752E+03 -0.76021350422E+02  0.16719635691E+03  0.24987485358E+03  0.79088875534E+02 0.  0.
          5    1    5    5  501    0  0.31944484344E+01  0.18219051571E+02  0.12084933542E+03  0.12234700737E+03  0.47000000000E+01 0. -1.
        -11    1    6    6    0    0  0.36455200461E+02  0.14918542687E+02  0.46603934742E+02  0.61020253113E+02  0.00000000000E+00 0.  1.
         12    1    6    6    0    0  0.11337311706E+03 -0.90939893110E+02  0.12059242217E+03  0.18885460046E+03  0.00000000000E+00 0. -1.
         -5    1    3    3    0  503 -0.67708110889E+02  0.73766223232E+02 -0.91430187795E+02  0.13567392237E+03  0.47000000000E+01 0.  1.
         11    1    4    4    0    0 -0.93200981531E+02  0.27027252025E+01 -0.23491246850E+03  0.25274017397E+03  0.00000000000E+00 0. -1.
        -12    1    4    4    0    0  0.78863264615E+01 -0.18666649583E+02 -0.77552772579E+02  0.80156537390E+02  0.00000000000E+00 0.  1.
</event>
<event>
12    1  0.8691829E-002  0.1800388E+03  0.7818608E-02  0.1167931E+00
         21   -1    0    0  501  502  0.00000000000E+00  0.00000000000E+00  0.46635267946E+03  0.46635267946E+03  0.00000000000E+00 0. -1.
         21   -1    0    0  502  503 -0.00000000000E+00 -0.00000000000E+00 -0.46798231452E+03  0.46798231452E+03  0.00000000000E+00 0. -1.
         -6    2    1    2    0  503  0.40868522462E+02  0.29631420357E+02 -0.43203901317E+03  0.46805092693E+03  0.17281696705E+03 0.  0.
        -24    2    3    3    0    0  0.33067722694E+02  0.16652878450E+02 -0.44100635854E+03  0.44983559520E+03  0.80589464515E+02 0.  0.
          6    2    1    2  501    0 -0.40868522462E+02 -0.29631420357E+02  0.43040937811E+03  0.46628406705E+03  0.17210561066E+03 0.  0.
         24    2    5    5    0    0 -0.11616654903E+02  0.26953826845E+02  0.10761919907E+03  0.13723520800E+03  0.79938444158E+02 0.  0.
          5    1    5    5  501    0 -0.29251867559E+02 -0.56585247201E+02  0.32279017904E+03  0.32904885905E+03  0.47000000000E+01 0. -1.
        -11    1    6    6    0    0 -0.43352674549E+02  0.83572474949E+00  0.63966212249E+02  0.77277610832E+02  0.00000000000E+00 0.  1.
         12    1    6    6    0    0  0.31736019646E+02  0.26118102095E+02  0.43652986820E+02  0.59957597170E+02  0.00000000000E+00 0. -1.
         -5    1    3    3    0  503  0.78007997678E+01  0.12978541906E+02  0.89673453717E+01  0.18215331730E+02  0.47000000000E+01 0.  1.
         11    1    4    4    0    0  0.38024994783E+02 -0.18823545131E+02 -0.34056471220E+03  0.34319753682E+03  0.00000000000E+00 0. -1.
        -12    1    4    4    0    0 -0.49572720890E+01  0.35476423581E+02 -0.10044164634E+03  0.10663805839E+03  0.00000000000E+00 0.  1.
</event>
<event>
12    1  0.8691829E-002  0.1966799E+03  0.7818608E-02  0.1152791E+00
         21   -1    0    0  501  502  0.00000000000E+00  0.00000000000E+00  0.17145329278E+03  0.17145329278E+03  0.00000000000E+00 0.  1.
         21   -1    0    0  502  503 -0.00000000000E+00 -0.00000000000E+00 -0.28187463685E+03  0.28187463685E+03  0.00000000000E+00 0.  1.
         -6    2    1    2    0  503  0.81672318797E+02  0.47836750482E+02 -0.15762844432E+03  0.25205101243E+03  0.17240726219E+03 0.  0.
        -24    2    3    3    0    0  0.30977366150E+02  0.79621714042E+02 -0.47428633452E+02  0.12656654946E+03  0.80438806617E+02 0.  0.
          6    2    1    2  501    0 -0.81672318797E+02 -0.47836750482E+02  0.47207100256E+02  0.20127691720E+03  0.17124591887E+03 0.  0.
         24    2    5    5    0    0 -0.10132440800E+03  0.15119752505E+02  0.37202305133E+02  0.13440456265E+03  0.78646884115E+02 0.  0.
          5    1    5    5  501    0  0.19652089200E+02 -0.62956502987E+02  0.10004795123E+02  0.66872354555E+02  0.47000000000E+01 0. -1.
        -13    1    6    6    0    0 -0.49647620556E+02 -0.14509735456E+02  0.51663066626E+02  0.73106026448E+02  0.00000000000E+00 0.  1.
         14    1    6    6    0    0 -0.51676787441E+02  0.29629487961E+02 -0.14460761492E+02  0.61298536198E+02  0.00000000000E+00 0. -1.
         -5    1    3    3    0  503  0.50694952647E+02 -0.31784963561E+02 -0.11019981087E+03  0.12548446298E+03  0.47000000000E+01 0.  1.
         11    1    4    4    0    0 -0.17869808629E+02  0.34122460681E+02  0.85394053132E+01  0.39453692178E+02  0.00000000000E+00 0. -1.
        -12    1    4    4    0    0  0.48847174779E+02  0.45499253362E+02 -0.55968038765E+02  0.87112857280E+02  0.00000000000E+00 0.  1.
</event>
<event>
12    1  0.8691829E-002  0.2205177E+03  0.7818608E-02  0.1133520E+00
         21   -1    0    0  503  502  0.00000000000E+00  0.00000000000E+00  0.37867739125E+03  0.37867739125E+03  0.00000000000E+00 0.  1.
         21   -1    0    0  501  503 -0.00000000000E+00 -0.00000000000E+00 -0.13864650741E+03  0.13864650741E+03  0.00000000000E+00 0.  1.
          6    2    1    2  501    0 -0.44121604784E+02  0.13139410845E+03  0.19049103035E+03  0.29131010876E+03  0.17135816024E+03 0.  0.
         24    2    3    3    0    0 -0.29648047889E+02  0.15066797775E+03  0.20071544629E+03  0.26470945899E+03  0.78769036024E+02 0.  0.
         -6    2    1    2    0  502  0.44121604784E+02 -0.13139410845E+03  0.49539853494E+02  0.22601378989E+03  0.17151358078E+03 0.  0.
        -24    2    5    5    0    0  0.54408189355E+02 -0.12263605247E+02  0.46191062077E+02  0.10630082059E+03  0.77817756067E+02 0.  0.
          5    1    3    3  501    0 -0.14473556895E+02 -0.19273869302E+02 -0.10224415941E+02  0.26600649774E+02  0.47000000000E+01 0. -1.
        -11    1    4    4    0    0 -0.38274153608E+02  0.44050328220E+02  0.36831883929E+02  0.69006738254E+02  0.00000000000E+00 0.  1.
         12    1    4    4    0    0  0.86261057190E+01  0.10661764953E+03  0.16388356236E+03  0.19570272074E+03  0.00000000000E+00 0. -1.
         -5    1    5    5    0  502 -0.10286584571E+02 -0.11913050320E+03  0.33487914168E+01  0.11971296930E+03  0.47000000000E+01 0.  1.
         13    1    6    6    0    0  0.21440951079E+01  0.21485239698E+02  0.37788824207E+02  0.43522498821E+02  0.00000000000E+00 0. -1.
        -14    1    6    6    0    0  0.52264094248E+02 -0.33748844945E+02  0.84022378705E+01  0.62778321767E+02  0.00000000000E+00 0.  1.
</event>
<event>
12    1  0.8691829E-002  0.2824230E+03  0.7818608E-02  0.1094387E+00
         21   -1    0    0  501  502  0.00000000000E+00  0.00000000000E+00  0.27169621992E+03  0.27169621992E+03  0.00000000000E+00 0.  1.
         21   -1    0    0  502  503 -0.00000000000E+00 -0.00000000000E+00 -0.31499678280E+03  0.31499678280E+03  0.00000000000E+00 0. -1.
         -6    2    1    2    0  503 -0.17794697239E+03 -0.13573426633E+03 -0.98349172955E+02  0.29895509157E+03  0.17208332551E+03 0.  0.
        -24    2    3    3    0    0 -0.14397029396E+03 -0.16694407931E+03 -0.70622872119E+02  0.24492449968E+03  0.80016556526E+02 0.  0.
          6    2    1    2  501    0  0.17794697239E+03  0.13573426633E+03  0.55048610072E+02  0.28773791115E+03  0.17226096482E+03 0.  0.
         24    2    5    5    0    0  0.18056169482E+02  0.21144428053E+02  0.23857300443E+02  0.88512190701E+02  0.80573724155E+02 0.  0.
          5    1    5    5  501    0  0.15989080290E+03  0.11458983828E+03  0.31191309630E+02  0.19922572044E+03  0.47000000000E+01 0. -1.
        -11    1    6    6    0    0 -0.50140987682E+01  0.43287170363E+02  0.33663769961E+02  0.55065140629E+02  0.00000000000E+00 0.  1.
         12    1    6    6    0    0  0.23070268251E+02 -0.22142742309E+02 -0.98064695188E+01  0.33447050073E+02  0.00000000000E+00 0. -1.
         -5    1    3    3    0  503 -0.33976678429E+02  0.31209812972E+02 -0.27726300836E+02  0.54030591898E+02  0.47000000000E+01 0.  1.
         13    1    4    4    0    0 -0.22760177174E+02 -0.21101884026E+02 -0.43382588704E+02  0.53341955130E+02  0.00000000000E+00 0. -1.
        -14    1    4    4    0    0 -0.12121011678E+03 -0.14584219528E+03 -0.27240283415E+02  0.19158254455E+03  0.00000000000E+00 0.  1.
</event>
<event>
12    1  0.8691829E-002  0.2840738E+03  0.7818608E-02  0.1094163E+00
         21   -1    0    0  503  502  0.00000000000E+00  0.00000000000E+00  0.11017991104E+03  0.11017991104E+03  0.00000000000E+00 0. -1.
         21   -1    0    0  501  503 -0.00000000000E+00 -0.00000000000E+00 -0.82238056012E+03  0.82238056012E+03  0.00000000000E+00 0.  1.
          6    2    1    2  501    0  0.20877136113E+03 -0.68086659504E+02 -0.52374614829E+03  0.59582542528E+03  0.18021274965E+03 0.  0.
         24    2    3    3    0    0  0.14623000850E+03 -0.11254665742E+03 -0.42961459084E+03  0.47428961858E+03  0.79573740310E+02 0.  0.
         -6    2    1    2    0  502 -0.20877136113E+03  0.68086659504E+02 -0.18845450079E+03  0.33673504588E+03  0.17220371025E+03 0.  0.
        -24    2    5    5    0    0 -0.62720756077E+02 -0.26125602623E+02 -0.79727413057E+02  0.13167310602E+03  0.79780361626E+02 0.  0.
          5    1    3    3  501    0  0.62541352632E+02  0.44459997918E+02 -0.94131557449E+02  0.12153580671E+03  0.47000000000E+01 0. -1.
        -13    1    4    4    0    0  0.92223121690E+02 -0.26046187309E+02 -0.16656206698E+03  0.19216250988E+03  0.00000000000E+00 0.  1.
         14    1    4    4    0    0  0.54006886809E+02 -0.86500470113E+02 -0.26305252386E+03  0.28212710870E+03  0.00000000000E+00 0. -1.
         -5    1    5    5    0  502 -0.14605060505E+03  0.94212262127E+02 -0.10872708773E+03  0.20506193986E+03  0.47000000000E+01 0.  1.
         11    1    6    6    0    0 -0.10515128328E+02  0.17597646168E+02  0.67683196168E+01  0.21588312228E+02  0.00000000000E+00 0. -1.
        -12    1    6    6    0    0 -0.52205627748E+02 -0.43723248791E+02 -0.86495732674E+02  0.11008479379E+03  0.00000000000E+00 0.  1.
</event>
<event>
12    1  0.8691829E-002  0.2732549E+03  0.7818608E-02  0.1099699E+00
         21   -1    0    0  503  502  0.00000000000E+00  0.00000000000E+00  0.18476987808E+04  0.18476987808E+04  0.00000000000E+00 0.  1.
         21   -1    0    0  501  503 -0.00000000000E+00 -0.00000000000E+00 -0.76401944567E+02  0.76401944567E+02  0.00000000000E+00 0. -1.
          6    2    1    2  501    0 -0.65541708938E+02 -0.20237012598E+03  0.22441228738E+03  0.35359452927E+03  0.17151919106E+03 0.  0.
         24    2    3    3    0    0 -0.10121588412E+03 -0.11904218456E+03  0.11099822982E+03  0.20833258984E+03  0.81646580226E+02 0.  0.
         -6    2    1    2    0  502  0.65541708938E+02  0.20237012598E+03  0.15468845489E+04  0.15705061961E+04  0.16848893433E+03 0.  0.
        -24    2    5    5    0    0  0.65051039246E+02  0.57861001646E+02  0.55117649762E+03  0.56435524268E+03  0.84390610796E+02 0.  0.
          5    1    3    3  501    0  0.35674175178E+02 -0.83327941422E+02  0.11341405755E+03  0.14526193943E+03  0.47000000000E+01 0. -1.
        -13    1    4    4    0    0  0.66760204724E+01 -0.30406877907E+02  0.42833388380E+02  0.52951361017E+02  0.00000000000E+00 0.  1.
         14    1    4    4    0    0 -0.10789190459E+03 -0.88635306655E+02  0.68164841445E+02  0.15538122882E+03  0.00000000000E+00 0. -1.
         -5    1    5    5    0  502  0.49066969180E+00  0.14450912434E+03  0.99570805123E+03  0.10061509534E+04  0.47000000000E+01 0.  1.
         13    1    6    6    0    0  0.22223358645E+02  0.48801003713E+02  0.12606236229E+03  0.13699319260E+03  0.00000000000E+00 0. -1.
        -14    1    6    6    0    0  0.42827680601E+02  0.90599979328E+01  0.42511413533E+03  0.42736205008E+03  0.00000000000E+00 0.  1.
</event>
<event>
12    1  0.8691829E-002  0.2238329E+03  0.7818608E-02  0.1131173E+00
         21   -1    0    0  503  502  0.00000000000E+00  0.00000000000E+00  0.14809040375E+02  0.14809040375E+02  0.00000000000E+00 0.  1.
         21   -1    0    0  501  503 -0.00000000000E+00 -0.00000000000E+00 -0.34331421205E+04  0.34331421205E+04  0.00000000000E+00 0.  1.
          6    2    1    2  501    0  0.55000828298E+02 -0.12849712593E+03 -0.19387074256E+04  0.19515859274E+04  0.17482719334E+03 0.  0.
         24    2    3    3    0    0  0.90013261927E+02 -0.36337202285E+02 -0.10551505120E+04  0.10625334927E+04  0.78816499717E+02 0.  0.
         -6    2    1    2    0  502 -0.55000828298E+02  0.12849712593E+03 -0.14796256546E+04  0.14963652335E+04  0.17401216017E+03 0.  0.
        -24    2    5    5    0    0  0.17144431285E+02  0.26365963728E+02 -0.85693570149E+03  0.86122699624E+03  0.79900231452E+02 0.  0.
          5    1    3    3  501    0 -0.35012433629E+02 -0.92159923650E+02 -0.88355691358E+03  0.88905243465E+03  0.47000000000E+01 0. -1.
        -13    1    4    4    0    0  0.57254567699E+02 -0.60896921133E+02 -0.66165265720E+03  0.66691135791E+03  0.00000000000E+00 0.  1.
         14    1    4    4    0    0  0.32758694228E+02  0.24559718848E+02 -0.39349785479E+03  0.39562213482E+03  0.00000000000E+00 0. -1.
         -5    1    5    5    0  502 -0.72145259583E+02  0.10213116221E+03 -0.62268995309E+03  0.63513823728E+03  0.47000000000E+01 0.  1.
         13    1    6    6    0    0 -0.30819411156E+02  0.18553620480E+02 -0.44020955596E+03  0.44167694766E+03  0.00000000000E+00 0. -1.
        -14    1    6    6    0    0  0.47963842441E+02  0.78123432479E+01 -0.41672614553E+03  0.41955004858E+03  0.00000000000E+00 0.  1.
</event>
<event>
12    1  0.8691829E-002  0.1723976E+03  0.7818608E-02  0.1175590E+00
         21   -1    0    0  503  502  0.00000000000E+00  0.00000000000E+00  0.73752604993E+03  0.73752604993E+03  0.00000000000E+00 0.  1.
         21   -1    0    0  501  503 -0.00000000000E+00 -0.00000000000E+00 -0.40533415452E+02  0.40533415452E+02  0.00000000000E+00 0.  1.
          6    2    1    2  501    0 -0.16879925132E+02  0.26416692207E+01  0.38964956965E+03  0.42608418586E+03  0.17154893186E+03 0.  0.
         24    2    3    3    0    0 -0.52902167527E+02  0.46046628904E+02  0.31301672034E+03  0.33081469407E+03  0.80870039196E+02 0.  0.
         -6    2    1    2    0  502  0.16879925132E+02 -0.26416692207E+01  0.30734306482E+03  0.35197527952E+03  0.17068956502E+03 0.  0.
        -24    2    5    5    0    0 -0.10028264101E+02 -0.59479735891E+02  0.13085524795E+03  0.16455954918E+03  0.79488013247E+02 0.  0.
          5    1    3    3  501    0  0.36022242395E+02 -0.43404959683E+02  0.76632849317E+02  0.95269491794E+02  0.47000000000E+01 0. -1.
        -11    1    4    4    0    0 -0.89461529394E+01  0.21789423387E+02  0.24575951891E+03  0.24688570991E+03  0.00000000000E+00 0.  1.
         12    1    4    4    0    0 -0.43956014588E+02  0.24257205517E+02  0.67257201426E+02  0.83928984156E+02  0.00000000000E+00 0. -1.
         -5    1    5    5    0  502  0.26908189234E+02  0.56838066670E+02  0.17648781687E+03  0.18741573033E+03  0.47000000000E+01 0.  1.
         11    1    6    6    0    0 -0.38649930357E+02 -0.32112237764E+02  0.36130652733E+02  0.61890524296E+02  0.00000000000E+00 0. -1.
        -12    1    6    6    0    0  0.28621666256E+02 -0.27367498127E+02  0.94724595214E+02  0.10266902489E+03  0.00000000000E+00 0.  1.
</event>
<event>
12    1  0.8691829E-002  0.1934931E+03  0.7818608E-02  0.1155823E+00
         21   -1    0    0  501  502  0.00000000000E+00  0.00000000000E+00  0.22941628316E+03  0.22941628316E+03  0.00000000000E+00 0.  1.
         21   -1    0    0  502  503 -0.00000000000E+00 -0.00000000000E+00 -0.49184234498E+03  0.49184234498E+03  0.00000000000E+00 0. -1.
         -6    2    1    2    0  503 -0.61970590060E+02 -0.64774297365E+02 -0.42704887855E+03  0.46883934538E+03  0.17147455635E+03 0.  0.
        -24    2    3    3    0    0 -0.34012942070E+02  0.24919264491E+02 -0.16037878579E+03  0.18606453481E+03  0.84384869571E+02 0.  0.
          6    2    1    2  501    0  0.61970590060E+02  0.64774297365E+02  0.16462281673E+03  0.25241928275E+03  0.16905253292E+03 0.  0.
         24    2    5    5    0    0  0.21980199721E+02  0.28327535199E+02  0.11105737734E+02  0.89578313292E+02  0.81334853362E+02 0.  0.
          5    1    5    5  501    0  0.39990390339E+02  0.36446762167E+02  0.15351707900E+03  0.16284096946E+03  0.47000000000E+01 0. -1.
        -11    1    6    6    0    0 -0.37557295171E+01  0.99102500679E+01  0.43214443641E+02  0.44495018821E+02  0.00000000000E+00 0.  1.
         12    1    6    6    0    0  0.25735929238E+02  0.18417285131E+02 -0.32108705908E+02  0.45083294472E+02  0.00000000000E+00 0. -1.
         -5    1    3    3    0  503 -0.27957647989E+02 -0.89693561856E+02 -0.26667009276E+03  0.28277481057E+03  0.47000000000E+01 0.  1.
         11    1    4    4    0    0 -0.60207145375E+02  0.42393450268E+01 -0.92917312563E+02  0.11079936541E+03  0.00000000000E+00 0. -1.
        -12    1    4    4    0    0  0.26194203305E+02  0.20679919464E+02 -0.67461473230E+02  0.75265169409E+02  0.00000000000E+00 0.  1.
</event>
<event>
12    1  0.8691829E-002  0.2055507E+03  0.7818608E-02  0.1145313E+00
         21   -1    0    0  503  502  0.00000000000E+00  0.00000000000E+00  0.12762474695E+03  0.12762474695E+03  0.00000000000E+00 0. -1.
         21   -1    0    0  501  503 -0.00000000000E+00 -0.00000000000E+00 -0.40024524649E+03  0.40024524649E+03  0.00000000000E+00 0. -1.
          6    2    1    2  501    0  0.10576304286E+03  0.31611657035E+02 -0.25257254926E+02  0.20624962941E+03  0.17238289535E+03 0.  0.
         24    2    3    3    0    0  0.44248227838E+02  0.28133900018E+02 -0.77931282071E+02  0.12505350637E+03  0.82557087722E+02 0.  0.
         -6    2    1    2    0  502 -0.10576304286E+03 -0.31611657035E+02 -0.24736324461E+03  0.32162036403E+03  0.17339540270E+03 0.  0.
        -24    2    5    5    0    0  0.30237997644E+01  0.95863623542E+01 -0.14902078303E+03  0.16922225485E+03  0.79548325272E+02 0.  0.
          5    1    3    3  501    0  0.61514815025E+02  0.34777570174E+01  0.52674027145E+02  0.81196123042E+02  0.47000000000E+01 0. -1.
        -13    1    4    4    0    0  0.15203673561E+02 -0.16445578351E+02  0.81690726032E+01  0.23839934652E+02  0.00000000000E+00 0.  1.
         14    1    4    4    0    0  0.29044554278E+02  0.44579478369E+02 -0.86100354674E+02  0.10121357172E+03  0.00000000000E+00 0. -1.
         -5    1    5    5    0  502 -0.10878684263E+03 -0.41198019389E+02 -0.98342461579E+02  0.15239810917E+03  0.47000000000E+01 0.  1.
         11    1    6    6    0    0  0.32486639866E+01 -0.28311089228E+02 -0.20167561974E+02  0.34911346966E+02  0.00000000000E+00 0. -1.
        -12    1    6    6    0    0 -0.22486422218E+00  0.37897451582E+02 -0.12885322106E+03  0.13431090789E+03  0.00000000000E+00 0.  1.
</event>
<event>
12    1  0.8691829E-002  0.2148297E+03  0.7818608E-02  0.1138016E+00
         21   -1    0    0  503  502  0.00000000000E+00  0.00000000000E+00  0.64095732297E+03  0.64095732297E+03  0.00000000000E+00 0.  1.
         21   -1    0    0  501  503 -0.00000000000E+00 -0.00000000000E+00 -0.84552594805E+02  0.84552594805E+02  0.00000000000E+00 0.  1.
          6    2    1    2  501    0 -0.11937926899E+03  0.47633209855E+02  0.42066940903E+03  0.47235004287E+03  0.17213796431E+03 0.  0.
         24    2    3    3    0    0 -0.46680473356E+02  0.75269034803E+02  0.34078949547E+03  0.36076265874E+03  0.78534842723E+02 0.  0.
         -6    2    1    2    0  502  0.11937926899E+03 -0.47633209855E+02  0.13573531913E+03  0.25315987491E+03  0.17072056952E+03 0.  0.
        -24    2    5    5    0    0  0.54469164813E+02  0.33332874369E+02  0.34242849727E+02  0.10793026441E+03  0.79989991808E+02 0.  0.
          5    1    3    3  501    0 -0.72698795631E+02 -0.27635824948E+02  0.79879913556E+02  0.11158738413E+03  0.47000000000E+01 0. -1.
        -13    1    4    4    0    0 -0.57496252323E+02  0.85646144721E+02  0.30454196492E+03  0.32153831736E+03  0.00000000000E+00 0.  1.
         14    1    4    4    0    0  0.10815778967E+02 -0.10377109917E+02  0.36247530555E+02  0.39224341374E+02  0.00000000000E+00 0. -1.
         -5    1    5    5    0  502  0.64910104175E+02 -0.80966084225E+02  0.10149246940E+03  0.14522961049E+03  0.47000000000E+01 0.  1.
         11    1    6    6    0    0  0.23021718648E+02 -0.24714022463E+02  0.23247595908E+02  0.41002843210E+02  0.00000000000E+00 0. -1.
        -12    1    6    6    0    0  0.31447446164E+02  0.58046896832E+02  0.10995253819E+02  0.66927421201E+02  0.00000000000E+00 0.  1.
</event>
<event>
12    1  0.8691829E-002  0.1878651E+03  0.7818608E-02  0.1160884E+00
         21   -1    0    0  503  502  0.00000000000E+00  0.00000000000E+00  0.20545898603E+03  0.20545898603E+03  0.00000000000E+00 0.  1.
         21   -1    0    0  501  503 -0.00000000000E+00 -0.00000000000E+00 -0.56533055033E+03  0.56533055033E+03  0.00000000000E+00 0.  1.
          6    2    1    2  501    0  0.63466212717E+02 -0.32407149305E+02 -0.50196662287E+03  0.53523844143E+03  0.17155615763E+03 0.  0.
         24    2    3    3    0    0  0.10641982924E+03 -0.91205043824E+00 -0.36250231824E+03  0.38587533791E+03  0.78522823354E+02 0.  0.
         -6    2    1    2    0  502 -0.63466212717E+02  0.32407149305E+02  0.14209505857E+03  0.23555109494E+03  0.17382499583E+03 0.  0.
        -24    2    5    5    0    0  0.42652563836E+01 -0.39642202121E+02  0.59426400368E+02  0.10657490335E+03  0.78974783083E+02 0.  0.
          5    1    3    3  501    0 -0.42953616522E+02 -0.31495098867E+02 -0.13946430464E+03  0.14936310352E+03  0.47000000000E+01 0. -1.
        -11    1    4    4    0    0  0.50913674778E+02 -0.38872544835E+02 -0.20004554062E+03  0.21005117315E+03  0.00000000000E+00 0.  1.
         12    1    4    4    0    0  0.55506154461E+02  0.37960494397E+02 -0.16245677762E+03  0.17582416475E+03  0.00000000000E+00 0. -1.
         -5    1    5    5    0  502 -0.67731469100E+02  0.72049351426E+02  0.82668658201E+02  0.12897619159E+03  0.47000000000E+01 0.  1.
         13    1    6    6    0    0  0.31976214092E+02 -0.29276274164E+02  0.37379029791E+01  0.43514944735E+02  0.00000000000E+00 0. -1.
        -14    1    6    6    0    0 -0.27710957708E+02 -0.10365927956E+02  0.55688497389E+02  0.63059958618E+02  0.00000000000E+00 0.  1.
</event>
<event>
12    1  0.8691829E-002  0.1873234E+03  0.7818608E-02  0.1162579E+00
         21   -1    0    0  503  502  0.00000000000E+00  0.00000000000E+00  0.30061246881E+03  0.30061246881E+03  0.00000000000E+00 0.  1.
         21   -1    0    0  501  503 -0.00000000000E+00 -0.00000000000E+00 -0.18277701852E+03  0.18277701852E+03  0.00000000000E+00 0. -1.
          6    2    1    2  501    0  0.25707646377E+02 -0.70444938575E+02 -0.91847851230E+02  0.20221847090E+03  0.16380753873E+03 0.  0.
         24    2    3    3    0    0 -0.37511239947E+02 -0.48891955953E+01 -0.29880434613E+02  0.91963159244E+02  0.78315930242E+02 0.  0.
         -6    2    1    2    0  502 -0.25707646377E+02  0.70444938575E+02  0.20968330152E+03  0.28117101643E+03  0.17165861788E+03 0.  0.
        -24    2    5    5    0    0 -0.59864046346E+02  0.28955309116E+01  0.16474466502E+03  0.19301687197E+03  0.80762739364E+02 0.  0.
          5    1    3    3  501    0  0.63218886324E+02 -0.65555742980E+02 -0.61967416617E+02  0.11025531165E+03  0.47000000000E+01 0. -1.
        -11    1    4    4    0    0 -0.22310171091E+02 -0.35930494861E+02 -0.37551704655E+02  0.56558595435E+02  0.00000000000E+00 0.  1.
         12    1    4    4    0    0 -0.15201068856E+02  0.31041299266E+02  0.76712700426E+01  0.35404563809E+02  0.00000000000E+00 0. -1.
         -5    1    5    5    0  502  0.34156399969E+02  0.67549407664E+02  0.44938636497E+02  0.88154144456E+02  0.47000000000E+01 0.  1.
         11    1    6    6    0    0 -0.59806427790E+02  0.27627154563E+02  0.74525112414E+02  0.99468893904E+02  0.00000000000E+00 0. -1.
        -12    1    6    6    0    0 -0.57618556493E-01 -0.24731623652E+02  0.90219552606E+02  0.93547978069E+02  0.00000000000E+00 0.  1.
</event>
<event>
12    1  0.8691829E-002  0.2218601E+03  0.7818608E-02  0.1133404E+00
         21   -1    0    0  501  502  0.00000000000E+00  0.00000000000E+00  0.60170315216E+03  0.60170315216E+03  0.00000000000E+00 0.  1.
         21   -1    0    0  502  503 -0.00000000000E+00 -0.00000000000E+00 -0.10178568965E+03  0.10178568965E+03  0.00000000000E+00 0. -1.
         -6    2    1    2    0  503  0.11018124990E+03 -0.74640275580E+02  0.89525199025E+02  0.23924184944E+03  0.17751288036E+03 0.  0.
        -24    2    3    3    0    0 -0.14911435129E+02 -0.41041498823E+02  0.45561162570E+02  0.10237701046E+03  0.80613133003E+02 0.  0.
          6    2    1    2  501    0 -0.11018124990E+03  0.74640275580E+02  0.41039226349E+03  0.46424699237E+03  0.17144206434E+03 0.  0.
         24    2    5    5    0    0 -0.37294958469E+02  0.24429229316E+02  0.33647092790E+03  0.34883462518E+03  0.80530796768E+02 0.  0.
          5    1    5    5  501    0 -0.72886291434E+02  0.50211046264E+02  0.73921335581E+02  0.11541236719E+03  0.47000000000E+01 0. -1.
        -13    1    6    6    0    0 -0.32682285869E+02  0.43492496096E+02  0.31536200845E+03  0.32002019530E+03  0.00000000000E+00 0.  1.
         14    1    6    6    0    0 -0.46126725999E+01 -0.19063266780E+02  0.21108919455E+02  0.28814429881E+02  0.00000000000E+00 0. -1.
         -5    1    3    3    0  503  0.12509268503E+03 -0.33598776757E+02  0.43964036455E+02  0.13686483898E+03  0.47000000000E+01 0.  1.
         11    1    4    4    0    0  0.83690210398E+00 -0.60991925976E+02  0.15356426936E+02  0.62900995919E+02  0.00000000000E+00 0. -1.
        -12    1    4    4    0    0 -0.15748337233E+02  0.19950427153E+02  0.30204735634E+02  0.39476014540E+02  0.00000000000E+00 0.  1.
</event>
<event>
12    1  0.8691829E-002  0.2103591E+03  0.7818608E-02  0.1143117E+00
         21   -1    0    0  501  502  0.00000000000E+00  0.00000000000E+00  0.17651428052E+03  0.17651428052E+03  0.00000000000E+00 0. -1.
         21   -1    0    0  502  503 -0.00000000000E+00 -0.00000000000E+00 -0.30371031216E+03  0.30371031216E+03  0.00000000000E+00 0. -1.
         -6    2    1    2    0  503 -0.99043603723E+02 -0.67910586557E+02 -0.17244731955E+03  0.26505339684E+03  0.16153557489E+03 0.  0.
        -24    2    3    3    0    0 -0.12474935767E+03 -0.26856125825E+02 -0.12289454218E+03  0.19559965485E+03  0.82900559391E+02 0.  0.
          6    2    1    2  501    0  0.99043603723E+02  0.67910586557E+02  0.45251287907E+02  0.21517119583E+03  0.17271213407E+03 0.  0.
         24    2    5    5    0    0  0.65041351042E+02  0.80869011778E+01 -0.34678253985E+02  0.10959729666E+03  0.80704465922E+02 0.  0.
          5    1    5    5  501    0  0.34002252681E+02  0.59823685379E+02  0.79929541892E+02  0.10557389917E+03  0.47000000000E+01 0. -1.
        -13    1    6    6    0    0  0.25253182511E+02  0.15334541266E+02 -0.56415084151E+02  0.63683067629E+02  0.00000000000E+00 0.  1.
         14    1    6    6    0    0  0.39788168531E+02 -0.72476400877E+01  0.21736830167E+02  0.45914229032E+02  0.00000000000E+00 0. -1.
         -5    1    3    3    0  503  0.25705753947E+02 -0.41054460731E+02 -0.49552777363E+02  0.69453741989E+02  0.47000000000E+01 0.  1.
         11    1    4    4    0    0 -0.39352154240E+02 -0.10069321559E+02 -0.96425679721E+02  0.10463218907E+03  0.00000000000E+00 0. -1.
        -12    1    4    4    0    0 -0.85397203430E+02 -0.16786804266E+02 -0.26468862462E+02  0.90967465784E+02  0.00000000000E+00 0.  1.
</event>
<event>
12    1  0.8691829E-002  0.2264431E+03  0.7818608E-02  0.1129347E+00
         21   -1    0    0  501  502  0.00000000000E+00  0.00000000000E+00  0.73293158206E+03  0.73293158206E+03  0.00000000000E+00 0.  1.
         21   -1    0    0  502  503 -0.00000000000E+00 -0.00000000000E+00 -0.90857898300E+02  0.90857898300E+02  0.00000000000E+00 0. -1.
         -6    2    1    2    0  503 -0.12696575243E+03 -0.71362170387E+02  0.12259926769E+03  0.25750157928E+03  0.17338864219E+03 0.  0.
        -24    2    3    3    0    0 -0.57975271064E+02 -0.21043784694E+02 -0.82113011682E+01  0.10121619486E+03  0.79833074007E+02 0.  0.
          6    2    1    2  501    0  0.12696575243E+03  0.71362170387E+02  0.51947441607E+03  0.56628790108E+03  0.17209141846E+03 0.  0.
         24    2    5    5    0    0  0.10860987612E+02  0.68779167155E+00  0.26912232654E+03  0.28137836640E+03  0.81415749862E+02 0.  0.
          5    1    5    5  501    0  0.11610476482E+03  0.70674378715E+02  0.25035208953E+03  0.28490953468E+03  0.47000000000E+01 0. -1.
        -11    1    6    6    0    0  0.13263404665E+02 -0.12251972234E+02  0.26751045093E+03  0.26811913412E+03  0.00000000000E+00 0.  1.
         12    1    6    6    0    0 -0.24024170536E+01  0.12939763905E+02  0.16118756144E+01  0.13259232278E+02  0.00000000000E+00 0. -1.
         -5    1    3    3    0  503 -0.68990481370E+02 -0.50318385693E+02  0.13081056886E+03  0.15628538442E+03  0.47000000000E+01 0.  1.
         13    1    4    4    0    0 -0.65543976190E+02  0.71457244337E+01  0.10185372969E+02  0.66714436331E+02  0.00000000000E+00 0. -1.
        -14    1    4    4    0    0  0.75687051261E+01 -0.28189509127E+02 -0.18396674137E+02  0.34501758527E+02  0.00000000000E+00 0.  1.
</event>
<event>
12    1  0.8691829E-002  0.1822437E+03  0.7818608E-02  0.1165746E+00
         21   -1    0    0  503  502  0.00000000000E+00  0.00000000000E+00  0.15229347403E+03  0.15229347403E+03  0.00000000000E+00 0.  1.
         21   -1    0    0  501  503 -0.00000000000E+00 -0.00000000000E+00 -0.21819500624E+03  0.21819500624E+03  0.00000000000E+00 0.  1.
          6    2    1    2  501    0 -0.10955687253E+02  0.59777214668E+02 -0.23211848869E+02  0.18331163320E+03  0.17137976095E+03 0.  0.
         24    2    3    3    0    0  0.46766832836E+02  0.35782823089E+02  0.28116057236E+02  0.10229148695E+03  0.78774923340E+02 0.  0.
         -6    2    1    2    0  502  0.10955687253E+02 -0.59777214668E+02 -0.42689683344E+02  0.18717684708E+03  0.17181216645E+03 0.  0.
        -24    2    5    5    0    0 -0.53793276537E+02 -0.66037731165E+02 -0.26308431296E+02  0.11993059962E+03  0.80227904303E+02 0.  0.
          5    1    3    3  501    0 -0.57722520089E+02  0.23994391579E+02 -0.51327906105E+02  0.81020146247E+02  0.47000000000E+01 0. -1.
        -13    1    4    4    0    0 -0.14770948069E+02  0.33578724506E+02  0.83820299169E+01  0.37629377776E+02  0.00000000000E+00 0.  1.
         14    1    4    4    0    0  0.61537780905E+02  0.22040985835E+01  0.19734027319E+02  0.64662109179E+02  0.00000000000E+00 0. -1.
         -5    1    5    5    0  502  0.64748963791E+02  0.62605164970E+01 -0.16381252048E+02  0.67246247460E+02  0.47000000000E+01 0.  1.
         11    1    6    6    0    0 -0.57459843095E+02 -0.12005957376E+02 -0.29468717066E+02  0.65682431948E+02  0.00000000000E+00 0. -1.
        -12    1    6    6    0    0  0.36665665580E+01 -0.54031773789E+02  0.31602857701E+01  0.54248167668E+02  0.00000000000E+00 0.  1.
</event>
<event>
12    1  0.8691829E-002  0.3183928E+03  0.7818608E-02  0.1076464E+00
         21   -1    0    0  503  502  0.00000000000E+00  0.00000000000E+00  0.15545598854E+04  0.15545598854E+04  0.00000000000E+00 0.  1.
         21   -1    0    0  501  503 -0.00000000000E+00 -0.00000000000E+00 -0.65100498540E+02  0.65100498540E+02  0.00000000000E+00 0. -1.
          6    2    1    2  501    0 -0.16721027436E+03  0.20909778673E+03  0.73169898996E+03  0.79797079681E+03  0.17231604793E+03 0.  0.
         24    2    3    3    0    0 -0.17870981276E+03  0.21782451528E+03  0.62497465909E+03  0.69017205852E+03  0.79746029554E+02 0.  0.
         -6    2    1    2    0  502  0.16721027436E+03 -0.20909778673E+03  0.75776039691E+03  0.82168958714E+03  0.17114846838E+03 0.  0.
        -24    2    5    5    0    0  0.14817550343E+03 -0.18855790223E+03  0.75095172717E+03  0.79248929017E+03  0.81244791714E+02 0.  0.
          5    1    3    3  501    0  0.11499538397E+02 -0.87267285520E+01  0.10672433088E+03  0.10779873829E+03  0.47000000000E+01 0. -1.
        -11    1    4    4    0    0 -0.13242164306E+02  0.14965523977E+02  0.11715655627E+03  0.11884856121E+03  0.00000000000E+00 0.  1.
         12    1    4    4    0    0 -0.16546764846E+03  0.20285899131E+03  0.50781810281E+03  0.57132349732E+03  0.00000000000E+00 0. -1.
         -5    1    5    5    0  502  0.19034770938E+02 -0.20539884496E+02  0.68086697359E+01  0.29200296974E+02  0.47000000000E+01 0.  1.
         13    1    6    6    0    0  0.66192218426E+02 -0.50502845683E+02  0.16333610583E+03  0.18333202304E+03  0.00000000000E+00 0. -1.
        -14    1    6    6    0    0  0.81983285001E+02 -0.13805505655E+03  0.58761562134E+03  0.60915726713E+03  0.00000000000E+00 0.  1.
</event>
<event>
12    1  0.8691829E-002  0.2014959E+03  0.7818608E-02  0.1151870E+00
         21   -1    0    0  501  502  0.00000000000E+00  0.00000000000E+00  0.14382717351E+04  0.14382717351E+04  0.00000000000E+00 0.  1.
         21   -1    0    0  502  503 -0.00000000000E+00 -0.00000000000E+00 -0.82974595695E+02  0.82974595695E+02  0.00000000000E+00 0.  1.
         -6    2    1    2    0  503 -0.26216827595E+02 -0.66745195245E+02  0.56588090232E+02  0.20929116885E+03  0.18830384559E+03 0.  0.
        -24    2    3    3    0    0 -0.35848637126E+02 -0.84132280579E+02  0.10285340126E+03  0.15871793981E+03  0.79051861749E+02 0.  0.
          6    2    1    2  501    0  0.26216827595E+02  0.66745195245E+02  0.12987090491E+04  0.13119551619E+04  0.17157770665E+03 0.  0.
         24    2    5    5    0    0 -0.50663803551E+02  0.37962653902E+02  0.61093531438E+03  0.61928361901E+03  0.79134432011E+02 0.  0.
          5    1    5    5  501    0  0.76880631146E+02  0.28782541343E+02  0.68777373475E+03  0.69267154290E+03  0.47000000000E+01 0. -1.
        -13    1    6    6    0    0 -0.66011695659E+01  0.10628180425E+00  0.41167914236E+03  0.41173207670E+03  0.00000000000E+00 0.  1.
         14    1    6    6    0    0 -0.44062633985E+02  0.37856372098E+02  0.19925617202E+03  0.20755154230E+03  0.00000000000E+00 0. -1.
         -5    1    3    3    0  503  0.96318095305E+01  0.17387085334E+02 -0.46265311027E+02  0.50573229042E+02  0.47000000000E+01 0.  1.
         13    1    4    4    0    0 -0.50193919734E+02 -0.44222023137E+02  0.94033101530E+02  0.11540035135E+03  0.00000000000E+00 0. -1.
        -14    1    4    4    0    0  0.14345282608E+02 -0.39910257442E+02  0.88202997304E+01  0.43317588455E+02  0.00000000000E+00 0.  1.
</event>
<event>
12    1  0.8691829E-002  0.2370466E+03  0.7818608E-02  0.1122483E+00
         21   -1    0    0  501  502  0.00000000000E+00  0.00000000000E+00  0.33229215157E+03  0.33229215157E+03  0.00000000000E+00 0. -1.
         21   -1    0    0  502  503 -0.00000000000E+00 -0.00000000000E+00 -0.17586630357E+03  0.17586630357E+03  0.00000000000E+00 0. -1.
         -6    2    1    2    0  503 -0.94421366745E+02  0.12631465543E+03  0.19179191884E+02  0.23782123932E+03  0.17697546100E+03 0.  0.
        -24    2    3    3    0    0 -0.70159275642E+02  0.10785579299E+03 -0.51752649537E+02  0.16047271125E+03  0.80733873200E+02 0.  0.
          6    2    1    2  501    0  0.94421366745E+02 -0.12631465543E+03  0.13724665612E+03  0.27033721582E+03  0.17139072020E+03 0.  0.
         24    2    5    5    0    0  0.11348343155E+03 -0.12328657929E+03  0.15609290982E+03  0.24295468784E+03  0.81141321037E+02 0.  0.
          5    1    5    5  501    0 -0.19062064807E+02 -0.30280761404E+01 -0.18846253704E+02  0.27382527979E+02  0.47000000000E+01 0. -1.
        -11    1    6    6    0    0  0.59596572423E+02 -0.39815942563E+02  0.19920751886E+02  0.74390167915E+02  0.00000000000E+00 0.  1.
         12    1    6    6    0    0  0.53886859129E+02 -0.83470636723E+02  0.13617215794E+03  0.16856451993E+03  0.00000000000E+00 0. -1.
         -5    1    3    3    0  503 -0.24262091103E+02  0.18458862432E+02  0.70931841421E+02  0.77348528068E+02  0.47000000000E+01 0.  1.
         11    1    4    4    0    0 -0.54207533843E+02  0.83877720928E+02  0.15565067834E+01  0.99881687545E+02  0.00000000000E+00 0. -1.
        -12    1    4    4    0    0 -0.15951741798E+02  0.23978072067E+02 -0.53309156321E+02  0.60591023709E+02  0.00000000000E+00 0.  1.
</event>
<event>
12    1  0.8691829E-002  0.2188757E+03  0.7818608E-02  0.1134741E+00
         21   -1    0    0  501  502  0.00000000000E+00  0.00000000000E+00  0.17191746367E+03  0.17191746367E+03  0.00000000000E+00 0.  1.
         21   -1    0    0  502  503 -0.00000000000E+00 -0.00000000000E+00 -0.29992043033E+03  0.29992043033E+03  0.00000000000E+00 0.  1.
         -6    2    1    2    0  503 -0.47905304083E+02 -0.12795890071E+03 -0.12697305042E+03  0.25295973362E+03  0.17087443597E+03 0.  0.
        -24    2    3    3    0    0 -0.32624385361E+02 -0.72859746838E+02  0.18752127196E+00  0.11345588339E+03  0.80618292480E+02 0.  0.
          6    2    1    2  501    0  0.47905304083E+02  0.12795890071E+03 -0.10299162334E+01  0.21887816038E+03  0.17099178324E+03 0.  0.
         24    2    5    5    0    0 -0.33541497721E+02  0.90599021171E+02 -0.22196935504E+02  0.12668556400E+03  0.78887980537E+02 0.  0.
          5    1    5    5  501    0  0.81446801805E+02  0.37359879542E+02  0.21167019270E+02  0.92192596386E+02  0.47000000000E+01 0. -1.
        -11    1    6    6    0    0  0.17631493770E+02  0.54832859558E+02  0.65181320888E+01  0.57965490646E+02  0.00000000000E+00 0.  1.
         12    1    6    6    0    0 -0.51172991491E+02  0.35766161613E+02 -0.28715067592E+02  0.68720073352E+02  0.00000000000E+00 0. -1.
         -5    1    3    3    0  503 -0.15280918723E+02 -0.55099153875E+02 -0.12716057170E+03  0.13950385023E+03  0.47000000000E+01 0.  1.
         11    1    4    4    0    0  0.21315700304E-01 -0.76573399742E+02  0.13949986205E+02  0.77833720954E+02  0.00000000000E+00 0. -1.
        -12    1    4    4    0    0 -0.32645701061E+02  0.37136529044E+01 -0.13762464933E+02  0.35622162437E+02  0.00000000000E+00 0.  1.
</event>
<event>
12    1  0.8691829E-002  0.2047771E+03  0.7818608E-02  0.1146779E+00
         21   -1    0    0  503  502  0.00000000000E+00  0.00000000000E+00  0.20247548938E+02  0.20247548938E+02  0.00000000000E+00 0. -1.
         21   -1    0    0  501  503 -0.00000000000E+00 -0.00000000000E+00 -0.27181642241E+04  0.27181642241E+04  0.00000000000E+00 0. -1.
          6    2    1    2  501    0 -0.94101276654E+02 -0.38278839501E+02 -0.20538581820E+04  0.20640414465E+04  0.17780140964E+03 0.  0.
         24    2    3    3    0    0 -0.10350466493E+02 -0.49327107257E+02 -0.63260317710E+03  0.64027034784E+03  0.84964951467E+02 0.  0.
         -6    2    1    2    0  502  0.94101276654E+02  0.38278839501E+02 -0.64405849322E+03  0.67437032660E+03  0.17217338611E+03 0.  0.
        -24    2    5    5    0    0  0.24091260734E+02  0.70496202143E+02 -0.49018398188E+03  0.50221105143E+03  0.79909328183E+02 0.  0.
          5    1    3    3  501    0 -0.83750810161E+02  0.11048267756E+02 -0.14212550049E+04  0.14237710986E+04  0.47000000000E+01 0. -1.
        -13    1    4    4    0    0 -0.25602093138E+02 -0.62902793023E+02 -0.32657580066E+03  0.33356256103E+03  0.00000000000E+00 0.  1.
         14    1    4    4    0    0  0.15251626645E+02  0.13575685767E+02 -0.30602737644E+03  0.30670778681E+03  0.00000000000E+00 0. -1.
         -5    1    5    5    0  502  0.70010015920E+02 -0.32217362642E+02 -0.15387451134E+03  0.17215927517E+03  0.47000000000E+01 0.  1.
         11    1    6    6    0    0  0.96532129026E+01 -0.11937986140E+02 -0.23417667982E+02  0.28001557209E+02  0.00000000000E+00 0. -1.
        -12    1    6    6    0    0  0.14438047832E+02  0.82434188283E+02 -0.46676631390E+03  0.47420949422E+03  0.00000000000E+00 0.  1.
</event>
<event>
12    1  0.8691829E-002  0.2365047E+03  0.7818608E-02  0.1122390E+00
         21   -1    0    0  501  502  0.00000000000E+00  0.00000000000E+00  0.41688812480E+03  0.41688812480E+03  0.00000000000E+00 0.  1.
         21   -1    0    0  502  503 -0.00000000000E+00 -0.00000000000E+00 -0.15196807220E+03  0.15196807220E+03  0.00000000000E+00 0.  1.
         -6    2    1    2    0  503  0.33026169958E+02  0.15802152120E+03  0.33264535587E+02  0.23883258528E+03  0.17283791655E+03 0.  0.
        -24    2    3    3    0    0  0.93320513605E+01  0.10583097877E+03  0.88329137298E+02  0.15921183209E+03  0.79114396504E+02 0.  0.
          6    2    1    2  501    0 -0.33026169958E+02 -0.15802152120E+03  0.23165551702E+03  0.33002361172E+03  0.17085015850E+03 0.  0.
         24    2    5    5    0    0 -0.19823472137E+02 -0.13002542251E+03  0.76828635305E+02  0.17206302779E+03  0.80021658229E+02 0.  0.
          5    1    5    5  501    0 -0.13202697821E+02 -0.27996098697E+02  0.15482688171E+03  0.15796058392E+03  0.47000000000E+01 0. -1.
        -13    1    6    6    0    0 -0.39629794670E+02 -0.24552763546E+02  0.24621021008E+02  0.52721470947E+02  0.00000000000E+00 0.  1.
         14    1    6    6    0    0  0.19806322533E+02 -0.10547265896E+03  0.52207614296E+02  0.11934155685E+03  0.00000000000E+00 0. -1.
         -5    1    3    3    0  503  0.23694118597E+02  0.52190542438E+02 -0.55064601711E+02  0.79620753185E+02  0.47000000000E+01 0.  1.
         11    1    4    4    0    0 -0.33978145843E+02  0.55745472839E+02  0.53442549620E+02  0.84369296825E+02  0.00000000000E+00 0. -1.
        -12    1    4    4    0    0  0.43310197204E+02  0.50085505927E+02  0.34886587678E+02  0.74842535270E+02  0.00000000000E+00 0.  1.
</event>
<event>
12    1  0.8691829E-002  0.1837419E+03  0.7818608E-02  0.1165012E+00
         21   -1    0    0  503  502  0.00000000000E+00  0.00000000000E+00  0.15472959962E+03  0.15472959962E+03  0.00000000000E+00 0.  1.
         21   -1    0    0  501  503 -0.00000000000E+00 -0.00000000000E+00 -0.25259925666E+03  0.25259925666E+03  0.00000000000E+00 0.  1.
          6    2    1    2  501    0 -0.48406840369E+02  0.37422805870E+02  0.30734087132E+02  0.18305219470E+03  0.16976405179E+03 0.  0.
         24    2    3    3    0    0 -0.67974281578E+01  0.24851561470E+02  0.82179364586E+02  0.11553859649E+03  0.77018920915E+02 0.  0.
         -6    2    1    2    0  502  0.48406840369E+02 -0.37422805870E+02 -0.12860374418E+03  0.22427666158E+03  0.17325532985E+03 0.  0.
        -24    2    5    5    0    0  0.36091344191E+02  0.46317275685E+02 -0.61585647861E+02  0.11621377277E+03  0.79151587519E+02 0.  0.
          5    1    3    3  501    0 -0.41609412211E+02  0.12571244400E+02 -0.51445277455E+02  0.67513598206E+02  0.47000000000E+01 0. -1.
        -11    1    4    4    0    0  0.29534747485E+00  0.44312303437E+02  0.17534309424E+02  0.47656263733E+02  0.00000000000E+00 0.  1.
         12    1    4    4    0    0 -0.70927756327E+01 -0.19460741967E+02  0.64645055162E+02  0.67882332760E+02  0.00000000000E+00 0. -1.
         -5    1    5    5    0  502  0.12315496178E+02 -0.83740081555E+02 -0.67018096315E+02  0.10806288881E+03  0.47000000000E+01 0.  1.
         13    1    6    6    0    0  0.10212102478E+02  0.20205684975E+02  0.17753761344E+02  0.28770693147E+02  0.00000000000E+00 0. -1.
        -14    1    6    6    0    0  0.25879241713E+02  0.26111590710E+02 -0.79339409205E+02  0.87443079623E+02  0.00000000000E+00 0.  1.
</event>
<event>
12    1  0.8691829E-002  0.2180881E+03  0.7818608E-02  0.1135451E+00
         21   -1    0    0  503  502  0.00000000000E+00  0.00000000000E+00  0.11114771298E+03  0.11114771298E+03  0.00000000000E+00 0.  1.
         21   -1    0    0  501  503 -0.00000000000E+00 -0.00000000000E+00 -0.63840588479E+03  0.63840588479E+03  0.00000000000E+00 0.  1.
          6    2    1    2  501    0  0.11497781184E+03 -0.67992697940E+02 -0.47925060569E+03  0.52624409926E+03  0.17148995528E+03 0.  0.
         24    2    3    3    0    0  0.93370743576E+02 -0.10501592962E+03 -0.43352235868E+03  0.46338912605E+03  0.83913082622E+02 0.  0.
         -6    2    1    2    0  502 -0.11497781184E+03  0.67992697940E+02 -0.48007566116E+02  0.22330949851E+03  0.17239344979E+03 0.  0.
        -24    2    5    5    0    0 -0.61501647662E+02 -0.27972722350E+02 -0.41847586086E+02  0.11317731710E+03  0.80578897890E+02 0.  0.
          5    1    3    3  501    0  0.21607068267E+02  0.37023231677E+02 -0.45728247017E+02  0.62854973217E+02  0.47000000000E+01 0. -1.
        -11    1    4    4    0    0  0.35094222839E+02 -0.97060377409E+02 -0.24344661101E+03  0.26442120519E+03  0.00000000000E+00 0.  1.
         12    1    4    4    0    0  0.58276520737E+02 -0.79555522076E+01 -0.19007574767E+03  0.19896792086E+03  0.00000000000E+00 0. -1.
         -5    1    5    5    0  502 -0.53476164181E+02  0.95965420290E+02 -0.61599800301E+01  0.11013218140E+03  0.47000000000E+01 0.  1.
         11    1    6    6    0    0 -0.43717236528E+02  0.16036127783E+02 -0.46094283365E+02  0.65521272293E+02  0.00000000000E+00 0. -1.
        -12    1    6    6    0    0 -0.17784411134E+02 -0.44008850133E+02  0.42466972796E+01  0.47656044812E+02  0.00000000000E+00 0.  1.
</event>
<event>
12    1  0.8691829E-002  0.1842897E+03  0.7818608E-02  0.1163933E+00
         21   -1    0    0  501  502  0.00000000000E+00  0.00000000000E+00  0.21552614739E+04  0.21552614739E+04  0.00000000000E+00 0. -1.
         21   -1    0    0  502  503 -0.00000000000E+00 -0.00000000000E+00 -0.16519521008E+02  0.16519521008E+02  0.00000000000E+00 0. -1.
         -6    2    1    2    0  503 -0.42867647780E+02  0.50873801069E+02  0.13169121656E+04  0.13297444594E+04  0.17186301697E+03 0.  0.
        -24    2    3    3    0    0 -0.64929509164E+02 -0.82160803591E+01  0.10682554881E+04  0.10731697665E+04  0.78995028966E+02 0.  0.
          6    2    1    2  501    0  0.42867647780E+02 -0.50873801069E+02  0.82182978732E+03  0.84203653552E+03  0.17086705051E+03 0.  0.
         24    2    5    5    0    0 -0.26189345330E+02 -0.54859570500E+02  0.63322513053E+03  0.64109236113E+03  0.79560639014E+02 0.  0.
          5    1    5    5  501    0  0.69056993110E+02  0.39857694307E+01  0.18860465679E+03  0.20094417439E+03  0.47000000000E+01 0. -1.
        -13    1    6    6    0    0  0.18035427121E+02 -0.52323156768E+02  0.32005719253E+03  0.32480701325E+03  0.00000000000E+00 0.  1.
         14    1    6    6    0    0 -0.44224772451E+02 -0.25364137318E+01  0.31316793800E+03  0.31628534788E+03  0.00000000000E+00 0. -1.
         -5    1    3    3    0  503  0.22061861385E+02  0.59089881428E+02  0.24865667742E+03  0.25657469291E+03  0.47000000000E+01 0.  1.
         13    1    4    4    0    0  0.19688296814E+01  0.54798561791E+01  0.59349425430E+03  0.59352281759E+03  0.00000000000E+00 0. -1.
        -14    1    4    4    0    0 -0.66898338846E+02 -0.13695936538E+02  0.47476123385E+03  0.47964694889E+03  0.00000000000E+00 0.  1.
</event>
<event>
12    1  0.8691829E-002  0.1965018E+03  0.7818608E-02  0.1152859E+00
         21   -1    0    0  503  502  0.00000000000E+00  0.00000000000E+00  0.11156916876E+03  0.11156916876E+03  0.00000000000E+00 0. -1.
         21   -1    0    0  501  503 -0.00000000000E+00 -0.00000000000E+00 -0.37326140079E+03  0.37326140079E+03  0.00000000000E+00 0. -1.
          6    2    1    2  501    0 -0.10404730632E+02 -0.96131133818E+02 -0.63940317263E+02  0.20604969491E+03  0.17034864041E+03 0.  0.
         24    2    3    3    0    0 -0.19254615443E+02 -0.69471963542E+02  0.25130044174E+02  0.11253685564E+03  0.82679688093E+02 0.  0.
         -6    2    1    2    0  502  0.10404730632E+02  0.96131133818E+02 -0.19775191477E+03  0.27878087464E+03  0.17106578548E+03 0.  0.
        -24    2    5    5    0    0  0.59611391925E+02  0.15611431105E+02 -0.99361046013E+02  0.14237130351E+03  0.81238757814E+02 0.  0.
          5    1    3    3  501    0  0.88498848117E+01 -0.26659170277E+02 -0.89070361437E+02  0.93512839266E+02  0.47000000000E+01 0. -1.
        -11    1    4    4    0    0  0.32485571857E+02 -0.22329466501E+02  0.12924805501E+02  0.41484551948E+02  0.00000000000E+00 0.  1.
         12    1    4    4    0    0 -0.51740187300E+02 -0.47142497041E+02  0.12205238673E+02  0.71052303693E+02  0.00000000000E+00 0. -1.
         -5    1    5    5    0  502 -0.49206661293E+02  0.80519702713E+02 -0.98390868757E+02  0.13640957113E+03  0.47000000000E+01 0.  1.
         11    1    6    6    0    0  0.77375489402E+01 -0.15393746317E+02 -0.75428954815E+02  0.77371598883E+02  0.00000000000E+00 0. -1.
        -12    1    6    6    0    0  0.51873842985E+02  0.31005177422E+02 -0.23932091198E+02  0.64999704631E+02  0.00000000000E+00 0.  1.
</event>
<event>
12    1  0.8691829E-002  0.2211819E+03  0.7818608E-02  0.1133376E+00
         21   -1    0    0  503  502  0.00000000000E+00  0.00000000000E+00  0.53091990450E+03  0.53091990450E+03  0.00000000000E+00 0.  1.
         21   -1    0    0  501  503 -0.00000000000E+00 -0.00000000000E+00 -0.13136720544E+03  0.13136720544E+03  0.00000000000E+00 0.  1.
          6    2    1    2  501    0  0.49036015737E+02  0.12690104358E+03  0.17560100850E+02  0.22187790983E+03  0.17439336004E+03 0.  0.
         24    2    3    3    0    0  0.86506265894E+02  0.62589213644E+02 -0.26067339382E+02  0.13547493153E+03  0.79203580653E+02 0.  0.
         -6    2    1    2    0  502 -0.49036015737E+02 -0.12690104358E+03  0.38199259820E+03  0.44040920011E+03  0.17185317210E+03 0.  0.
        -24    2    5    5    0    0 -0.35860072398E+02 -0.12765092209E+03  0.19046934659E+03  0.24837427176E+03  0.88490136042E+02 0.  0.
          5    1    3    3  501    0 -0.37470250158E+02  0.64311829938E+02  0.43627440232E+02  0.86402978294E+02  0.47000000000E+01 0. -1.
        -11    1    4    4    0    0  0.52397879653E+02  0.75754548944E+02 -0.28288602981E+01  0.92153632204E+02  0.00000000000E+00 0.  1.
         12    1    4    4    0    0  0.34108386242E+02 -0.13165335299E+02 -0.23238479084E+02  0.43321299331E+02  0.00000000000E+00 0. -1.
         -5    1    5    5    0  502 -0.13175943339E+02  0.74987850802E+00  0.19152325161E+03  0.19203492836E+03  0.47000000000E+01 0.  1.
         13    1    6    6    0    0 -0.20836775357E+02 -0.19217439041E+02 -0.39145134814E+00  0.28348446249E+02  0.00000000000E+00 0. -1.
        -14    1    6    6    0    0 -0.15023297041E+02 -0.10843348305E+03  0.19086079794E+03  0.22002582551E+03  0.00000000000E+00 0.  1.
</event>
<event>
12    1  0.8691829E-002  0.2173036E+03  0.7818608E-02  0.1136180E+00
         21   -1    0    0  501  502  0.00000000000E+00  0.00000000000E+00  0.26067072133E+03  0.26067072133E+03  0.00000000000E+00 0.  1.
         21   -1    0    0  502  503 -0.00000000000E+00 -0.00000000000E+00 -0.21064428364E+03  0.21064428364E+03  0.00000000000E+00 0.  1.
         -6    2    1    2    0  503 -0.38938230555E+02 -0.12675484506E+03 -0.64848854663E+02  0.22677350168E+03  0.17215652927E+03 0.  0.
        -24    2    3    3    0    0 -0.66986997787E+02 -0.10279614703E+03  0.75040782038E+01  0.14542370482E+03  0.77700946061E+02 0.  0.
          6    2    1    2  501    0  0.38938230555E+02  0.12675484506E+03  0.11487529236E+03  0.24454150329E+03  0.17035620767E+03 0.  0.
         24    2    5    5    0    0  0.35349659580E+02  0.16120884133E+01  0.70673857552E+02  0.11169029245E+03  0.78915968118E+02 0.  0.
          5    1    5    5  501    0  0.35885709742E+01  0.12514275665E+03  0.44201434806E+02  0.13285121084E+03  0.47000000000E+01 0. -1.
        -11    1    6    6    0    0  0.39549009456E+02  0.30365946768E+02  0.20921510610E+02  0.54073325016E+02  0.00000000000E+00 0.  1.
         12    1    6    6    0    0 -0.41993498756E+01 -0.28753858355E+02  0.49752346942E+02  0.57616967431E+02  0.00000000000E+00 0. -1.
         -5    1    3    3    0  503  0.28048767232E+02 -0.23958698036E+02 -0.72352932867E+02  0.81349796860E+02  0.47000000000E+01 0.  1.
         13    1    4    4    0    0 -0.22471372433E+02 -0.32809414965E+01  0.26353249976E+02  0.34788229912E+02  0.00000000000E+00 0. -1.
        -14    1    4    4    0    0 -0.44515625354E+02 -0.99515205530E+02 -0.18849171772E+02  0.11063547491E+03  0.00000000000E+00 0.  1.
</event>
<event>
12    1  0.8691829E-002  0.3006096E+03  0.7818608E-02  0.1084957E+00
         21   -1    0    0  501  502  0.00000000000E+00  0.00000000000E+00  0.20314095045E+03  0.20314095045E+03  0.00000000000E+00 0. -1.
         21   -1    0    0  502  503 -0.00000000000E+00 -0.00000000000E+00 -0.23803187625E+04  0.23803187625E+04  0.00000000000E+00 0.  1.
         -6    2    1    2    0  503  0.44262014215E+02 -0.24207591295E+03 -0.22533968184E+04  0.22733379653E+04  0.17236127728E+03 0.  0.
        -24    2    3    3    0    0  0.61308618388E+02 -0.66774201979E+02 -0.74735735311E+03  0.75702723280E+03  0.79559268549E+02 0.  0.
          6    2    1    2  501    0 -0.44262014215E+02  0.24207591295E+03  0.76219006311E+02  0.31012174766E+03  0.17264497651E+03 0.  0.
         24    2    5    5    0    0  0.33865248644E+01  0.23673334535E+03  0.48500609989E+02  0.25454004384E+03  0.79901060051E+02 0.  0.
          5    1    5    5  501    0 -0.47648539079E+02  0.53425675992E+01  0.27718396322E+02  0.55581703820E+02  0.47000000000E+01 0. -1.
        -11    1    6    6    0    0  0.34484113044E+02  0.89676585962E+02 -0.16291193798E+01  0.96092133665E+02  0.00000000000E+00 0.  1.
         12    1    6    6    0    0 -0.31097588180E+02  0.14705675938E+03  0.50129729369E+02  0.15844791017E+03  0.00000000000E+00 0. -1.
         -5    1    3    3    0  503 -0.17046604173E+02 -0.17530171097E+03 -0.15060394653E+04  0.15163107325E+04  0.47000000000E+01 0.  1.
         11    1    4    4    0    0  0.78831579728E+02 -0.61438508891E+02 -0.56692584451E+03  0.57566832595E+03  0.00000000000E+00 0. -1.
        -12    1    4    4    0    0 -0.17522961340E+02 -0.53356930880E+01 -0.18043150861E+03  0.18135890685E+03  0.00000000000E+00 0.  1.
</event>
<event>
12    1  0.8691829E-002  0.3315870E+03  0.7818608E-02  0.1070474E+00
         21   -1    0    0  501  502  0.00000000000E+00  0.00000000000E+00  0.10018375336E+04  0.10018375336E+04  0.00000000000E+00 0. -1.
         21   -1    0    0  502  503 -0.00000000000E+00 -0.00000000000E+00 -0.13826984258E+03  0.13826984258E+03  0.00000000000E+00 0.  1.
         -6    2    1    2    0  503 -0.15558471141E+03  0.23680342470E+03  0.17255010681E+03  0.37379603098E+03  0.17224247165E+03 0.  0.
        -24    2    3    3    0    0 -0.42427333282E+02  0.35147381131E+02  0.78007395424E+02  0.12393573719E+03  0.78990481725E+02 0.  0.
          6    2    1    2  501    0  0.15558471141E+03 -0.23680342470E+03  0.69101758421E+03  0.76631134519E+03  0.17159636274E+03 0.  0.
         24    2    5    5    0    0  0.11895434644E+03 -0.74491588752E+02  0.39356810810E+03  0.42545184838E+03  0.80089239265E+02 0.  0.
          5    1    5    5  501    0  0.36630364972E+02 -0.16231183595E+03  0.29744947611E+03  0.34085949681E+03  0.47000000000E+01 0. -1.
        -13    1    6    6    0    0  0.54684477719E+02 -0.52527099761E+02  0.10827463404E+03  0.13218503958E+03  0.00000000000E+00 0.  1.
         14    1    6    6    0    0  0.64269868720E+02 -0.21964488991E+02  0.28529347406E+03  0.29326680880E+03  0.00000000000E+00 0. -1.
         -5    1    3    3    0  503 -0.11315737813E+03  0.20165604357E+03  0.94542711382E+02  0.24986029378E+03  0.47000000000E+01 0.  1.
         13    1    4    4    0    0 -0.63562414493E+02  0.20526385572E+02  0.39376156063E+02  0.77537053769E+02  0.00000000000E+00 0. -1.
        -14    1    4    4    0    0  0.21135081212E+02  0.14620995559E+02  0.38631239360E+02  0.46398683424E+02  0.00000000000E+00 0.  1.
</event>
<event>
12    1  0.8691829E-002  0.2244856E+03  0.7818608E-02  0.1130795E+00
         21   -1    0    0  501  502  0.00000000000E+00  0.00000000000E+00  0.84793420121E+02  0.84793420121E+02  0.00000000000E+00 0.  1.
         21   -1    0    0  502  503 -0.00000000000E+00 -0.00000000000E+00 -0.59908104008E+03  0.59908104008E+03  0.00000000000E+00 0.  1.
         -6    2    1    2    0  503 -0.77521609328E+02  0.12041552494E+03 -0.21733589752E+03  0.31161904995E+03  0.17135355667E+03 0.  0.
        -24    2    3    3    0    0 -0.79543767944E+02  0.14673332237E+02 -0.14021284852E+03  0.18063983354E+03  0.80178481372E+02 0.  0.
          6    2    1    2  501    0  0.77521609328E+02 -0.12041552494E+03 -0.29695172244E+03  0.37225541025E+03  0.17287066391E+03 0.  0.
         24    2    5    5    0    0  0.11509275988E+03 -0.71553799607E+02 -0.23703371684E+03  0.28616640427E+03  0.85673440430E+02 0.  0.
          5    1    5    5  501    0 -0.37571150554E+02 -0.48861725336E+02 -0.59918005600E+02  0.86089005987E+02  0.47000000000E+01 0. -1.
        -13    1    6    6    0    0  0.20115406305E+02 -0.58761265545E+02 -0.11800897624E+03  0.13335529376E+03  0.00000000000E+00 0.  1.
         14    1    6    6    0    0  0.94977353576E+02 -0.12792534062E+02 -0.11902474060E+03  0.15281111051E+03  0.00000000000E+00 0. -1.
         -5    1    3    3    0  503  0.20221586164E+01  0.10574219271E+03 -0.77123049000E+02  0.13097921641E+03  0.47000000000E+01 0.  1.
         13    1    4    4    0    0 -0.25014731027E+02  0.31987373765E+02 -0.10709263484E+03  0.11453279568E+03  0.00000000000E+00 0. -1.
        -14    1    4    4    0    0 -0.54529036917E+02 -0.17314041528E+02 -0.33120213676E+02  0.66107037864E+02  0.00000000000E+00 0.  1.
</event>
<event>
12    1  0.8691829E-002  0.2484785E+03  0.7818608E-02  0.1115612E+00
         21   -1    0    0  503  502  0.00000000000E+00  0.00000000000E+00  0.26567966484E+03  0.26567966484E+03  0.00000000000E+00 0. -1.
         21   -1    0    0  501  503 -0.00000000000E+00 -0.00000000000E+00 -0.32931052958E+03  0.32931052958E+03  0.00000000000E+00 0.  1.
          6    2    1    2  501    0 -0.33597306473E+02  0.17181213691E+03 -0.19909173005E+03  0.31198632256E+03  0.16446810968E+03 0.  0.
         24    2    3    3    0    0  0.35807997096E+02  0.61236125252E+02 -0.66173100793E+02  0.12561679039E+03  0.79803653227E+02 0.  0.
         -6    2    1    2    0  502  0.33597306473E+02 -0.17181213691E+03  0.13546086531E+03  0.28300387185E+03  0.17633308272E+03 0.  0.
        -24    2    5    5    0    0 -0.58026742094E+01 -0.54085907155E+02  0.12275288462E+03  0.15812230226E+03  0.83519072130E+02 0.  0.
          5    1    3    3  501    0 -0.69405303568E+02  0.11057601166E+03 -0.13291862926E+03  0.18636953217E+03  0.47000000000E+01 0. -1.
        -11    1    4    4    0    0  0.57200619326E+01  0.73156457161E+02 -0.53713262587E+02  0.90937895900E+02  0.00000000000E+00 0.  1.
         12    1    4    4    0    0  0.30087935163E+02 -0.11920331910E+02 -0.12459838205E+02  0.34678894494E+02  0.00000000000E+00 0. -1.
         -5    1    5    5    0  502  0.39399980682E+02 -0.11772622976E+03  0.12707980686E+02  0.12488156959E+03  0.47000000000E+01 0.  1.
         13    1    6    6    0    0  0.98785012032E+00 -0.39959279538E+02  0.13334361027E+03  0.13920574079E+03  0.00000000000E+00 0. -1.
        -14    1    6    6    0    0 -0.67905243298E+01 -0.14126627616E+02 -0.10590725644E+02  0.18916561478E+02  0.00000000000E+00 0.  1.
</event>
<event>
12    1  0.8691829E-002  0.1764709E+03  0.7818608E-02  0.1171480E+00
         21   -1    0    0  503  502  0.00000000000E+00  0.00000000000E+00  0.14942683902E+03  0.14942683902E+03  0.00000000000E+00 0.  1.
         21   -1    0    0  501  503 -0.00000000000E+00 -0.00000000000E+00 -0.31770307025E+03  0.31770307025E+03  0.00000000000E+00 0.  1.
          6    2    1    2  501    0 -0.24480577582E+02  0.22383395691E+02 -0.22163687849E+03  0.28276793217E+03  0.17243689419E+03 0.  0.
         24    2    3    3    0    0 -0.58146691279E+02 -0.22243271001E+02 -0.19730675281E+03  0.22162063782E+03  0.79435203726E+02 0.  0.
         -6    2    1    2    0  502  0.24480577582E+02 -0.22383395691E+02  0.53360647249E+02  0.18436197709E+03  0.17332531506E+03 0.  0.
        -24    2    5    5    0    0 -0.32341400908E+02 -0.54092976511E+02  0.14163617028E+01  0.10096813106E+03  0.78870406926E+02 0.  0.
          5    1    3    3  501    0  0.33666113697E+02  0.44626666692E+02 -0.24330125675E+02  0.61147294355E+02  0.47000000000E+01 0. -1.
        -11    1    4    4    0    0 -0.60117197480E+02  0.91370874272E+01 -0.16789163366E+03  0.17856417461E+03  0.00000000000E+00 0.  1.
         12    1    4    4    0    0  0.19705062005E+01 -0.31380358428E+02 -0.29415119150E+02  0.43056463213E+02  0.00000000000E+00 0. -1.
         -5    1    5    5    0  502  0.56821978490E+02  0.31709580820E+02  0.51944285546E+02  0.83393846034E+02  0.47000000000E+01 0.  1.
         13    1    6    6    0    0  0.19093317652E+02  0.76378956340E+01 -0.90064859434E+00  0.20584056854E+02  0.00000000000E+00 0. -1.
        -14    1    6    6    0    0 -0.51434718560E+02 -0.61730872145E+02  0.23170102972E+01  0.80384074206E+02  0.00000000000E+00 0.  1.
</event>
<event>
12    1  0.8691829E-002  0.1992101E+03  0.7818608E-02  0.1151186E+00
         21   -1    0    0  501  502  0.00000000000E+00  0.00000000000E+00  0.55571761008E+02  0.55571761008E+02  0.00000000000E+00 0. -1.
         21   -1    0    0  502  503 -0.00000000000E+00 -0.00000000000E+00 -0.85256390545E+03  0.85256390545E+03  0.00000000000E+00 0.  1.
         -6    2    1    2    0  503  0.77220980132E+02 -0.54166335453E+02 -0.59287968777E+03  0.62545261902E+03  0.17546390741E+03 0.  0.
        -24    2    3    3    0    0  0.33811936687E+02 -0.21272013740E+02 -0.12602158373E+03  0.15540479086E+03  0.81691271416E+02 0.  0.
          6    2    1    2  501    0 -0.77220980132E+02  0.54166335453E+02 -0.20411245667E+03  0.28268304743E+03  0.17132057281E+03 0.  0.
         24    2    5    5    0    0  0.44834410063E+00  0.66148153893E+02 -0.17238798518E+03  0.19780301450E+03  0.70941072963E+02 0.  0.
          5    1    5    5  501    0 -0.77669324233E+02 -0.11981818441E+02 -0.31724471489E+02  0.84880032936E+02  0.47000000000E+01 0. -1.
        -13    1    6    6    0    0 -0.20411346715E+02  0.64274291873E+02 -0.88076408797E+02  0.11092908301E+03  0.00000000000E+00 0.  1.
         14    1    6    6    0    0  0.20859690816E+02  0.18738620206E+01 -0.84311576386E+02  0.86873931490E+02  0.00000000000E+00 0. -1.
         -5    1    3    3    0  503  0.43409043446E+02 -0.32894321712E+02 -0.46685810403E+03  0.47004782816E+03  0.47000000000E+01 0.  1.
         13    1    4    4    0    0  0.60676223520E+02 -0.15164921519E+02 -0.77291197019E+02  0.99425892412E+02  0.00000000000E+00 0. -1.
        -14    1    4    4    0    0 -0.26864286833E+02 -0.61070922216E+01 -0.48730386713E+02  0.55978898450E+02  0.00000000000E+00 0.  1.
</event>
<event>
12    1  0.8691829E-002  0.1881415E+03  0.7818608E-02  0.1160631E+00
         21   -1    0    0  503  502  0.00000000000E+00  0.00000000000E+00  0.75860470218E+02  0.75860470218E+02  0.00000000000E+00 0. -1.
         21   -1    0    0  501  503 -0.00000000000E+00 -0.00000000000E+00 -0.89406680940E+03  0.89406680940E+03  0.00000000000E+00 0. -1.
          6    2    1    2  501    0  0.24980154363E+02 -0.70485633407E+02 -0.74527505749E+03  0.76814471692E+03  0.17035011650E+03 0.  0.
         24    2    3    3    0    0 -0.46986853829E+02 -0.18599823072E+02 -0.44939205706E+03  0.45921069885E+03  0.79796786497E+02 0.  0.
         -6    2    1    2    0  502 -0.24980154363E+02  0.70485633407E+02 -0.72931281690E+02  0.20178256269E+03  0.17264124110E+03 0.  0.
        -24    2    5    5    0    0 -0.56377185517E+02 -0.83822860027E+01 -0.22098233196E+02  0.10272696671E+03  0.82558149280E+02 0.  0.
          5    1    3    3  501    0  0.71967008191E+02 -0.51885810334E+02 -0.29588300042E+03  0.30893401807E+03  0.47000000000E+01 0. -1.
        -13    1    4    4    0    0 -0.66569711576E+01  0.18259100667E+02 -0.29122992313E+03  0.29187767669E+03  0.00000000000E+00 0.  1.
         14    1    4    4    0    0 -0.40329882671E+02 -0.36858923739E+02 -0.15816213393E+03  0.16733302216E+03  0.00000000000E+00 0. -1.
         -5    1    5    5    0  502  0.31397031154E+02  0.78867919409E+02 -0.50833048494E+02  0.99055595988E+02  0.47000000000E+01 0.  1.
         11    1    6    6    0    0 -0.60611404153E+02  0.85964603695E+01  0.13832849856E+02  0.62761366934E+02  0.00000000000E+00 0. -1.
        -12    1    6    6    0    0  0.42342186358E+01 -0.16978746372E+02 -0.35931083052E+02  0.39965599771E+02  0.00000000000E+00 0.  1.
</event>
<event>
12    1  0.8691829E-002  0.2119408E+03  0.7818608E-02  0.1140439E+00
         21   -1    0    0  501  502  0.00000000000E+00  0.00000000000E+00  0.66769931368E+02  0.66769931368E+02  0.00000000000E+00 0.  1.
         21   -1    0    0  502  503 -0.00000000000E+00 -0.00000000000E+00 -0.77636214389E+03  0.77636214389E+03  0.00000000000E+00 0.  1.
         -6    2    1    2    0  503  0.41349674530E+02 -0.11699636426E+03 -0.19753178998E+03  0.28972008576E+03  0.17181669071E+03 0.  0.
        -24    2    3    3    0    0  0.10711793989E+02 -0.10445311790E+02 -0.15413197573E+03  0.17056707328E+03  0.71502541744E+02 0.  0.
          6    2    1    2  501    0 -0.41349674530E+02  0.11699636426E+03 -0.51206042254E+03  0.55341198949E+03  0.16929562590E+03 0.  0.
         24    2    5    5    0    0  0.22210625682E+02  0.11610449932E+02 -0.16131192446E+03  0.18166919991E+03  0.79712274977E+02 0.  0.
          5    1    5    5  501    0 -0.63560300212E+02  0.10538591433E+03 -0.35074849807E+03  0.37174278958E+03  0.47000000000E+01 0. -1.
        -13    1    6    6    0    0 -0.16277215872E+02  0.33935981946E+02 -0.57489879378E+02  0.68714517084E+02  0.00000000000E+00 0.  1.
         14    1    6    6    0    0  0.38487841554E+02 -0.22325532014E+02 -0.10382204508E+03  0.11295468283E+03  0.00000000000E+00 0. -1.
         -5    1    3    3    0  503  0.30637880541E+02 -0.10655105247E+03 -0.43399814256E+02  0.11915301249E+03  0.47000000000E+01 0.  1.
         11    1    4    4    0    0 -0.13422628470E+02  0.26045116963E+02 -0.62285858480E+02  0.68833445644E+02  0.00000000000E+00 0. -1.
        -12    1    4    4    0    0  0.24134422459E+02 -0.36490428753E+02 -0.91846117247E+02  0.10173362763E+03  0.00000000000E+00 0.  1.
</event>
<event>
12    1  0.8691829E-002  0.1989555E+03  0.7818608E-02  0.1150897E+00
         21   -1    0    0  501  502  0.00000000000E+00  0.00000000000E+00  0.12965618551E+04  0.12965618551E+04  0.00000000000E+00 0. -1.
         21   -1    0    0  502  503 -0.00000000000E+00 -0.00000000000E+00 -0.63004388546E+02  0.63004388546E+02  0.00000000000E+00 0.  1.
         -6    2    1    2    0  503  0.65754567628E+02  0.73143057932E+02  0.12822050649E+03  0.23669343513E+03  0.17294425073E+03 0.  0.
        -24    2    3    3    0    0  0.29317601971E+02  0.11062073325E+03  0.74787341822E+02  0.16179736247E+03  0.86537688873E+02 0.  0.
          6    2    1    2  501    0 -0.65754567628E+02 -0.73143057932E+02  0.11053369600E+04  0.11228728085E+04  0.17146421999E+03 0.  0.
         24    2    5    5    0    0 -0.91652378111E+02 -0.36447553260E+02  0.50893578974E+03  0.52476437135E+03  0.81445839701E+02 0.  0.
          5    1    5    5  501    0  0.25897810483E+02 -0.36695504671E+02  0.59640117028E+03  0.59810843713E+03  0.47000000000E+01 0. -1.
        -13    1    6    6    0    0 -0.68394358486E+02 -0.63272778724E+01  0.44569618743E+03  0.45095777430E+03  0.00000000000E+00 0.  1.
         14    1    6    6    0    0 -0.23258019625E+02 -0.30120275388E+02  0.63239602311E+02  0.73806597041E+02  0.00000000000E+00 0. -1.
         -5    1    3    3    0  503  0.36436965657E+02 -0.37477675316E+02  0.53433164671E+02  0.74896072662E+02  0.47000000000E+01 0.  1.
         11    1    4    4    0    0  0.49236681716E+01 -0.20771672936E+01  0.41413668183E+02  0.41757023896E+02  0.00000000000E+00 0. -1.
        -12    1    4    4    0    0  0.24393933800E+02  0.11269790054E+03  0.33373673639E+02  0.12004033857E+03  0.00000000000E+00 0.  1.
</event>
<event>
12    1  0.8691829E-002  0.2243744E+03  0.7818608E-02  0.1130916E+00
         21   -1    0    0  503  502  0.00000000000E+00  0.00000000000E+00  0.15248961196E+03  0.15248961196E+03  0.00000000000E+00 0. -1.
         21   -1    0    0  501  503 -0.00000000000E+00 -0.00000000000E+00 -0.54288596455E+03  0.54288596455E+03  0.00000000000E+00 0.  1.
          6    2    1    2  501    0 -0.47184145180E+02  0.13716310305E+03 -0.41352165718E+03  0.46981263783E+03  0.16936260896E+03 0.  0.
         24    2    3    3    0    0 -0.86635663255E+02  0.81670618495E+02 -0.34127214034E+03  0.37042490818E+03  0.81068555906E+02 0.  0.
         -6    2    1    2    0  502  0.47184145180E+02 -0.13716310305E+03  0.23125304591E+02  0.22556293868E+03  0.17118352490E+03 0.  0.
        -24    2    5    5    0    0 -0.51723231894E+02 -0.69493924503E+02  0.10691732562E+02  0.10498735790E+03  0.58338100022E+02 0.  0.
          5    1    3    3  501    0  0.39451518075E+02  0.55492484557E+02 -0.72249516838E+02  0.99387729645E+02  0.47000000000E+01 0. -1.
        -13    1    4    4    0    0 -0.54061683602E+02  0.37822752638E+01 -0.18538829639E+03  0.19314707266E+03  0.00000000000E+00 0.  1.
         14    1    4    4    0    0 -0.32573979654E+02  0.77888343231E+02 -0.15588384395E+03  0.17727783552E+03  0.00000000000E+00 0. -1.
         -5    1    5    5    0  502  0.98907377074E+02 -0.67669178549E+02  0.12433572029E+02  0.12057558077E+03  0.47000000000E+01 0.  1.
         11    1    6    6    0    0 -0.48184399679E+02 -0.25620365591E+02  0.23093585231E+02  0.59257515846E+02  0.00000000000E+00 0. -1.
        -12    1    6    6    0    0 -0.35388322152E+01 -0.43873558912E+02 -0.12401852669E+02  0.45729842059E+02  0.00000000000E+00 0.  1.
</event>
<event>
12    1  0.8691829E-002  0.2109921E+03  0.7818608E-02  0.1140846E+00
         21   -1    0    0  501  502  0.00000000000E+00  0.00000000000E+00  0.16326570373E+03  0.16326570373E+03  0.00000000000E+00 0.  1.
         21   -1    0    0  502  503 -0.00000000000E+00 -0.00000000000E+00 -0.59837212451E+03  0.59837212451E+03  0.00000000000E+00 0.  1.
         -6    2    1    2    0  503 -0.16421427245E+02  0.11777170132E+03 -0.49861519078E+03  0.54129481333E+03  0.17390551903E+03 0.  0.
        -24    2    3    3    0    0  0.48441590104E+02  0.10863099912E+03 -0.30926472181E+03  0.34087911146E+03  0.80041357118E+02 0.  0.
          6    2    1    2  501    0  0.16421427245E+02 -0.11777170132E+03  0.63508770008E+02  0.22034301491E+03  0.17429240789E+03 0.  0.
         24    2    5    5    0    0  0.61726218598E+02 -0.20914820351E+02  0.40053119559E+02  0.11077095164E+03  0.80114889808E+02 0.  0.
          5    1    5    5  501    0 -0.45304791353E+02 -0.96856880969E+02  0.23455650449E+02  0.10957206327E+03  0.47000000000E+01 0. -1.
        -11    1    6    6    0    0  0.33305273890E+02 -0.37104572146E+02 -0.10121295884E+02  0.50876626985E+02  0.00000000000E+00 0.  1.
         12    1    6    6    0    0  0.28420944708E+02  0.16189751795E+02  0.50174415443E+02  0.59894324659E+02  0.00000000000E+00 0. -1.
         -5    1    3    3    0  503 -0.64863017349E+02  0.91407022039E+01 -0.18935046897E+03  0.20041570187E+03  0.47000000000E+01 0.  1.
         13    1    4    4    0    0  0.30151919070E+02  0.50930650110E+02 -0.24719306872E+03  0.25418002000E+03  0.00000000000E+00 0. -1.
        -14    1    4    4    0    0  0.18289671034E+02  0.57700349006E+02 -0.62071653097E+02  0.86699091461E+02  0.00000000000E+00 0.  1.
</event>
<event>
12    1  0.8691829E-002  0.2714190E+03  0.7818608E-02  0.1100488E+00
         21   -1    0    0  503  502  0.00000000000E+00  0.00000000000E+00  0.48018513374E+03  0.48018513374E+03  0.00000000000E+00 0. -1.
         21   -1    0    0  501  503 -0.00000000000E+00 -0.00000000000E+00 -0.15941508840E+03  0.15941508840E+03  0.00000000000E+00 0.  1.
          6    2    1    2  501    0 -0.13053375710E+03 -0.16421610848E+03  0.22275374760E+03  0.35102536712E+03  0.17202785898E+03 0.  0.
         24    2    3    3    0    0 -0.13802661691E+03 -0.17233379603E+03  0.15236432977E+03  0.27961948542E+03  0.78878916131E+02 0.  0.
         -6    2    1    2    0  502  0.13053375710E+03  0.16421610848E+03  0.98016297746E+02  0.28857485502E+03  0.17222735060E+03 0.  0.
        -24    2    5    5    0    0  0.33820757167E+02  0.26624356907E+02  0.64035398679E+02  0.11693078737E+03  0.87861121972E+02 0.  0.
          5    1    3    3  501    0  0.74928598106E+01  0.81176875473E+01  0.70389417833E+02  0.71405881705E+02  0.47000000000E+01 0. -1.
        -13    1    4    4    0    0 -0.36226219751E+01 -0.57559587294E+02  0.39899906056E+02  0.70130107534E+02  0.00000000000E+00 0.  1.
         14    1    4    4    0    0 -0.13440399493E+03 -0.11477420874E+03  0.11246442371E+03  0.20948937788E+03  0.00000000000E+00 0. -1.
         -5    1    5    5    0  502  0.96712999932E+02  0.13759175158E+03  0.33980899067E+02  0.17164406765E+03  0.47000000000E+01 0.  1.
         11    1    6    6    0    0  0.13420506544E+01  0.42717277282E+02  0.68158844454E+02  0.80449953112E+02  0.00000000000E+00 0. -1.
        -12    1    6    6    0    0  0.32478706512E+02 -0.16092920375E+02 -0.41234457746E+01  0.36480834255E+02  0.00000000000E+00 0.  1.
</event>
<event>
12    1  0.8691829E-002  0.1774474E+03  0.7818608E-02  0.1170316E+00
         21   -1    0    0  501  502  0.00000000000E+00  0.00000000000E+00  0.53733646861E+03  0.53733646861E+03  0.00000000000E+00 0.  1.
         21   -1    0    0  502  503 -0.00000000000E+00 -0.00000000000E+00 -0.18492303001E+03  0.18492303001E+03  0.00000000000E+00 0.  1.
         -6    2    1    2    0  503  0.40357461536E+02  0.45224944045E+01 -0.12231306995E+03  0.21545300556E+03  0.17265669077E+03 0.  0.
        -24    2    3    3    0    0 -0.17750130217E+02  0.55830290839E+02 -0.84045200922E+02  0.12887643833E+03  0.78188567321E+02 0.  0.
          6    2    1    2  501    0 -0.40357461536E+02 -0.45224944045E+01  0.47472650855E+03  0.50680649305E+03  0.17273791078E+03 0.  0.
         24    2    5    5    0    0  0.24543887785E+02 -0.27381974216E+02  0.14364634087E+03  0.16861881085E+03  0.80286095856E+02 0.  0.
          5    1    5    5  501    0 -0.64901349321E+02  0.22859479812E+02  0.33108016769E+03  0.33818768221E+03  0.47000000000E+01 0. -1.
        -11    1    6    6    0    0 -0.66853479307E+01  0.13130030177E+02  0.10086364925E+03  0.10193413221E+03  0.00000000000E+00 0.  1.
         12    1    6    6    0    0  0.31229235715E+02 -0.40512004393E+02  0.42782691622E+02  0.66684678643E+02  0.00000000000E+00 0. -1.
         -5    1    3    3    0  503  0.58107591753E+02 -0.51307796434E+02 -0.38267869028E+02  0.86576567235E+02  0.47000000000E+01 0.  1.
         13    1    4    4    0    0 -0.33999100953E+02 -0.49899321614E+01 -0.24312326642E+02  0.42094269389E+02  0.00000000000E+00 0. -1.
        -14    1    4    4    0    0  0.16248970736E+02  0.60820223000E+02 -0.59732874279E+02  0.86782168937E+02  0.00000000000E+00 0.  1.
</event>
<event>
12    1  0.8691829E-002  0.2459487E+03  0.7818608E-02  0.1116850E+00
         21   -1    0    0  501  502  0.00000000000E+00  0.00000000000E+00  0.79514463988E+02  0.79514463988E+02  0.00000000000E+00 0.  1.
         21   -1    0    0  502  503 -0.00000000000E+00 -0.00000000000E+00 -0.75825610090E+03  0.75825610090E+03  0.00000000000E+00 0.  1.
         -6    2    1    2    0  503  0.15969319480E+03 -0.52013622389E+02 -0.40331880414E+03  0.47239474975E+03  0.17967584266E+03 0.  0.
        -24    2    3    3    0    0  0.11934184659E+03 -0.10564552604E+03 -0.31267850980E+03  0.35951266370E+03  0.77961858317E+02 0.  0.
          6    2    1    2  501    0 -0.15969319480E+03  0.52013622389E+02 -0.27542283276E+03  0.36537581513E+03  0.17156461203E+03 0.  0.
         24    2    5    5    0    0 -0.14877788377E+03  0.83074406051E+02 -0.17249266487E+03  0.25720638433E+03  0.85820679738E+02 0.  0.
          5    1    5    5  501    0 -0.10915311029E+02 -0.31060783662E+02 -0.10293016790E+03  0.10816943080E+03  0.47000000000E+01 0. -1.
        -13    1    6    6    0    0 -0.64746408037E+02  0.66547931944E+02 -0.13469413915E+03  0.16359473011E+03  0.00000000000E+00 0.  1.
         14    1    6    6    0    0 -0.84031475729E+02  0.16526474107E+02 -0.37798525719E+02  0.93611654222E+02  0.00000000000E+00 0. -1.
         -5    1    3    3    0  503  0.40351348209E+02  0.53631903652E+02 -0.90640294349E+02  0.11288208605E+03  0.47000000000E+01 0.  1.
         13    1    4    4    0    0  0.11020538157E+03 -0.98784583476E+02 -0.21409734680E+03  0.26027157733E+03  0.00000000000E+00 0. -1.
        -14    1    4    4    0    0  0.91364650174E+01 -0.68609425646E+01 -0.98581162995E+02  0.99241086367E+02  0.00000000000E+00 0.  1.
</event>
<event>
12    1  0.8691829E-002  0.2206184E+03  0.7818608E-02  0.1133506E+00
         21   -1    0    0  501  502  0.00000000000E+00  0.00000000000E+00  0.11121390954E+04  0.11121390954E+04  0.00000000000E+00 0. -1.
         21   -1    0    0  502  503 -0.00000000000E+00 -0.00000000000E+00 -0.59593056053E+02  0.59593056053E+02  0.00000000000E+00 0. -1.
         -6    2    1    2    0  503  0.13380410775E+03  0.33814813170E+02  0.22388243530E+03  0.31431806058E+03  0.17212064818E+03 0.  0.
        -24    2    3    3    0    0  0.73200600875E+02  0.61323312229E+02  0.60807098432E+02  0.13812169836E+03  0.79127894867E+02 0.  0.
          6    2    1    2  501    0 -0.13380410775E+03 -0.33814813170E+02  0.82866360400E+03  0.85741409083E+03  0.17154758441E+03 0.  0.
         24    2    5    5    0    0 -0.57718902050E+02  0.37153268499E+02  0.27936278143E+03  0.29832652093E+03  0.79014634254E+02 0.  0.
          5    1    5    5  501    0 -0.76085205696E+02 -0.70968081670E+02  0.54930082257E+03  0.55908756990E+03  0.47000000000E+01 0. -1.
        -11    1    6    6    0    0  0.71421599969E+01  0.38449604075E+02  0.89000754670E+02  0.97213768751E+02  0.00000000000E+00 0.  1.
         12    1    6    6    0    0 -0.64861062046E+02 -0.12963355757E+01  0.19036202676E+03  0.20111275218E+03  0.00000000000E+00 0. -1.
         -5    1    3    3    0  503  0.60603506870E+02 -0.27508499059E+02  0.16307533687E+03  0.17619636222E+03  0.47000000000E+01 0.  1.
         13    1    4    4    0    0  0.65023097507E+02  0.58139741181E+02  0.79152705077E+02  0.11778532776E+03  0.00000000000E+00 0. -1.
        -14    1    4    4    0    0  0.81775033677E+01  0.31835710483E+01 -0.18345606645E+02  0.20336370599E+02  0.00000000000E+00 0.  1.
</event>
<event>
12    1  0.8691829E-002  0.1794584E+03  0.7818608E-02  0.1168433E+00
         21   -1    0    0  501  502  0.00000000000E+00  0.00000000000E+00  0.44279092401E+03  0.44279092401E+03  0.00000000000E+00 0.  1.
         21   -1    0    0  502  503 -0.00000000000E+00 -0.00000000000E+00 -0.12134401568E+03  0.12134401568E+03  0.00000000000E+00 0.  1.
         -6    2    1    2    0  503  0.35529539382E+02 -0.42435796970E+02 -0.18244700410E+02  0.17995309417E+03  0.17025598954E+03 0.  0.
        -24    2    3    3    0    0 -0.42115106461E+02 -0.44386610147E+02 -0.49439623706E+01  0.10101326688E+03  0.80220844978E+02 0.  0.
          6    2    1    2  501    0 -0.35529539382E+02  0.42435796970E+02  0.33969160874E+03  0.38418184553E+03  0.17071073883E+03 0.  0.
         24    2    5    5    0    0 -0.55839682680E+02  0.86075493858E+02  0.23384269622E+03  0.26780741815E+03  0.80692910695E+02 0.  0.
          5    1    5    5  501    0  0.20310143298E+02 -0.43639696888E+02  0.10584891252E+03  0.11637442738E+03  0.47000000000E+01 0. -1.
        -13    1    6    6    0    0 -0.48722094561E+02  0.41655240514E+02  0.20397040736E+03  0.21380581994E+03  0.00000000000E+00 0.  1.
         14    1    6    6    0    0 -0.71175881192E+01  0.44420253344E+02  0.29872288858E+02  0.54001598211E+02  0.00000000000E+00 0. -1.
         -5    1    3    3    0  503  0.77644645842E+02  0.19508131775E+01 -0.13300738039E+02  0.78939827289E+02  0.47000000000E+01 0.  1.
         13    1    4    4    0    0  0.73019475353E+01 -0.46432653783E+02  0.12382234304E+02  0.48606887387E+02  0.00000000000E+00 0. -1.
        -14    1    4    4    0    0 -0.49417053996E+02  0.20460436352E+01 -0.17326196675E+02  0.52406379492E+02  0.00000000000E+00 0.  1.
</event>
<event>
12    1  0.8691829E-002  0.2091263E+03  0.7818608E-02  0.1142386E+00
         21   -1    0    0  501  502  0.00000000000E+00  0.00000000000E+00  0.97558366762E+03  0.97558366762E+03  0.00000000000E+00 0. -1.
         21   -1    0    0  502  503 -0.00000000000E+00 -0.00000000000E+00 -0.31538658422E+03  0.31538658422E+03  0.00000000000E+00 0. -1.
         -6    2    1    2    0  503  0.11939187545E+03  0.74715889897E+01 -0.26797578720E+03  0.33952992139E+03  0.17076094527E+03 0.  0.
        -24    2    3    3    0    0  0.21615102086E+02  0.48697565830E+02 -0.90156364377E+02  0.13240262790E+03  0.81016172964E+02 0.  0.
          6    2    1    2  501    0 -0.11939187545E+03 -0.74715889897E+01  0.92817287060E+03  0.95144033044E+03  0.17153302921E+03 0.  0.
         24    2    5    5    0    0 -0.10484091983E+03  0.13560025850E+02  0.37066217840E+03  0.39332356752E+03  0.78342105557E+02 0.  0.
          5    1    5    5  501    0 -0.14550955624E+02 -0.21031614840E+02  0.55751069220E+03  0.55811676292E+03  0.47000000000E+01 0. -1.
        -13    1    6    6    0    0 -0.83604336699E+02 -0.18971356238E+02  0.30698496710E+03  0.31873087001E+03  0.00000000000E+00 0.  1.
         14    1    6    6    0    0 -0.21236583131E+02  0.32531382088E+02  0.63677211299E+02  0.74592697514E+02  0.00000000000E+00 0. -1.
         -5    1    3    3    0  503  0.97776773368E+02 -0.41225976840E+02 -0.17781942282E+03  0.20712729349E+03  0.47000000000E+01 0.  1.
         13    1    4    4    0    0  0.10302401069E+02  0.87232735331E+01 -0.89848820690E+02  0.90857281207E+02  0.00000000000E+00 0. -1.
        -14    1    4    4    0    0  0.11312701017E+02  0.39974292297E+02 -0.30754368739E+00  0.41545346696E+02  0.00000000000E+00 0.  1.
</event>
<event>
12    1  0.8691829E-002  0.1966710E+03  0.7818608E-02  0.1152706E+00
         21   -1    0    0  503  502  0.00000000000E+00  0.00000000000E+00  0.22850266984E+03  0.22850266984E+03  0.00000000000E+00 0. -1.
         21   -1    0    0  501  503 -0.00000000000E+00 -0.00000000000E+00 -0.17302106244E+03  0.17302106244E+03  0.00000000000E+00 0.  1.
          6    2    1    2  501    0  0.13789658085E+02 -0.91755210504E+02 -0.37888927009E+01  0.19611565450E+03  0.17273627560E+03 0.  0.
         24    2    3    3    0    0  0.18945159553E+02 -0.92539751847E+02  0.55654203817E+02  0.13625943992E+03  0.80911802734E+02 0.  0.
         -6    2    1    2    0  502 -0.13789658085E+02  0.91755210504E+02  0.59270500105E+02  0.20540807778E+03  0.17340793785E+03 0.  0.
        -24    2    5    5    0    0 -0.38475135434E+02 -0.15077396842E+02  0.47074343446E+02  0.94984280424E+02  0.71402771477E+02 0.  0.
          5    1    3    3  501    0 -0.51555014683E+01  0.78454134307E+00 -0.59443096518E+02  0.59856214582E+02  0.47000000000E+01 0. -1.
        -11    1    4    4    0    0  0.10281924414E+02 -0.20551900781E+02 -0.20724795691E+02  0.30945367210E+02  0.00000000000E+00 0.  1.
         12    1    4    4    0    0  0.86632351393E+01 -0.71987851066E+02  0.76378999508E+02  0.10531407271E+03  0.00000000000E+00 0. -1.
         -5    1    5    5    0  502  0.24685477349E+02  0.10683260735E+03  0.12196156659E+02  0.11042379735E+03  0.47000000000E+01 0.  1.
         13    1    6    6    0    0  0.18671176392E+02  0.20681707502E+01  0.25214024014E+02  0.31442601118E+02  0.00000000000E+00 0. -1.
        -14    1    6    6    0    0 -0.57146311826E+02 -0.17145567592E+02  0.21860319432E+02  0.63541679306E+02  0.00000000000E+00 0.  1.
</event>
<event>
12    1  0.8691829E-002  0.1889305E+03  0.7818608E-02  0.1159691E+00
         21   -1    0    0  501  502  0.00000000000E+00  0.00000000000E+00  0.13834134859E+04  0.13834134859E+04  0.00000000000E+00 0. -1.
         21   -1    0    0  502  503 -0.00000000000E+00 -0.00000000000E+00 -0.25814211538E+02  0.25814211538E+02  0.00000000000E+00 0. -1.
         -6    2    1    2    0  503  0.76321712028E+02 -0.14035868509E+02  0.62391594521E+03  0.65189403676E+03  0.17225771142E+03 0.  0.
        -24    2    3    3    0    0  0.94018884773E+02  0.36479005264E+02  0.34323505871E+03  0.36611651413E+03  0.77850676747E+02 0.  0.
          6    2    1    2  501    0 -0.76321712028E+02  0.14035868509E+02  0.73368332918E+03  0.75733366070E+03  0.17100010757E+03 0.  0.
         24    2    5    5    0    0 -0.72881901578E+02 -0.51274749102E+02  0.40841430716E+03  0.42552146118E+03  0.79532359188E+02 0.  0.
          5    1    5    5  501    0 -0.34398104497E+01  0.65310617611E+02  0.32526902202E+03  0.33181219953E+03  0.47000000000E+01 0. -1.
        -13    1    6    6    0    0 -0.48301395107E+02 -0.55602022059E+02  0.16331513122E+03  0.17915479818E+03  0.00000000000E+00 0.  1.
         14    1    6    6    0    0 -0.24580506471E+02  0.43272729575E+01  0.24509917594E+03  0.24636666300E+03  0.00000000000E+00 0. -1.
         -5    1    3    3    0  503 -0.17697172745E+02 -0.50514873774E+02  0.28068088650E+03  0.28577752263E+03  0.47000000000E+01 0.  1.
         11    1    4    4    0    0  0.56653141494E+02 -0.12366103330E+02  0.23067667776E+03  0.23785337629E+03  0.00000000000E+00 0. -1.
        -12    1    4    4    0    0  0.37365743278E+02  0.48845108594E+02  0.11255838095E+03  0.12826313783E+03  0.00000000000E+00 0.  1.
</event>
<event>
12    1  0.8691829E-002  0.2793987E+03  0.7818608E-02  0.1096388E+00
         21   -1    0    0  503  502  0.00000000000E+00  0.00000000000E+00  0.67492794079E+03  0.67492794079E+03  0.00000000000E+00 0. -1.
         21   -1    0    0  501  503 -0.00000000000E+00 -0.00000000000E+00 -0.11455191254E+03  0.11455191254E+03  0.00000000000E+00 0. -1.
          6    2    1    2  501    0  0.17371571740E+03  0.13405671080E+03  0.28212607184E+03  0.39706263842E+03  0.17296030248E+03 0.  0.
         24    2    3    3    0    0  0.29501331739E+02  0.92543100304E+02  0.16157947110E+03  0.20451461366E+03  0.79270093553E+02 0.  0.
         -6    2    1    2    0  502 -0.17371571740E+03 -0.13405671080E+03  0.27824995642E+03  0.39241721491E+03  0.16858196857E+03 0.  0.
        -24    2    5    5    0    0 -0.14097381997E+03 -0.15967894174E+03  0.26381083210E+03  0.34815539302E+03  0.79025566784E+02 0.  0.
          5    1    3    3  501    0  0.14421438567E+03  0.41513610497E+02  0.12054660074E+03  0.19254802476E+03  0.47000000000E+01 0. -1.
        -13    1    4    4    0    0 -0.21524083719E+02  0.22269321846E+02  0.78255988429E+02  0.84161800126E+02  0.00000000000E+00 0.  1.
         14    1    4    4    0    0  0.51025415459E+02  0.70273778458E+02  0.83323482670E+02  0.12035281353E+03  0.00000000000E+00 0. -1.
         -5    1    5    5    0  502 -0.32741897429E+02  0.25622230938E+02  0.14439124321E+02  0.44261821886E+02  0.47000000000E+01 0.  1.
         13    1    6    6    0    0 -0.94622749907E+02 -0.69876838433E+02  0.18822483092E+03  0.22195680734E+03  0.00000000000E+00 0. -1.
        -14    1    6    6    0    0 -0.46351070068E+02 -0.89802103306E+02  0.75586001181E+02  0.12619858569E+03  0.00000000000E+00 0.  1.
</event>
<event>
12    1  0.8691829E-002  0.1962553E+03  0.7818608E-02  0.1153301E+00
         21   -1    0    0  501  502  0.00000000000E+00  0.00000000000E+00  0.83843694259E+02  0.83843694259E+02  0.00000000000E+00 0.  1.
         21   -1    0    0  502  503 -0.00000000000E+00 -0.00000000000E+00 -0.46014163013E+03  0.46014163013E+03  0.00000000000E+00 0.  1.
         -6    2    1    2    0  503  0.86211728566E+02  0.28892271925E+02 -0.15995384900E+03  0.25188787519E+03  0.17203209682E+03 0.  0.
        -24    2    3    3    0    0 -0.98833227780E+01  0.19220404890E+01 -0.10874540744E+03  0.13961122239E+03  0.86973303191E+02 0.  0.
          6    2    1    2  501    0 -0.86211728566E+02 -0.28892271925E+02 -0.21634408686E+03  0.29209744920E+03  0.17392219637E+03 0.  0.
         24    2    5    5    0    0 -0.14664026319E+02 -0.51055399848E+02 -0.46692285645E+02  0.10658706784E+03  0.79742999504E+02 0.  0.
          5    1    5    5  501    0 -0.71547702247E+02  0.22163127923E+02 -0.16965180122E+03  0.18551038136E+03  0.47000000000E+01 0. -1.
        -11    1    6    6    0    0 -0.28818835792E+02 -0.54852960061E+02 -0.60392478038E+02  0.86525279124E+02  0.00000000000E+00 0.  1.
         12    1    6    6    0    0  0.14154809473E+02  0.37975602129E+01  0.13700192393E+02  0.20061788714E+02  0.00000000000E+00 0. -1.
         -5    1    3    3    0  503  0.96095051344E+02  0.26970231436E+02 -0.51208441562E+02  0.11227665280E+03  0.47000000000E+01 0.  1.
         13    1    4    4    0    0  0.14680534624E+02 -0.37968154821E+02 -0.50549608526E+02  0.64902710263E+02  0.00000000000E+00 0. -1.
        -14    1    4    4    0    0 -0.24563857402E+02  0.39890195310E+02 -0.58195798917E+02  0.74708512124E+02  0.00000000000E+00 0.  1.
</event>
<event>
12    1  0.8691829E-002  0.1881385E+03  0.7818608E-02  0.1160738E+00
         21   -1    0    0  501  502  0.00000000000E+00  0.00000000000E+00  0.36152711177E+03  0.36152711177E+03  0.00000000000E+00 0.  1.
         21   -1    0    0  502  503 -0.00000000000E+00 -0.00000000000E+00 -0.10126264436E+03  0.10126264436E+03  0.00000000000E+00 0.  1.
         -6    2    1    2    0  503 -0.57730916512E+02  0.49949355980E+02  0.81243312314E+02  0.20493061927E+03  0.17195431380E+03 0.  0.
        -24    2    3    3    0    0 -0.62774252049E+02  0.76391157050E+02  0.10866575488E+03  0.16621777342E+03  0.77742435791E+02 0.  0.
          6    2    1    2  501    0  0.57730916512E+02 -0.49949355980E+02  0.17902115510E+03  0.25785913686E+03  0.16915958030E+03 0.  0.
         24    2    5    5    0    0  0.28481953898E+02  0.32299321511E+02  0.12911454110E+03  0.15719580251E+03  0.78647871770E+02 0.  0.
          5    1    5    5  501    0  0.29248962614E+02 -0.82248677490E+02  0.49906613997E+02  0.10066333436E+03  0.47000000000E+01 0. -1.
        -13    1    6    6    0    0  0.40522672066E+02 -0.10911714773E+02  0.82164666854E+02  0.92261503076E+02  0.00000000000E+00 0.  1.
         14    1    6    6    0    0 -0.12040718168E+02  0.43211036283E+02  0.46949874249E+02  0.64934299431E+02  0.00000000000E+00 0. -1.
         -5    1    3    3    0  503  0.50433355377E+01 -0.26441801070E+02 -0.27422442565E+02  0.38712845844E+02  0.47000000000E+01 0.  1.
         13    1    4    4    0    0 -0.41061952816E+02  0.69652882831E+02  0.11681441123E+03  0.14206764138E+03  0.00000000000E+00 0. -1.
        -14    1    4    4    0    0 -0.21712299233E+02  0.67382742191E+01 -0.81486563521E+01  0.24150132045E+02  0.00000000000E+00 0.  1.
</event>
<event>
12    1  0.8691829E-002  0.2253143E+03  0.7818608E-02  0.1130424E+00
         21   -1    0    0  501  502  0.00000000000E+00  0.00000000000E+00  0.11902705698E+03  0.11902705698E+03  0.00000000000E+00 0. -1.
         21   -1    0    0  502  503 -0.00000000000E+00 -0.00000000000E+00 -0.43498808433E+03  0.43498808433E+03  0.00000000000E+00 0. -1.
         -6    2    1    2    0  503  0.15941271276E+02  0.14273256741E+03 -0.11079939214E+03  0.25108373634E+03  0.17360825852E+03 0.  0.
        -24    2    3    3    0    0  0.78029338135E+02  0.84003712825E+02 -0.60757636049E+02  0.15193599930E+03  0.79043381552E+02 0.  0.
          6    2    1    2  501    0 -0.15941271276E+02 -0.14273256741E+03 -0.20516163521E+03  0.30293140497E+03  0.17043893224E+03 0.  0.
         24    2    5    5    0    0 -0.62091590918E+02 -0.74811042304E+02 -0.63972921736E+02  0.13953150170E+03  0.76970432879E+02 0.  0.
          5    1    5    5  501    0  0.46150319642E+02 -0.67921525105E+02 -0.14118871348E+03  0.16339990327E+03  0.47000000000E+01 0. -1.
        -13    1    6    6    0    0 -0.11809461066E+02  0.10155988476E+00 -0.46056793116E+02  0.47546838772E+02  0.00000000000E+00 0.  1.
         14    1    6    6    0    0 -0.50282129852E+02 -0.74912602188E+02 -0.17916128620E+02  0.91984662927E+02  0.00000000000E+00 0. -1.
         -5    1    3    3    0  503 -0.62088066859E+02  0.58728854584E+02 -0.50041756096E+02  0.99147737040E+02  0.47000000000E+01 0.  1.
         11    1    4    4    0    0  0.13977628880E+02  0.26768411273E+01 -0.45031574828E+02  0.47226923667E+02  0.00000000000E+00 0. -1.
        -12    1    4    4    0    0  0.64051709255E+02  0.81326871698E+02 -0.15726061221E+02  0.10470907563E+03  0.00000000000E+00 0.  1.
</event>
<event>
12    1  0.8691829E-002  0.1779857E+03  0.7818608E-02  0.1171857E+00
         21   -1    0    0  503  502  0.00000000000E+00  0.00000000000E+00  0.14853960638E+03  0.14853960638E+03  0.00000000000E+00 0. -1.
         21   -1    0    0  501  503 -0.00000000000E+00 -0.00000000000E+00 -0.24997633398E+03  0.24997633398E+03  0.00000000000E+00 0. -1.
          6    2    1    2  501    0  0.44013045972E+02  0.10374367041E+02 -0.13765378925E+03  0.22500549249E+03  0.17214566579E+03 0.  0.
         24    2    3    3    0    0  0.25688142118E+02  0.71545575197E+02 -0.94503045720E+02  0.14779282853E+03  0.84458537403E+02 0.  0.
         -6    2    1    2    0  502 -0.44013045972E+02 -0.10374367041E+02  0.36217061649E+02  0.17351044787E+03  0.16355251223E+03 0.  0.
        -24    2    5    5    0    0 -0.48043377240E+02  0.40208834132E+02  0.59838826155E+02  0.11734122525E+03  0.79141402495E+02 0.  0.
          5    1    3    3  501    0  0.18324903854E+02 -0.61171208156E+02 -0.43150743530E+02  0.77212663959E+02  0.47000000000E+01 0. -1.
        -13    1    4    4    0    0 -0.20903818785E+02 -0.44178339044E+01 -0.59861032406E+01  0.22188292594E+02  0.00000000000E+00 0.  1.
         14    1    4    4    0    0  0.46591960903E+02  0.75963409101E+02 -0.88516942480E+02  0.12560453594E+03  0.00000000000E+00 0. -1.
         -5    1    5    5    0  502  0.40303312685E+01 -0.50583201173E+02 -0.23621764507E+02  0.56169222617E+02  0.47000000000E+01 0.  1.
         11    1    6    6    0    0 -0.19661568746E+02  0.85103889425E+01  0.70328507482E+02  0.73519405399E+02  0.00000000000E+00 0. -1.
        -12    1    6    6    0    0 -0.28381808494E+02  0.31698445189E+02 -0.10489681327E+02  0.43821819852E+02  0.00000000000E+00 0.  1.
</event>
<event>
12    1  0.8691829E-002  0.1869945E+03  0.7818608E-02  0.1161438E+00
         21   -1    0    0  501  502  0.00000000000E+00  0.00000000000E+00  0.46475029734E+02  0.46475029734E+02  0.00000000000E+00 0. -1.
         21   -1    0    0  502  503 -0.00000000000E+00 -0.00000000000E+00 -0.75613943916E+03  0.75613943916E+03  0.00000000000E+00 0. -1.
         -6    2    1    2    0  503  0.71832398295E+02 -0.29235264965E+01 -0.39485342395E+03  0.43645478140E+03  0.17150833611E+03 0.  0.
        -24    2    3    3    0    0  0.28431216983E+02  0.51023891228E+01 -0.38034792969E+03  0.38975813030E+03  0.80077987254E+02 0.  0.
          6    2    1    2  501    0 -0.71832398295E+02  0.29235264965E+01 -0.31481098548E+03  0.36615968749E+03  0.17262247742E+03 0.  0.
         24    2    5    5    0    0 -0.92149347081E+02 -0.34309613450E+02 -0.29087852901E+03  0.31723180596E+03  0.79731100159E+02 0.  0.
          5    1    5    5  501    0  0.20316948786E+02  0.37233139947E+02 -0.23932456473E+02  0.48927881531E+02  0.47000000000E+01 0. -1.
        -11    1    6    6    0    0  0.10501209663E+02  0.83695549390E+01 -0.52740255102E+02  0.54422967233E+02  0.00000000000E+00 0.  1.
         12    1    6    6    0    0 -0.10265055674E+03 -0.42679168389E+02 -0.23813827391E+03  0.26280883873E+03  0.00000000000E+00 0. -1.
         -5    1    3    3    0  503  0.43401181312E+02 -0.80259156194E+01 -0.14505494260E+02  0.46696651106E+02  0.47000000000E+01 0.  1.
         11    1    4    4    0    0  0.27347197478E+02  0.38549060287E+02 -0.15838452278E+03  0.16528628593E+03  0.00000000000E+00 0. -1.
        -12    1    4    4    0    0  0.10840195043E+01 -0.33446671164E+02 -0.22196340690E+03  0.22447184437E+03  0.00000000000E+00 0.  1.
</event>
<event>
12    1  0.8691829E-002  0.1806565E+03  0.7818608E-02  0.1167678E+00
         21   -1    0    0  501  502  0.00000000000E+00  0.00000000000E+00  0.52138466826E+03  0.52138466826E+03  0.00000000000E+00 0.  1.
         21   -1    0    0  502  503 -0.00000000000E+00 -0.00000000000E+00 -0.71228744575E+02  0.71228744575E+02  0.00000000000E+00 0.  1.
         -6    2    1    2    0  503 -0.16322382523E+01 -0.56477961285E+02  0.11882331722E+03  0.21623075911E+03  0.17159352015E+03 0.  0.
        -24    2    3    3    0    0  0.43834896997E+02 -0.86024756491E+02  0.82248001762E+02  0.15065548026E+03  0.81305491911E+02 0.  0.
          6    2    1    2  501    0  0.16322382523E+01  0.56477961285E+02  0.33133260646E+03  0.37638265373E+03  0.16938176292E+03 0.  0.
         24    2    5    5    0    0 -0.20869139663E+02 -0.28788627360E+02  0.12924010764E+03  0.15583748550E+03  0.79485913274E+02 0.  0.
          5    1    5    5  501    0  0.22501377916E+02  0.85266588645E+02  0.20209249882E+03  0.22054516822E+03  0.47000000000E+01 0. -1.
        -13    1    6    6    0    0  0.16907110140E+02 -0.41046876922E+02  0.47829763897E+02  0.65256285466E+02  0.00000000000E+00 0.  1.
         14    1    6    6    0    0 -0.37776249803E+02  0.12258249562E+02  0.81410343744E+02  0.90581200036E+02  0.00000000000E+00 0. -1.
         -5    1    3    3    0  503 -0.45467135249E+02  0.29546795206E+02  0.36575315459E+02  0.65575278845E+02  0.47000000000E+01 0.  1.
         13    1    4    4    0    0  0.48001402883E+02 -0.93569377725E+01  0.25307461780E+02  0.55065003268E+02  0.00000000000E+00 0. -1.
        -14    1    4    4    0    0 -0.41665058856E+01 -0.76667818719E+02  0.56940539982E+02  0.95590476993E+02  0.00000000000E+00 0.  1.
</event>
<event>
12    1  0.8691829E-002  0.1856026E+03  0.7818608E-02  0.1162812E+00
         21   -1    0    0  501  502  0.00000000000E+00  0.00000000000E+00  0.21275596005E+03  0.21275596005E+03  0.00000000000E+00 0. -1.
         21   -1    0    0  502  503 -0.00000000000E+00 -0.00000000000E+00 -0.16254108928E+03  0.16254108928E+03  0.00000000000E+00 0. -1.
         -6    2    1    2    0  503 -0.58539970460E+02 -0.30964947405E+02  0.44954750138E+02  0.18961995502E+03  0.17189834692E+03 0.  0.
        -24    2    3    3    0    0 -0.28816123447E+02 -0.54835507214E+02 -0.27326999125E+02  0.10776610976E+03  0.83841920961E+02 0.  0.
          6    2    1    2  501    0  0.58539970460E+02  0.30964947405E+02  0.52601206381E+01  0.18567709431E+03  0.17338557718E+03 0.  0.
         24    2    5    5    0    0  0.43553555274E+02 -0.30570983883E+01  0.66963476435E+02  0.11348646918E+03  0.80553171775E+02 0.  0.
          5    1    5    5  501    0  0.14986415186E+02  0.34022045793E+02 -0.61703355797E+02  0.72190625130E+02  0.47000000000E+01 0. -1.
        -13    1    6    6    0    0 -0.12404383613E+02  0.13745291478E+02 -0.64995542748E+01  0.19622588422E+02  0.00000000000E+00 0.  1.
         14    1    6    6    0    0  0.55957938887E+02 -0.16802389866E+02  0.73463030710E+02  0.93863880757E+02  0.00000000000E+00 0. -1.
         -5    1    3    3    0  503 -0.29723847013E+02  0.23870559809E+02  0.72281749263E+02  0.81853845257E+02  0.47000000000E+01 0.  1.
         11    1    4    4    0    0 -0.55254164611E+02 -0.19003962607E+02 -0.23817156561E+02  0.63098575644E+02  0.00000000000E+00 0. -1.
        -12    1    4    4    0    0  0.26438041164E+02 -0.35831544607E+02 -0.35098425640E+01  0.44667534120E+02  0.00000000000E+00 0.  1.
</event>
<event>
12    1  0.8691829E-002  0.2466773E+03  0.7818608E-02  0.1115611E+00
         21   -1    0    0  501  502  0.00000000000E+00  0.00000000000E+00  0.60163879641E+03  0.60163879641E+03  0.00000000000E+00 0. -1.
         21   -1    0    0  502  503 -0.00000000000E+00 -0.00000000000E+00 -0.11687317615E+03  0.11687317615E+03  0.00000000000E+00 0.  1.
         -6    2    1    2    0  503  0.36445848775E+02  0.17230080185E+03  0.10908076289E+03  0.26971896916E+03  0.17272476164E+03 0.  0.
        -24    2    3    3    0    0 -0.66034128369E+01  0.13798258119E+03  0.13383107232E+03  0.20917438219E+03  0.82221459938E+02 0.  0.
          6    2    1    2  501    0 -0.36445848775E+02 -0.17230080185E+03  0.37568485738E+03  0.44879300340E+03  0.17105607742E+03 0.  0.
         24    2    5    5    0    0  0.93461901751E+01 -0.56444023468E+02  0.75612377726E+02  0.12385410610E+03  0.79682676142E+02 0.  0.
          5    1    5    5  501    0 -0.45792038950E+02 -0.11585677839E+03  0.30007247965E+03  0.32493889729E+03  0.47000000000E+01 0. -1.
        -13    1    6    6    0    0  0.36287678593E+01 -0.76505027157E+02  0.53314161509E+02  0.93319810083E+02  0.00000000000E+00 0.  1.
         14    1    6    6    0    0  0.57174223158E+01  0.20061003690E+02  0.22298216217E+02  0.30534296020E+02  0.00000000000E+00 0. -1.
         -5    1    3    3    0  503  0.43049261612E+02  0.34318220666E+02 -0.24750309429E+02  0.60544586974E+02  0.47000000000E+01 0.  1.
         13    1    4    4    0    0 -0.49264887054E+01  0.38698977283E+02  0.94742728002E+02  0.10246006853E+03  0.00000000000E+00 0. -1.
        -14    1    4    4    0    0 -0.16769241315E+01  0.99283603904E+02  0.39088344317E+02  0.10671431366E+03  0.00000000000E+00 0.  1.
</event>
<event>
12    1  0.8691829E-002  0.1761371E+03  0.7818608E-02  0.1173101E+00
         21   -1    0    0  501  502  0.00000000000E+00  0.00000000000E+00  0.60366937976E+03  0.60366937976E+03  0.00000000000E+00 0.  1.
         21   -1    0    0  502  503 -0.00000000000E+00 -0.00000000000E+00 -0.62599368955E+02  0.62599368955E+02  0.00000000000E+00 0.  1.
         -6    2    1    2    0  503  0.59145029465E+01  0.34926769217E+02  0.12285790052E+03  0.21475185445E+03  0.17253821233E+03 0.  0.
        -24    2    3    3    0    0 -0.31863534508E+02  0.82424320171E-01  0.43188455910E+01  0.85465714322E+02  0.79186136869E+02 0.  0.
          6    2    1    2  501    0 -0.59145029465E+01 -0.34926769217E+02  0.41821211029E+03  0.45151689427E+03  0.16646704198E+03 0.  0.
         24    2    5    5    0    0  0.51309231901E+02 -0.39978526542E+02  0.18721735221E+03  0.21343971279E+03  0.79216501844E+02 0.  0.
          5    1    5    5  501    0 -0.57223734848E+02  0.50517573246E+01  0.23099475808E+03  0.23807718148E+03  0.47000000000E+01 0. -1.
        -13    1    6    6    0    0  0.41765099210E+02 -0.64126134070E+02  0.13872511356E+03  0.15843339835E+03  0.00000000000E+00 0.  1.
         14    1    6    6    0    0  0.95441326914E+01  0.24147607528E+02  0.48492238656E+02  0.55006314438E+02  0.00000000000E+00 0. -1.
         -5    1    3    3    0  503  0.37778037454E+02  0.34844344897E+02  0.11853905493E+03  0.12928614012E+03  0.47000000000E+01 0.  1.
         11    1    4    4    0    0  0.99595253908E+01 -0.23886827681E+02  0.22154231679E+02  0.34067325459E+02  0.00000000000E+00 0. -1.
        -12    1    4    4    0    0 -0.41823059899E+02  0.23969252001E+02 -0.17835386088E+02  0.51398388863E+02  0.00000000000E+00 0.  1.
</event>
<event>
12    1  0.8691829E-002  0.1790541E+03  0.7818608E-02  0.1169578E+00
         21   -1    0    0  503  502  0.00000000000E+00  0.00000000000E+00  0.12560728222E+04  0.12560728222E+04  0.00000000000E+00 0.  1.
         21   -1    0    0  501  503 -0.00000000000E+00 -0.00000000000E+00 -0.29033358641E+02  0.29033358641E+02  0.00000000000E+00 0.  1.
          6    2    1    2  501    0 -0.26025227106E+02  0.24640381599E+02  0.36977041726E+03  0.40933761372E+03  0.17187978261E+03 0.  0.
         24    2    3    3    0    0 -0.67547131117E+02 -0.24751000779E+02  0.17911144797E+03  0.20800080700E+03  0.77512566458E+02 0.  0.
         -6    2    1    2    0  502  0.26025227106E+02 -0.24640381599E+02  0.85726904626E+03  0.87576856709E+03  0.17543062609E+03 0.  0.
        -24    2    5    5    0    0 -0.16862308996E+02 -0.60474551074E+02  0.33591310296E+03  0.35140463043E+03  0.81890736675E+02 0.  0.
          5    1    3    3  501    0  0.41521904011E+02  0.49391382377E+02  0.19065896929E+03  0.20133680671E+03  0.47000000000E+01 0. -1.
        -11    1    4    4    0    0 -0.18176137747E+01 -0.16341888723E+02 -0.60815075064E+00  0.16453902097E+02  0.00000000000E+00 0.  1.
         12    1    4    4    0    0 -0.65729517342E+02 -0.84091120558E+01  0.17971959872E+03  0.19154690490E+03  0.00000000000E+00 0. -1.
         -5    1    5    5    0  502  0.42887536102E+02  0.35834169476E+02  0.52135594330E+03  0.52436393666E+03  0.47000000000E+01 0.  1.
         11    1    6    6    0    0 -0.12037427940E+02 -0.40996320682E+02  0.32642180007E+03  0.32920630241E+03  0.00000000000E+00 0. -1.
        -12    1    6    6    0    0 -0.48248810556E+01 -0.19478230392E+02  0.94913028854E+01  0.22198328020E+02  0.00000000000E+00 0.  1.
</event>
<event>
12    1  0.8691829E-002  0.3621719E+03  0.7818608E-02  0.1058007E+00
         21   -1    0    0  501  502  0.00000000000E+00  0.00000000000E+00  0.25718014987E+03  0.25718014987E+03  0.00000000000E+00 0.  1.
         21   -1    0    0  502  503 -0.00000000000E+00 -0.00000000000E+00 -0.50609667409E+03  0.50609667409E+03  0.00000000000E+00 0. -1.
         -6    2    1    2    0  503 -0.13428575396E+03  0.28765374916E+03 -0.11978052412E+03  0.37877118253E+03  0.16835347230E+03 0.  0.
        -24    2    3    3    0    0 -0.56327300915E+02  0.65253936878E+02 -0.70831878661E+02  0.13802804806E+03  0.81263435254E+02 0.  0.
          6    2    1    2  501    0  0.13428575396E+03 -0.28765374916E+03 -0.12913600009E+03  0.38450564142E+03  0.17433054420E+03 0.  0.
         24    2    5    5    0    0  0.13523293244E+03 -0.12991956595E+03 -0.71777670539E+02  0.21659781649E+03  0.81212933014E+02 0.  0.
          5    1    5    5  501    0 -0.94717848596E+00 -0.15773418322E+03 -0.57358329554E+02  0.16790782493E+03  0.47000000000E+01 0. -1.
        -13    1    6    6    0    0  0.90486370734E+01  0.83679212700E+01  0.62059189275E+01  0.13799035075E+02  0.00000000000E+00 0.  1.
         14    1    6    6    0    0  0.12618429537E+03 -0.13828748722E+03 -0.77983589466E+02  0.20279878142E+03  0.00000000000E+00 0. -1.
         -5    1    3    3    0  503 -0.77958453043E+02  0.22239981229E+03 -0.48948645464E+02  0.24074313448E+03  0.47000000000E+01 0.  1.
         13    1    4    4    0    0 -0.18749210608E+02  0.73521480042E+02 -0.63319783526E+02  0.98824773775E+02  0.00000000000E+00 0. -1.
        -14    1    4    4    0    0 -0.37578090307E+02 -0.82675431638E+01 -0.75120951350E+01  0.39203274281E+02  0.00000000000E+00 0.  1.
</event>
<event>
12    1  0.8691829E-002  0.1994634E+03  0.7818608E-02  0.1151899E+00
         21   -1    0    0  503  502  0.00000000000E+00  0.00000000000E+00  0.52160972897E+03  0.52160972897E+03  0.00000000000E+00 0.  1.
         21   -1    0    0  501  503 -0.00000000000E+00 -0.00000000000E+00 -0.93554410339E+02  0.93554410339E+02  0.00000000000E+00 0.  1.
          6    2    1    2  501    0  0.78648117414E+02  0.30212468337E+02  0.74271758424E+02  0.21284248975E+03  0.18079632664E+03 0.  0.
         24    2    3    3    0    0  0.96914575307E+02  0.37802655584E+02  0.11020755384E+03  0.17155392210E+03  0.80396315761E+02 0.  0.
         -6    2    1    2    0  502 -0.78648117414E+02 -0.30212468337E+02  0.35378356020E+03  0.40232164955E+03  0.17205110466E+03 0.  0.
        -24    2    5    5    0    0 -0.13646785461E+02  0.44081277566E+02  0.19245891956E+03  0.21313268710E+03  0.79093064212E+02 0.  0.
          5    1    3    3  501    0 -0.18266457892E+02 -0.75901872470E+01 -0.35935795418E+02  0.41288567651E+02  0.47000000000E+01 0. -1.
        -13    1    4    4    0    0  0.48425769213E+02  0.58415961854E+02  0.46954220911E+02  0.89231040477E+02  0.00000000000E+00 0.  1.
         14    1    4    4    0    0  0.48488806094E+02 -0.20613306270E+02  0.63253332931E+02  0.82322881623E+02  0.00000000000E+00 0. -1.
         -5    1    5    5    0  502 -0.65001331953E+02 -0.74293745904E+02  0.16132464064E+03  0.18918896245E+03  0.47000000000E+01 0.  1.
         13    1    6    6    0    0 -0.37181340241E+02  0.16680456545E+02  0.15814717225E+03  0.16331325048E+03  0.00000000000E+00 0. -1.
        -14    1    6    6    0    0  0.23534554780E+02  0.27400821021E+02  0.34311747314E+02  0.49819436619E+02  0.00000000000E+00 0.  1.
</event>
<event>
12    1  0.8691829E-002  0.1856221E+03  0.7818608E-02  0.1162580E+00
         21   -1    0    0  503  502  0.00000000000E+00  0.00000000000E+00  0.11006466009E+04  0.11006466009E+04  0.00000000000E+00 0.  1.
         21   -1    0    0  501  503 -0.00000000000E+00 -0.00000000000E+00 -0.31728731418E+02  0.31728731418E+02  0.00000000000E+00 0.  1.
          6    2    1    2  501    0  0.19033821319E+01 -0.68347221692E+02  0.46246468208E+03  0.49815059305E+03  0.17206238871E+03 0.  0.
         24    2    3    3    0    0 -0.21119055980E+02 -0.75607298118E+02  0.16351780680E+03  0.19819382015E+03  0.79876399217E+02 0.  0.
         -6    2    1    2    0  502 -0.19033821319E+01  0.68347221692E+02  0.60645318745E+03  0.63422473932E+03  0.17257052418E+03 0.  0.
        -24    2    5    5    0    0  0.11769420293E+02  0.60873614095E+02  0.60885297751E+03  0.61777331601E+03  0.84248475342E+02 0.  0.
          5    1    3    3  501    0  0.23022438112E+02  0.72600764259E+01  0.29894687528E+03  0.29995677290E+03  0.47000000000E+01 0. -1.
        -11    1    4    4    0    0  0.24026405246E+02 -0.13159898216E+02  0.15900434276E+02  0.31674514681E+02  0.00000000000E+00 0.  1.
         12    1    4    4    0    0 -0.45145461227E+02 -0.62447399902E+02  0.14761737252E+03  0.16651930547E+03  0.00000000000E+00 0. -1.
         -5    1    5    5    0  502 -0.13672802425E+02  0.74736075972E+01 -0.23997900605E+01  0.16451423312E+02  0.47000000000E+01 0.  1.
         11    1    6    6    0    0  0.40526106717E+02  0.38227858695E+01  0.23299032316E+03  0.23651949118E+03  0.00000000000E+00 0. -1.
        -12    1    6    6    0    0 -0.28756686425E+02  0.57050828226E+02  0.37586265435E+03  0.38125382483E+03  0.00000000000E+00 0.  1.
</event>
<event>
12    1  0.8691829E-002  0.1768472E+03  0.7818608E-02  0.1175229E+00
         21   -1    0    0  501  502  0.00000000000E+00  0.00000000000E+00  0.39882698349E+02  0.39882698349E+02  0.00000000000E+00 0. -1.
         21   -1    0    0  502  503 -0.00000000000E+00 -0.00000000000E+00 -0.10847109468E+04  0.10847109468E+04  0.00000000000E+00 0. -1.
         -6    2    1    2    0  503 -0.28215174206E+02 -0.33861950889E+01 -0.86858865097E+03  0.88640915197E+03  0.17454906969E+03 0.  0.
        -24    2    3    3    0    0 -0.47293901840E+02 -0.56585683554E+02 -0.36991735248E+03  0.38452337079E+03  0.74704231989E+02 0.  0.
          6    2    1    2  501    0  0.28215174206E+02  0.33861950889E+01 -0.17623959746E+03  0.23818449316E+03  0.15768289285E+03 0.  0.
         24    2    5    5    0    0  0.83019739618E+01  0.58031532365E+02 -0.85287807276E+02  0.13012447943E+03  0.78878314866E+02 0.  0.
          5    1    5    5  501    0  0.19913200244E+02 -0.54645337276E+02 -0.90951790186E+02  0.10806001373E+03  0.47000000000E+01 0. -1.
        -11    1    6    6    0    0 -0.18638225305E+02 -0.12226576048E+02 -0.26553313247E+02  0.34669165677E+02  0.00000000000E+00 0.  1.
         12    1    6    6    0    0  0.26940199267E+02  0.70258108413E+02 -0.58734494029E+02  0.95455313750E+02  0.00000000000E+00 0. -1.
         -5    1    3    3    0  503  0.19078727635E+02  0.53199488465E+02 -0.49867129849E+03  0.50188578119E+03  0.47000000000E+01 0.  1.
         13    1    4    4    0    0 -0.10847527413E+02 -0.21749144756E+02 -0.28300056638E+03  0.28404227629E+03  0.00000000000E+00 0. -1.
        -14    1    4    4    0    0 -0.36446374428E+02 -0.34836538797E+02 -0.86916786100E+02  0.10048109449E+03  0.00000000000E+00 0.  1.
</event>
<event>
12    1  0.8691829E-002  0.2428793E+03  0.7818608E-02  0.1118128E+00
         21   -1    0    0  501  502  0.00000000000E+00  0.00000000000E+00  0.68197993913E+02  0.68197993913E+02  0.00000000000E+00 0. -1.
         21   -1    0    0  502  503 -0.00000000000E+00 -0.00000000000E+00 -0.11008676450E+04  0.11008676450E+04  0.00000000000E+00 0. -1.
         -6    2    1    2    0  503 -0.15853267750E+03  0.67197064111E+02 -0.78864206118E+03  0.82476953072E+03  0.16923481581E+03 0.  0.
        -24    2    3    3    0    0 -0.14547394242E+03  0.10243017235E+03 -0.55803308077E+03  0.59107208888E+03  0.79439831861E+02 0.  0.
          6    2    1    2  501    0  0.15853267750E+03 -0.67197064111E+02 -0.24402758993E+03  0.34429610822E+03  0.17129591422E+03 0.  0.
         24    2    5    5    0    0  0.11764666603E+03 -0.41936091916E+02 -0.70164328233E+02  0.16385136205E+03  0.79529001362E+02 0.  0.
          5    1    5    5  501    0  0.40886011467E+02 -0.25260972195E+02 -0.17386326170E+03  0.18044474617E+03  0.47000000000E+01 0. -1.
        -13    1    6    6    0    0  0.95838914737E+02  0.22759576437E+01 -0.61227129205E+02  0.11374989632E+03  0.00000000000E+00 0.  1.
         14    1    6    6    0    0  0.21807751292E+02 -0.44212049560E+02 -0.89371990286E+01  0.50101465739E+02  0.00000000000E+00 0. -1.
         -5    1    3    3    0  503 -0.13058735074E+02 -0.35233108234E+02 -0.23060898041E+03  0.23369744184E+03  0.47000000000E+01 0.  1.
         13    1    4    4    0    0 -0.59522735699E+02 -0.73275820782E+00 -0.14434843524E+03  0.15614084589E+03  0.00000000000E+00 0. -1.
        -14    1    4    4    0    0 -0.85951206723E+02  0.10316293055E+03 -0.41368464554E+03  0.43493124299E+03  0.00000000000E+00 0.  1.
</event>
<event>
12    1  0.8691829E-002  0.1904382E+03  0.7818608E-02  0.1158459E+00
         21   -1    0    0  501  502  0.00000000000E+00  0.00000000000E+00  0.59078314058E+03  0.59078314058E+03  0.00000000000E+00 0.  1.
         21   -1    0    0  502  503 -0.00000000000E+00 -0.00000000000E+00 -0.61456084902E+02  0.61456084902E+02  0.00000000000E+00 0. -1.
         -6    2    1    2    0  503 -0.77076928561E+02 -0.22706900846E+02  0.23291973450E+03  0.30086261863E+03  0.17265646905E+03 0.  0.
        -24    2    3    3    0    0 -0.10831684395E+03  0.67049664472E+01  0.12944104749E+03  0.18874250930E+03  0.84209588407E+02 0.  0.
          6    2    1    2  501    0  0.77076928561E+02  0.22706900846E+02  0.29640732118E+03  0.35137660686E+03  0.17073887530E+03 0.  0.
         24    2    5    5    0    0  0.92330354461E+01  0.21703749932E+02  0.26219879145E+03  0.27524439521E+03  0.80342822646E+02 0.  0.
          5    1    5    5  501    0  0.67843893115E+02  0.10031509138E+01  0.34208529729E+02  0.76132211651E+02  0.47000000000E+01 0. -1.
        -11    1    6    6    0    0  0.18053912308E+02 -0.18550748837E+02  0.19281847741E+03  0.19454829545E+03  0.00000000000E+00 0.  1.
         12    1    6    6    0    0 -0.88208768614E+01  0.40254498769E+02  0.69380314043E+02  0.80696099760E+02  0.00000000000E+00 0. -1.
         -5    1    3    3    0  503  0.31239915393E+02 -0.29411867293E+02  0.10347868701E+03  0.11212010933E+03  0.47000000000E+01 0.  1.
         11    1    4    4    0    0  0.11440897273E+02 -0.98372562732E+00  0.32517691070E+02  0.34485679333E+02  0.00000000000E+00 0. -1.
        -12    1    4    4    0    0 -0.11975774123E+03  0.76886920746E+01  0.96923356423E+02  0.15425682996E+03  0.00000000000E+00 0.  1.
</event>
<event>
12    1  0.8691829E-002  0.1941096E+03  0.7818608E-02  0.1154855E+00
         21   -1    0    0  501  502  0.00000000000E+00  0.00000000000E+00  0.10298633770E+03  0.10298633770E+03  0.00000000000E+00 0.  1.
         21   -1    0    0  502  503 -0.00000000000E+00 -0.00000000000E+00 -0.88646836712E+03  0.88646836712E+03  0.00000000000E+00 0.  1.
         -6    2    1    2    0  503 -0.89981506427E+02 -0.71991034280E+00 -0.77111804680E+03  0.79517393114E+03  0.17199229311E+03 0.  0.
        -24    2    3    3    0    0 -0.96002349998E+02 -0.40168366806E+02 -0.37634197395E+03  0.39835826994E+03  0.78905519312E+02 0.  0.
          6    2    1    2  501    0  0.89981506427E+02  0.71991034280E+00 -0.12363982620E+02  0.19428077369E+03  0.17174097120E+03 0.  0.
         24    2    5    5    0    0  0.94340044865E+02 -0.13298284958E+02  0.46777493083E+02  0.13316358457E+03  0.80420880059E+02 0.  0.
          5    1    5    5  501    0 -0.43585384379E+01  0.14018195301E+02 -0.59141475703E+02  0.61117189113E+02  0.47000000000E+01 0. -1.
        -11    1    6    6    0    0  0.40701265204E+02 -0.14931558925E+02 -0.19791766268E+02  0.47657721863E+02  0.00000000000E+00 0.  1.
         12    1    6    6    0    0  0.53638779661E+02  0.16332739671E+01  0.66569259351E+02  0.85505862711E+02  0.00000000000E+00 0. -1.
         -5    1    3    3    0  503  0.60208435704E+01  0.39448456463E+02 -0.39477607285E+03  0.39681566120E+03  0.47000000000E+01 0.  1.
         13    1    4    4    0    0 -0.89307816622E+01  0.15402086155E+02 -0.17573817569E+02  0.25016438255E+02  0.00000000000E+00 0. -1.
        -14    1    4    4    0    0 -0.87071568336E+02 -0.55570452961E+02 -0.35876815638E+03  0.37334183168E+03  0.00000000000E+00 0.  1.
</event>
<event>
12    1  0.8691829E-002  0.2140069E+03  0.7818608E-02  0.1138524E+00
         21   -1    0    0  503  502  0.00000000000E+00  0.00000000000E+00  0.75150063288E+02  0.75150063288E+02  0.00000000000E+00 0.  1.
         21   -1    0    0  501  503 -0.00000000000E+00 -0.00000000000E+00 -0.85624235733E+03  0.85624235733E+03  0.00000000000E+00 0.  1.
          6    2    1    2  501    0  0.60420123575E+02 -0.11125180172E+03 -0.64095126044E+03  0.67558299347E+03  0.17194856230E+03 0.  0.
         24    2    3    3    0    0  0.94668150284E+02 -0.11208201241E+03 -0.59427836852E+03  0.61749628738E+03  0.81304670573E+02 0.  0.
         -6    2    1    2    0  502 -0.60420123575E+02  0.11125180172E+03 -0.14014103360E+03  0.25580942715E+03  0.17254390456E+03 0.  0.
        -24    2    5    5    0    0 -0.92718315381E+02  0.12821824070E+03 -0.11302663773E+03  0.21011135598E+03  0.79593704652E+02 0.  0.
          5    1    3    3  501    0 -0.34248026709E+02  0.83021068435E+00 -0.46672891922E+02  0.58086706083E+02  0.47000000000E+01 0. -1.
        -13    1    4    4    0    0  0.72466257603E+02 -0.10990005366E+03 -0.38194639769E+03  0.40399558289E+03  0.00000000000E+00 0.  1.
         14    1    4    4    0    0  0.22201892681E+02 -0.21819587470E+01 -0.21233197083E+03  0.21350070449E+03  0.00000000000E+00 0. -1.
         -5    1    5    5    0  502  0.32298191806E+02 -0.16966438974E+02 -0.27114395868E+02  0.45698071170E+02  0.47000000000E+01 0.  1.
         11    1    6    6    0    0 -0.47417922982E+02  0.99240385615E+02 -0.11105105457E+03  0.15629923313E+03  0.00000000000E+00 0. -1.
        -12    1    6    6    0    0 -0.45300392399E+02  0.28977855083E+02 -0.19755831648E+01  0.53812122849E+02  0.00000000000E+00 0.  1.
</event>
<event>
12    1  0.8691829E-002  0.1989468E+03  0.7818608E-02  0.1150990E+00
         21   -1    0    0  501  502  0.00000000000E+00  0.00000000000E+00  0.23509059958E+03  0.23509059958E+03  0.00000000000E+00 0. -1.
         21   -1    0    0  502  503 -0.00000000000E+00 -0.00000000000E+00 -0.18314574576E+03  0.18314574576E+03  0.00000000000E+00 0.  1.
         -6    2    1    2    0  503  0.48445271389E+02  0.87589131944E+02 -0.36139817138E+02  0.20220269444E+03  0.17193325129E+03 0.  0.
        -24    2    3    3    0    0  0.71485308125E+02  0.67613716851E+00 -0.36955897155E+02  0.11216121544E+03  0.78126778220E+02 0.  0.
          6    2    1    2  501    0 -0.48445271389E+02 -0.87589131944E+02  0.88084670957E+02  0.21603365090E+03  0.16997890666E+03 0.  0.
         24    2    5    5    0    0 -0.70369311898E+02 -0.78741224006E+02  0.11794261498E+03  0.17766001609E+03  0.80626301379E+02 0.  0.
          5    1    5    5  501    0  0.21924040509E+02 -0.88479079382E+01 -0.29857944026E+02  0.38373634810E+02  0.47000000000E+01 0. -1.
        -11    1    6    6    0    0 -0.61177214088E+02 -0.23412520822E+02  0.98512680640E+02  0.11830277216E+03  0.00000000000E+00 0.  1.
         12    1    6    6    0    0 -0.91920978098E+01 -0.55328703184E+02  0.19429934342E+02  0.59357243928E+02  0.00000000000E+00 0. -1.
         -5    1    3    3    0  503 -0.23040036735E+02  0.86912994775E+02  0.81608001717E+00  0.90041478998E+02  0.47000000000E+01 0.  1.
         13    1    4    4    0    0  0.64809374180E+02  0.27056458768E+02 -0.53192643595E+01  0.70431537794E+02  0.00000000000E+00 0. -1.
        -14    1    4    4    0    0  0.66759339450E+01 -0.26380321600E+02 -0.31636632795E+02  0.41729677645E+02  0.00000000000E+00 0.  1.
</event>
<event>
12    1  0.8691829E-002  0.2030045E+03  0.7818608E-02  0.1149494E+00
         21   -1    0    0  501  502  0.00000000000E+00  0.00000000000E+00  0.25577280377E+03  0.25577280377E+03  0.00000000000E+00 0. -1.
         21   -1    0    0  502  503 -0.00000000000E+00 -0.00000000000E+00 -0.16105990448E+03  0.16105990448E+03  0.00000000000E+00 0. -1.
         -6    2    1    2    0  503 -0.85658788425E+02  0.10159534904E+02  0.13522443448E+01  0.20300904156E+03  0.18376669504E+03 0.  0.
        -24    2    3    3    0    0 -0.12881665393E+03  0.27119355263E+02 -0.11926691387E+02  0.15454609699E+03  0.80081585699E+02 0.  0.
          6    2    1    2  501    0  0.85658788425E+02 -0.10159534904E+02  0.93360654946E+02  0.21382366670E+03  0.17194099093E+03 0.  0.
         24    2    5    5    0    0  0.23862986389E+02 -0.27268798571E+02  0.11604223967E+03  0.14564748069E+03  0.80214448511E+02 0.  0.
          5    1    5    5  501    0  0.61795802036E+02  0.17109263667E+02 -0.22681584721E+02  0.68176186004E+02  0.47000000000E+01 0. -1.
        -13    1    6    6    0    0 -0.28759962115E+02 -0.10848025984E+02  0.57730950226E+02  0.65403957851E+02  0.00000000000E+00 0.  1.
         14    1    6    6    0    0  0.52622948504E+02 -0.16420772587E+02  0.58311289441E+02  0.80243522841E+02  0.00000000000E+00 0. -1.
         -5    1    3    3    0  503  0.43157865506E+02 -0.16959820359E+02  0.13278935731E+02  0.48462944564E+02  0.47000000000E+01 0.  1.
         13    1    4    4    0    0 -0.58221949332E+02  0.49571246391E+02  0.10412579913E+02  0.77172052410E+02  0.00000000000E+00 0. -1.
        -14    1    4    4    0    0 -0.70594704599E+02 -0.22451891128E+02 -0.22339271299E+02  0.77374044582E+02  0.00000000000E+00 0.  1.
</event>
<event>
12    1  0.8691829E-002  0.2005339E+03  0.7818608E-02  0.1149377E+00
         21   -1    0    0  501  502  0.00000000000E+00  0.00000000000E+00  0.85208583061E+02  0.85208583061E+02  0.00000000000E+00 0.  1.
         21   -1    0    0  502  503 -0.00000000000E+00 -0.00000000000E+00 -0.48209079717E+03  0.48209079717E+03  0.00000000000E+00 0.  1.
         -6    2    1    2    0  503 -0.54639175578E+02  0.86750280452E+02 -0.15515916131E+03  0.25322317709E+03  0.17186204180E+03 0.  0.
        -24    2    3    3    0    0  0.39167558437E+02  0.38701634199E+02 -0.69849174450E+02  0.11754613552E+03  0.76852278299E+02 0.  0.
          6    2    1    2  501    0  0.54639175578E+02 -0.86750280452E+02 -0.24172305280E+03  0.31407620313E+03  0.17234493452E+03 0.  0.
         24    2    5    5    0    0  0.73692355106E+02 -0.11224646301E+03 -0.22113495526E+03  0.27587883758E+03  0.95805182155E+02 0.  0.
          5    1    5    5  501    0 -0.19053179528E+02  0.25496182557E+02 -0.20588097536E+02  0.38197365554E+02  0.47000000000E+01 0. -1.
        -11    1    6    6    0    0  0.38254853719E+02  0.37207210789E+01 -0.86683480070E+02  0.94822483175E+02  0.00000000000E+00 0.  1.
         12    1    6    6    0    0  0.35437501387E+02 -0.11596718409E+03 -0.13445147519E+03  0.18105635441E+03  0.00000000000E+00 0. -1.
         -5    1    3    3    0  503 -0.93806734015E+02  0.48048646253E+02 -0.85309986860E+02  0.13567704158E+03  0.47000000000E+01 0.  1.
         11    1    4    4    0    0  0.19582578535E+02  0.49668015274E+02 -0.10930310847E+02  0.54496429411E+02  0.00000000000E+00 0. -1.
        -12    1    4    4    0    0  0.19584979902E+02 -0.10966381074E+02 -0.58918863603E+02  0.63049706105E+02  0.00000000000E+00 0.  1.
</event>
<event>
12    1  0.8691829E-002  0.2613221E+03  0.7818608E-02  0.1106451E+00
         21   -1    0    0  503  502  0.00000000000E+00  0.00000000000E+00  0.69415568376E+03  0.69415568376E+03  0.00000000000E+00 0. -1.
         21   -1    0    0  501  503 -0.00000000000E+00 -0.00000000000E+00 -0.12539488603E+03  0.12539488603E+03  0.00000000000E+00 0. -1.
          6    2    1    2  501    0 -0.31998764533E+02  0.19293684491E+03  0.93003568981E+02  0.27674840475E+03  0.17231212561E+03 0.  0.
         24    2    3    3    0    0 -0.47673836754E+02  0.32979115246E+02  0.48524516681E+02  0.10991717487E+03  0.79791853340E+02 0.  0.
         -6    2    1    2    0  502  0.31998764533E+02 -0.19293684491E+03  0.47575722875E+03  0.54280216504E+03  0.17332253924E+03 0.  0.
        -24    2    5    5    0    0 -0.19047674272E+02 -0.10045852239E+03  0.13738438902E+03  0.18829370574E+03  0.78264427793E+02 0.  0.
          5    1    3    3  501    0  0.15675072222E+02  0.15995772966E+03  0.44479052301E+02  0.16683122988E+03  0.47000000000E+01 0. -1.
        -13    1    4    4    0    0 -0.26909244940E+02  0.25895137828E+02 -0.16841757494E+02  0.40967187136E+02  0.00000000000E+00 0.  1.
         14    1    4    4    0    0 -0.20764591814E+02  0.70839774179E+01  0.65366274175E+02  0.68949987735E+02  0.00000000000E+00 0. -1.
         -5    1    5    5    0  502  0.51046438805E+02 -0.92478322520E+02  0.33837283973E+03  0.35450845930E+03  0.47000000000E+01 0.  1.
         13    1    6    6    0    0 -0.10935364191E+01 -0.93099747898E+02  0.14059227423E+03  0.16862664811E+03  0.00000000000E+00 0. -1.
        -14    1    6    6    0    0 -0.17954137853E+02 -0.73587744919E+01 -0.32078852099E+01  0.19667057624E+02  0.00000000000E+00 0.  1.
</event>
<event>
12    1  0.8691829E-002  0.1783720E+03  0.7818608E-02  0.1170318E+00
         21   -1    0    0  501  502  0.00000000000E+00  0.00000000000E+00  0.53863892069E+03  0.53863892069E+03  0.00000000000E+00 0. -1.
         21   -1    0    0  502  503 -0.00000000000E+00 -0.00000000000E+00 -0.11132466322E+03  0.11132466322E+03  0.00000000000E+00 0. -1.
         -6    2    1    2    0  503 -0.28174086850E+02  0.20016500302E+02 -0.10430489908E+02  0.17867672392E+03  0.17499182008E+03 0.  0.
        -24    2    3    3    0    0  0.19760676271E+02 -0.45194274884E+02  0.12844788792E+02  0.94332101594E+02  0.79376003824E+02 0.  0.
          6    2    1    2  501    0  0.28174086850E+02 -0.20016500302E+02  0.43774474738E+03  0.47128686000E+03  0.17116191486E+03 0.  0.
         24    2    5    5    0    0 -0.83855797386E+01 -0.26975711733E+02  0.42339217393E+03  0.43112311753E+03  0.76211564418E+02 0.  0.
          5    1    5    5  501    0  0.36559666589E+02  0.69592114307E+01  0.14352573449E+02  0.40163742473E+02  0.47000000000E+01 0. -1.
        -11    1    6    6    0    0 -0.28622663612E+02 -0.72592180127E+01  0.62477327329E+02  0.69104048713E+02  0.00000000000E+00 0.  1.
         12    1    6    6    0    0  0.20237083874E+02 -0.19716493720E+02  0.36091484660E+03  0.36201906882E+03  0.00000000000E+00 0. -1.
         -5    1    3    3    0  503 -0.47934763121E+02  0.65210775186E+02 -0.23275278699E+02  0.84344622321E+02  0.47000000000E+01 0.  1.
         13    1    4    4    0    0 -0.21458743602E+02 -0.34094516205E+02 -0.15419208167E+02  0.43135434305E+02  0.00000000000E+00 0. -1.
        -14    1    4    4    0    0  0.41219419873E+02 -0.11099758680E+02  0.28263996959E+02  0.51196667289E+02  0.00000000000E+00 0.  1.
</event>
<event>
12    1  0.8691829E-002  0.1898425E+03  0.7818608E-02  0.1158949E+00
         21   -1    0    0  501  502  0.00000000000E+00  0.00000000000E+00  0.14530009277E+03  0.14530009277E+03  0.00000000000E+00 0.  1.
         21   -1    0    0  502  503 -0.00000000000E+00 -0.00000000000E+00 -0.49182887566E+03  0.49182887566E+03  0.00000000000E+00 0. -1.
         -6    2    1    2    0  503 -0.32952330175E+02 -0.71031557059E+02 -0.39880758671E+03  0.44168729224E+03  0.17294170910E+03 0.  0.
        -24    2    3    3    0    0 -0.11513858337E+02 -0.11478981723E+03 -0.26324129228E+03  0.29755296741E+03  0.77022849723E+02 0.  0.
          6    2    1    2  501    0  0.32952330175E+02  0.71031557059E+02  0.52278803817E+02  0.19544167619E+03  0.17126890349E+03 0.  0.
         24    2    5    5    0    0  0.31742338943E+02  0.69119708485E+02  0.10021759869E+03  0.14721992490E+03  0.76452789459E+02 0.  0.
          5    1    5    5  501    0  0.12099912317E+01  0.19118485739E+01 -0.47938794878E+02  0.48221751297E+02  0.47000000000E+01 0. -1.
        -11    1    6    6    0    0 -0.26208716840E+01  0.55614894584E+02  0.20435200712E+02  0.59308371214E+02  0.00000000000E+00 0.  1.
         12    1    6    6    0    0  0.34363210627E+02  0.13504813901E+02  0.79782397983E+02  0.87911553683E+02  0.00000000000E+00 0. -1.
         -5    1    3    3    0  503 -0.21438471837E+02  0.43758260174E+02 -0.13556629443E+03  0.14413432483E+03  0.47000000000E+01 0.  1.
         13    1    4    4    0    0 -0.17291850633E+02 -0.32056253716E+02 -0.16506275937E+03  0.16903350565E+03  0.00000000000E+00 0. -1.
        -14    1    4    4    0    0  0.57779922957E+01 -0.82733563517E+02 -0.98178532902E+02  0.12851946176E+03  0.00000000000E+00 0.  1.
</event>
<event>
12    1  0.8691829E-002  0.2118334E+03  0.7818608E-02  0.1140463E+00
         21   -1    0    0  501  502  0.00000000000E+00  0.00000000000E+00  0.16417072846E+03  0.16417072846E+03  0.00000000000E+00 0. -1.
         21   -1    0    0  502  503 -0.00000000000E+00 -0.00000000000E+00 -0.35933703086E+03  0.35933703086E+03  0.00000000000E+00 0. -1.
         -6    2    1    2    0  503  0.37517312740E+01  0.12319073602E+03 -0.22759383351E+03  0.31092176859E+03  0.17228859568E+03 0.  0.
        -24    2    3    3    0    0  0.30401966526E+02  0.69968707787E+01 -0.55579522070E+02  0.10158409234E+03  0.79101256457E+02 0.  0.
          6    2    1    2  501    0 -0.37517312740E+01 -0.12319073602E+03  0.32427531106E+02  0.21258599073E+03  0.17015059728E+03 0.  0.
         24    2    5    5    0    0  0.32666411306E+02 -0.12502822351E+03  0.61984506882E+02  0.16541224500E+03  0.82583173835E+02 0.  0.
          5    1    5    5  501    0 -0.36418142580E+02  0.18374874916E+01 -0.29556975776E+02  0.47173745731E+02  0.47000000000E+01 0. -1.
        -13    1    6    6    0    0 -0.10230828682E+00  0.60689779769E+01  0.24412276185E+02  0.25155559807E+02  0.00000000000E+00 0.  1.
         14    1    6    6    0    0  0.32768719593E+02 -0.13109720149E+03  0.37572230697E+02  0.14025668520E+03  0.00000000000E+00 0. -1.
         -5    1    3    3    0  503 -0.26650235252E+02  0.11619386524E+03 -0.17201431144E+03  0.20933767625E+03  0.47000000000E+01 0.  1.
         11    1    4    4    0    0  0.44230672681E+02  0.26079356066E+02 -0.13077705105E+02  0.52985956530E+02  0.00000000000E+00 0. -1.
        -12    1    4    4    0    0 -0.13828706154E+02 -0.19082485287E+02 -0.42501816965E+02  0.48598135807E+02  0.00000000000E+00 0.  1.
</event>
<event>
12    1  0.8691829E-002  0.1749632E+03  0.7818608E-02  0.1172832E+00
         21   -1    0    0  503  502  0.00000000000E+00  0.00000000000E+00  0.73942990638E+03  0.73942990638E+03  0.00000000000E+00 0. -1.
         21   -1    0    0  501  503 -0.00000000000E+00 -0.00000000000E+00 -0.67375391691E+02  0.67375391691E+02  0.00000000000E+00 0. -1.
          6    2    1    2  501    0 -0.13789992732E+02  0.26492068998E+02  0.85409338416E+02  0.19469689166E+03  0.17239527521E+03 0.  0.
         24    2    3    3    0    0 -0.16917985339E+02 -0.54430858673E+02  0.24120646943E+02  0.93027337404E+02  0.69450293675E+02 0.  0.
         -6    2    1    2    0  502  0.13789992732E+02 -0.26492068998E+02  0.58664517627E+03  0.61210840641E+03  0.17213989873E+03 0.  0.
        -24    2    5    5    0    0  0.34029049288E+02 -0.31815605000E+02  0.57620968126E+03  0.58825575453E+03  0.10888997673E+03 0.  0.
          5    1    3    3  501    0  0.31279926075E+01  0.80922927672E+02  0.61288691473E+02  0.10166955426E+03  0.47000000000E+01 0. -1.
        -13    1    4    4    0    0  0.17790442523E+02 -0.15058652111E+02  0.32378325884E+02  0.39895097890E+02  0.00000000000E+00 0.  1.
         14    1    4    4    0    0 -0.34708427862E+02 -0.39372206562E+02 -0.82576789416E+01  0.53132239513E+02  0.00000000000E+00 0. -1.
         -5    1    5    5    0  502 -0.20239056556E+02  0.53235360015E+01  0.10435495010E+02  0.23852651885E+02  0.47000000000E+01 0.  1.
         11    1    6    6    0    0 -0.27997924010E+02 -0.16979667035E+02  0.39108322431E+03  0.39245162910E+03  0.00000000000E+00 0. -1.
        -12    1    6    6    0    0  0.62026973297E+02 -0.14835937965E+02  0.18512645695E+03  0.19580412543E+03  0.00000000000E+00 0.  1.
</event>
<event>
12    1  0.8691829E-002  0.2707718E+03  0.7818608E-02  0.1101123E+00
         21   -1    0    0  501  502  0.00000000000E+00  0.00000000000E+00  0.13872988123E+03  0.13872988123E+03  0.00000000000E+00 0.  1.
         21   -1    0    0  502  503 -0.00000000000E+00 -0.00000000000E+00 -0.54760712485E+03  0.54760712485E+03  0.00000000000E+00 0.  1.
         -6    2    1    2    0  503 -0.11342610319E+03  0.17256772278E+03 -0.27547944854E+03  0.38627230332E+03  0.17513499341E+03 0.  0.
        -24    2    3    3    0    0 -0.96303045990E+02  0.34279070349E+02 -0.11181227035E+03  0.17127001102E+03  0.79888056324E+02 0.  0.
          6    2    1    2  501    0  0.11342610319E+03 -0.17256772278E+03 -0.13339779508E+03  0.30006470276E+03  0.17204288501E+03 0.  0.
         24    2    5    5    0    0  0.80557601198E+02 -0.17060819850E+03 -0.52513912886E+02  0.21260916802E+03  0.82754231145E+02 0.  0.
          5    1    5    5  501    0  0.32868501994E+02 -0.19595242806E+01 -0.80883882197E+02  0.87455534747E+02  0.47000000000E+01 0. -1.
        -11    1    6    6    0    0  0.59029201565E+01 -0.32054036802E+02 -0.44313430513E+02  0.55008961684E+02  0.00000000000E+00 0.  1.
         12    1    6    6    0    0  0.74654681042E+02 -0.13855416170E+03 -0.82004823723E+01  0.15760020633E+03  0.00000000000E+00 0. -1.
         -5    1    3    3    0  503 -0.17123057202E+02  0.13828865243E+03 -0.16366717819E+03  0.21500229230E+03  0.47000000000E+01 0.  1.
         13    1    4    4    0    0 -0.17048651573E+02  0.25394941232E+02  0.37971497705E+01  0.30821711617E+02  0.00000000000E+00 0. -1.
        -14    1    4    4    0    0 -0.79254394417E+02  0.88841291171E+01 -0.11560942012E+03  0.14044829940E+03  0.00000000000E+00 0.  1.
</event>
<event>
12    1  0.8691829E-002  0.2851172E+03  0.7818608E-02  0.1092995E+00
         21   -1    0    0  501  502  0.00000000000E+00  0.00000000000E+00  0.82390630915E+03  0.82390630915E+03  0.00000000000E+00 0.  1.
         21   -1    0    0  502  503 -0.00000000000E+00 -0.00000000000E+00 -0.23575385759E+03  0.23575385759E+03  0.00000000000E+00 0.  1.
         -6    2    1    2    0  503 -0.10664342105E+03 -0.20007117974E+03 -0.11031832051E+03  0.30523771314E+03  0.17204253390E+03 0.  0.
        -24    2    3    3    0    0 -0.79175959353E+02 -0.57120255499E+02 -0.11121065790E+01  0.12320058684E+03  0.75137152513E+02 0.  0.
          6    2    1    2  501    0  0.10664342105E+03  0.20007117974E+03  0.69847077207E+03  0.75442245359E+03  0.17288875854E+03 0.  0.
         24    2    5    5    0    0  0.13539581575E+03  0.13540993645E+03  0.44019390093E+03  0.48658517323E+03  0.79539817582E+02 0.  0.
          5    1    5    5  501    0 -0.28752394698E+02  0.64661243294E+02  0.25827687114E+03  0.26783728036E+03  0.47000000000E+01 0. -1.
        -13    1    6    6    0    0  0.85584808154E+02  0.40977466194E+02  0.26438694149E+03  0.28089921138E+03  0.00000000000E+00 0.  1.
         14    1    6    6    0    0  0.49811007591E+02  0.94432470251E+02  0.17580695944E+03  0.20568596185E+03  0.00000000000E+00 0. -1.
         -5    1    3    3    0  503 -0.27467461693E+02 -0.14295092424E+03 -0.10920621393E+03  0.18203712631E+03  0.47000000000E+01 0.  1.
         11    1    4    4    0    0  0.11453898603E+02  0.36552928402E+00  0.10122785578E+02  0.15290395440E+02  0.00000000000E+00 0. -1.
        -12    1    4    4    0    0 -0.90629857956E+02 -0.57485784783E+02 -0.11234892157E+02  0.10791019140E+03  0.00000000000E+00 0.  1.
</event>
<event>
12    1  0.8691829E-002  0.2370789E+03  0.7818608E-02  0.1122257E+00
         21   -1    0    0  501  502  0.00000000000E+00  0.00000000000E+00  0.92325852268E+02  0.92325852268E+02  0.00000000000E+00 0. -1.
         21   -1    0    0  502  503 -0.00000000000E+00 -0.00000000000E+00 -0.60144632634E+03  0.60144632634E+03  0.00000000000E+00 0.  1.
         -6    2    1    2    0  503 -0.14556925211E+03  0.71479447594E+02 -0.26278431141E+03  0.35392370728E+03  0.17293547254E+03 0.  0.
        -24    2    3    3    0    0 -0.44161682389E+02  0.71410137938E+02 -0.68197522013E+02  0.13444794869E+03  0.79847898572E+02 0.  0.
          6    2    1    2  501    0  0.14556925211E+03 -0.71479447594E+02 -0.24633616266E+03  0.33984847133E+03  0.16886610034E+03 0.  0.
         24    2    5    5    0    0  0.10599378529E+03 -0.29024671155E+02 -0.64495653959E+02  0.14891213058E+03  0.77058543957E+02 0.  0.
          5    1    5    5  501    0  0.39575466813E+02 -0.42454776439E+02 -0.18184050870E+03  0.19093634076E+03  0.47000000000E+01 0. -1.
        -11    1    6    6    0    0  0.55743030851E+02 -0.49254879808E+02 -0.58057025194E+02  0.94360727253E+02  0.00000000000E+00 0.  1.
         12    1    6    6    0    0  0.50250754442E+02  0.20230208653E+02 -0.64386287647E+01  0.54551403323E+02  0.00000000000E+00 0. -1.
         -5    1    3    3    0  503 -0.10140756972E+03  0.69309656113E-01 -0.19458678940E+03  0.21947575859E+03  0.47000000000E+01 0.  1.
         11    1    4    4    0    0  0.19473063670E+02  0.25317069106E+00 -0.18343120088E+02  0.26753212118E+02  0.00000000000E+00 0. -1.
        -12    1    4    4    0    0 -0.63634746059E+02  0.71156967247E+02 -0.49854401925E+02  0.10769473657E+03  0.00000000000E+00 0.  1.
</event>
<event>
12    1  0.8691829E-002  0.2349558E+03  0.7818608E-02  0.1124331E+00
         21   -1    0    0  501  502  0.00000000000E+00  0.00000000000E+00  0.18513801110E+04  0.18513801110E+04  0.00000000000E+00 0. -1.
         21   -1    0    0  502  503 -0.00000000000E+00 -0.00000000000E+00 -0.59358321311E+03  0.59358321311E+03  0.00000000000E+00 0. -1.
         -6    2    1    2    0  503 -0.12895094327E+02  0.14901930899E+03 -0.56377583513E+03  0.60830019596E+03  0.17266411967E+03 0.  0.
        -24    2    3    3    0    0  0.13388662848E+02  0.90278474472E+02 -0.18189903434E+03  0.22101050786E+03  0.86191221383E+02 0.  0.
          6    2    1    2  501    0  0.12895094327E+02 -0.14901930899E+03  0.18215727331E+04  0.18366631282E+04  0.18119378227E+03 0.  0.
         24    2    5    5    0    0  0.64156133893E+02 -0.44446484558E+02  0.10893253222E+04  0.10951973296E+04  0.82073343128E+02 0.  0.
          5    1    5    5  501    0 -0.51261039567E+02 -0.10457282443E+03  0.73224741081E+03  0.74146579855E+03  0.47000000000E+01 0. -1.
        -13    1    6    6    0    0 -0.85134333818E+01 -0.27607390320E+02  0.14022882465E+03  0.14317391456E+03  0.00000000000E+00 0.  1.
         14    1    6    6    0    0  0.72669567275E+02 -0.16839094238E+02  0.94909649759E+03  0.95202341507E+03  0.00000000000E+00 0. -1.
         -5    1    3    3    0  503 -0.26283757174E+02  0.58740834518E+02 -0.38187680079E+03  0.38728968811E+03  0.47000000000E+01 0.  1.
         11    1    4    4    0    0  0.26963741016E+02 -0.65227840378E+01 -0.37860976847E+02  0.46936591365E+02  0.00000000000E+00 0. -1.
        -12    1    4    4    0    0 -0.13575078168E+02  0.96801258510E+02 -0.14403805749E+03  0.17407391649E+03  0.00000000000E+00 0.  1.
</event>
<event>
12    1  0.8691829E-002  0.2018565E+03  0.7818608E-02  0.1149493E+00
         21   -1    0    0  501  502  0.00000000000E+00  0.00000000000E+00  0.72812647147E+03  0.72812647147E+03  0.00000000000E+00 0.  1.
         21   -1    0    0  502  503 -0.00000000000E+00 -0.00000000000E+00 -0.32267486712E+03  0.32267486712E+03  0.00000000000E+00 0.  1.
         -6    2    1    2    0  503 -0.74330052458E+02  0.56406407629E+02 -0.27699037998E+03  0.33913209789E+03  0.17198915575E+03 0.  0.
        -24    2    3    3    0    0  0.20874775332E+02  0.56824368523E+02 -0.13011446884E+03  0.16403567531E+03  0.79455413096E+02 0.  0.
          6    2    1    2  501    0  0.74330052458E+02 -0.56406407629E+02  0.68244198434E+03  0.71166924070E+03  0.17899554923E+03 0.  0.
         24    2    5    5    0    0  0.32801120043E+02 -0.10191371639E+03  0.54901419492E+03  0.56462968014E+03  0.76992015234E+02 0.  0.
          5    1    5    5  501    0  0.41528932415E+02  0.45507308765E+02  0.13342778942E+03  0.14703956056E+03  0.47000000000E+01 0. -1.
        -11    1    6    6    0    0  0.52822778122E+02 -0.57726649931E+02  0.40985013215E+03  0.41725261272E+03  0.00000000000E+00 0.  1.
         12    1    6    6    0    0 -0.20021658079E+02 -0.44187066463E+02  0.13916406278E+03  0.14737706743E+03  0.00000000000E+00 0. -1.
         -5    1    3    3    0  503 -0.95204827790E+02 -0.41796089387E+00 -0.14687591114E+03  0.17509642258E+03  0.47000000000E+01 0.  1.
         11    1    4    4    0    0 -0.23909701005E+02  0.88327162228E+01 -0.10446700435E+02  0.27546764383E+02  0.00000000000E+00 0. -1.
        -12    1    4    4    0    0  0.44784476337E+02  0.47991652300E+02 -0.11966776841E+03  0.13648891093E+03  0.00000000000E+00 0.  1.
</event>
<event>
12    1  0.8691829E-002  0.1887989E+03  0.7818608E-02  0.1159647E+00
         21   -1    0    0  503  502  0.00000000000E+00  0.00000000000E+00  0.24196546303E+03  0.24196546303E+03  0.00000000000E+00 0.  1.
         21   -1    0    0  501  503 -0.00000000000E+00 -0.00000000000E+00 -0.17467390573E+03  0.17467390573E+03  0.00000000000E+00 0.  1.
          6    2    1    2  501    0  0.74985564486E+02  0.25080308942E+01 -0.49336506273E+02  0.19472242619E+03  0.17278196465E+03 0.  0.
         24    2    3    3    0    0  0.29921843629E+01 -0.42795459893E+02  0.95703645595E+01  0.91148479220E+02  0.79850164881E+02 0.  0.
         -6    2    1    2    0  502 -0.74985564486E+02 -0.25080308942E+01  0.11662806357E+03  0.22191694257E+03  0.17325097138E+03 0.  0.
        -24    2    5    5    0    0 -0.30027277517E+02  0.42396845486E+02  0.62222383572E+01  0.94444468161E+02  0.78625132202E+02 0.  0.
          5    1    3    3  501    0  0.71993380123E+02  0.45303490787E+02 -0.58906870833E+02  0.10357394697E+03  0.47000000000E+01 0. -1.
        -13    1    4    4    0    0  0.58919717920E+01 -0.39979461243E+02 -0.30653589298E+02  0.50721939924E+02  0.00000000000E+00 0.  1.
         14    1    4    4    0    0 -0.28997874291E+01 -0.28159986507E+01  0.40223953857E+02  0.40426539296E+02  0.00000000000E+00 0. -1.
         -5    1    5    5    0  502 -0.44958286969E+02 -0.44904876380E+02  0.11040582522E+03  0.12747247441E+03  0.47000000000E+01 0.  1.
         11    1    6    6    0    0 -0.21450080851E+01 -0.22835013833E+02  0.50947031851E+01  0.23494572075E+02  0.00000000000E+00 0. -1.
        -12    1    6    6    0    0 -0.27882269432E+02  0.65231859320E+02  0.11275351721E+01  0.70949896086E+02  0.00000000000E+00 0.  1.
</event>
<event>
12    1  0.8691829E-002  0.1893811E+03  0.7818608E-02  0.1159734E+00
         21   -1    0    0  501  502  0.00000000000E+00  0.00000000000E+00  0.22087936986E+04  0.22087936986E+04  0.00000000000E+00 0.  1.
         21   -1    0    0  502  503 -0.00000000000E+00 -0.00000000000E+00 -0.22497022147E+02  0.22497022147E+02  0.00000000000E+00 0.  1.
         -6    2    1    2    0  503 -0.15044840813E+02 -0.71010269579E+02  0.16875656801E+04  0.16978136337E+04  0.17153543233E+03 0.  0.
        -24    2    3    3    0    0  0.35407850779E+02 -0.36861512920E+02  0.45905226310E+03  0.46778155388E+03  0.74014288214E+02 0.  0.
          6    2    1    2  501    0  0.15044840813E+02  0.71010269579E+02  0.49873099633E+03  0.53347708702E+03  0.17491823817E+03 0.  0.
         24    2    5    5    0    0 -0.52672284374E+02  0.14971959374E+02  0.21997075144E+03  0.24114976125E+03  0.82265100465E+02 0.  0.
          5    1    5    5  501    0  0.67717125187E+02  0.56038310205E+02  0.27876024490E+03  0.29232732577E+03  0.47000000000E+01 0. -1.
        -11    1    6    6    0    0 -0.23882009253E+02 -0.34266894850E+02  0.95222782052E+02  0.10398052063E+03  0.00000000000E+00 0.  1.
         12    1    6    6    0    0 -0.28790275120E+02  0.49238854224E+02  0.12474796939E+03  0.13716924062E+03  0.00000000000E+00 0. -1.
         -5    1    3    3    0  503 -0.50452691592E+02 -0.34148756659E+02  0.12285134170E+04  0.12300320798E+04  0.47000000000E+01 0.  1.
         13    1    4    4    0    0  0.48062019054E+00 -0.36811935949E+02  0.37441712765E+03  0.37622272008E+03  0.00000000000E+00 0. -1.
        -14    1    4    4    0    0  0.34927230589E+02 -0.49576971429E-01  0.84635135450E+02  0.91558833802E+02  0.00000000000E+00 0.  1.
</event>
<event>
12    1  0.8691829E-002  0.2348338E+03  0.7818608E-02  0.1123474E+00
         21   -1    0    0  503  502  0.00000000000E+00  0.00000000000E+00  0.12014450522E+04  0.12014450522E+04  0.00000000000E+00 0. -1.
         21   -1    0    0  501  503 -0.00000000000E+00 -0.00000000000E+00 -0.36025902097E+03  0.36025902097E+03  0.00000000000E+00 0. -1.
          6    2    1    2  501    0  0.35543772333E+02 -0.14930639000E+03 -0.30894571355E+03  0.38806487411E+03  0.17773895115E+03 0.  0.
         24    2    3    3    0    0 -0.21562795484E+02 -0.32887214428E+02 -0.19284333236E+03  0.21394871333E+03  0.83898617861E+02 0.  0.
         -6    2    1    2    0  502 -0.35543772333E+02  0.14930639000E+03  0.11501317448E+04  0.11736391991E+04  0.17626735771E+03 0.  0.
        -24    2    5    5    0    0 -0.20725421266E+01  0.59955830287E+02  0.90524446392E+03  0.91077855900E+03  0.80318410431E+02 0.  0.
          5    1    3    3  501    0  0.57106567817E+02 -0.11641917557E+03 -0.11610238119E+03  0.17411616078E+03  0.47000000000E+01 0. -1.
        -11    1    4    4    0    0  0.29320942591E+02 -0.17477130625E+02 -0.11284556887E+03  0.11789525089E+03  0.00000000000E+00 0.  1.
         12    1    4    4    0    0 -0.50883738075E+02 -0.15410083803E+02 -0.79997763487E+02  0.96053462438E+02  0.00000000000E+00 0. -1.
         -5    1    5    5    0  502 -0.33471230206E+02  0.89350559711E+02  0.24488728087E+03  0.26286064008E+03  0.47000000000E+01 0.  1.
         11    1    6    6    0    0 -0.37435512858E+02  0.10029672438E+02  0.38671919779E+03  0.38865633906E+03  0.00000000000E+00 0. -1.
        -12    1    6    6    0    0  0.35362970732E+02  0.49926157849E+02  0.51852526613E+03  0.52212221994E+03  0.00000000000E+00 0.  1.
</event>
<event>
12    1  0.8691829E-002  0.1957560E+03  0.7818608E-02  0.1154165E+00
         21   -1    0    0  503  502  0.00000000000E+00  0.00000000000E+00  0.20897247822E+03  0.20897247822E+03  0.00000000000E+00 0.  1.
         21   -1    0    0  501  503 -0.00000000000E+00 -0.00000000000E+00 -0.25852725769E+03  0.25852725769E+03  0.00000000000E+00 0.  1.
          6    2    1    2  501    0 -0.23603657177E+02 -0.82486936298E+02 -0.15377126593E+03  0.24892976639E+03  0.17595226363E+03 0.  0.
         24    2    3    3    0    0  0.55255990408E+02 -0.34334896765E+02 -0.84830591982E+02  0.13355052453E+03  0.80046259463E+02 0.  0.
         -6    2    1    2    0  502  0.23603657177E+02  0.82486936298E+02  0.10421648646E+03  0.21856996952E+03  0.17190267082E+03 0.  0.
        -24    2    5    5    0    0 -0.31573130775E+02  0.93078079966E+02  0.40215101312E+02  0.13327684229E+03  0.80529937043E+02 0.  0.
          5    1    3    3  501    0 -0.78859647586E+02 -0.48152039533E+02 -0.68940673945E+02  0.11537924186E+03  0.47000000000E+01 0. -1.
        -11    1    4    4    0    0 -0.42642761487E+01  0.14910589256E+02  0.38115260816E+01  0.15969892113E+02  0.00000000000E+00 0.  1.
         12    1    4    4    0    0  0.59520266557E+02 -0.49245486021E+02 -0.88642118064E+02  0.11758063242E+03  0.00000000000E+00 0. -1.
         -5    1    5    5    0  502  0.55176787952E+02 -0.10591143669E+02  0.64001385143E+02  0.85293127233E+02  0.47000000000E+01 0.  1.
         11    1    6    6    0    0 -0.13774571872E+01  0.88174679341E+02  0.75255000341E+01  0.88505958081E+02  0.00000000000E+00 0. -1.
        -12    1    6    6    0    0 -0.30195673588E+02  0.49034006256E+01  0.32689601278E+02  0.44770884208E+02  0.00000000000E+00 0.  1.
</event>
<event>
12    1  0.8691829E-002  0.2000489E+03  0.7818608E-02  0.1152096E+00
         21   -1    0    0  501  502  0.00000000000E+00  0.00000000000E+00  0.82612118993E+02  0.82612118993E+02  0.00000000000E+00 0.  1.
         21   -1    0    0  502  503 -0.00000000000E+00 -0.00000000000E+00 -0.50231803930E+03  0.50231803930E+03  0.00000000000E+00 0.  1.
         -6    2    1    2    0  503 -0.27527775292E+02 -0.72698309647E+02 -0.11766005471E+03  0.22264397774E+03  0.17228937783E+03 0.  0.
        -24    2    3    3    0    0  0.28668479003E+01 -0.60775848735E+02 -0.14745652496E+03  0.17819290539E+03  0.79418903120E+02 0.  0.
          6    2    1    2  501    0  0.27527775292E+02  0.72698309647E+02 -0.30204586560E+03  0.36228618055E+03  0.18432783038E+03 0.  0.
         24    2    5    5    0    0  0.46252190530E+01  0.13410190896E+02 -0.28496996301E+03  0.29630675530E+03  0.79928640343E+02 0.  0.
          5    1    5    5  501    0  0.22902556239E+02  0.59288118751E+02 -0.17075902594E+02  0.65979425253E+02  0.47000000000E+01 0. -1.
        -13    1    6    6    0    0  0.26656128781E+02  0.39024714870E+02 -0.17443769091E+03  0.18072627253E+03  0.00000000000E+00 0.  1.
         14    1    6    6    0    0 -0.22030909728E+02 -0.25614523974E+02 -0.11053227210E+03  0.11558048277E+03  0.00000000000E+00 0. -1.
         -5    1    3    3    0  503 -0.30394623192E+02 -0.11922460913E+02  0.29796470255E+02  0.44451072348E+02  0.47000000000E+01 0.  1.
         11    1    4    4    0    0  0.13390937370E+02 -0.72281547907E+02 -0.78707559918E+02  0.10769781502E+03  0.00000000000E+00 0. -1.
        -12    1    4    4    0    0 -0.10524089470E+02  0.11505699172E+02 -0.68748965043E+02  0.70495090376E+02  0.00000000000E+00 0.  1.
</event>
<event>
12    1  0.8691829E-002  0.2096817E+03  0.7818608E-02  0.1141834E+00
         21   -1    0    0  501  502  0.00000000000E+00  0.00000000000E+00  0.82394161468E+03  0.82394161468E+03  0.00000000000E+00 0.  1.
         21   -1    0    0  502  503 -0.00000000000E+00 -0.00000000000E+00 -0.12123737246E+03  0.12123737246E+03  0.00000000000E+00 0. -1.
         -6    2    1    2    0  503 -0.83001182037E+02  0.86847924790E+02 -0.23376692748E+01  0.20961763365E+03  0.17176242132E+03 0.  0.
        -24    2    3    3    0    0  0.10836402892E+02  0.73206585952E+02 -0.30419730218E+02  0.11061121659E+03  0.76373093398E+02 0.  0.
          6    2    1    2  501    0  0.83001182037E+02 -0.86847924790E+02  0.70504191150E+03  0.73556135350E+03  0.17185647945E+03 0.  0.
         24    2    5    5    0    0 -0.10823029784E+02 -0.64242948127E+02  0.26118817024E+03  0.28131230141E+03  0.81688777031E+02 0.  0.
          5    1    5    5  501    0  0.93824211821E+02 -0.22604976662E+02  0.44385374126E+03  0.45424905209E+03  0.47000000000E+01 0. -1.
        -13    1    6    6    0    0  0.33687621858E+02 -0.44291723346E+02  0.14398453341E+03  0.15436372140E+03  0.00000000000E+00 0.  1.
         14    1    6    6    0    0 -0.44510651642E+02 -0.19951224782E+02  0.11720363683E+03  0.12694858000E+03  0.00000000000E+00 0. -1.
         -5    1    3    3    0  503 -0.93837584930E+02  0.13641338838E+02  0.28082060943E+02  0.99006417052E+02  0.47000000000E+01 0.  1.
         13    1    4    4    0    0  0.41041794375E+02  0.45907674160E+02 -0.32501171429E+01  0.61664468649E+02  0.00000000000E+00 0. -1.
        -14    1    4    4    0    0 -0.30205391483E+02  0.27298911791E+02 -0.27169613075E+02  0.48946747944E+02  0.00000000000E+00 0.  1.
</event>
<event>
12    1  0.8691829E-002  0.1952488E+03  0.7818608E-02  0.1154126E+00
         21   -1    0    0  501  502  0.00000000000E+00  0.00000000000E+00  0.14807105531E+03  0.14807105531E+03  0.00000000000E+00 0.  1.
         21   -1    0    0  502  503 -0.00000000000E+00 -0.00000000000E+00 -0.31104163341E+03  0.31104163341E+03  0.00000000000E+00 0.  1.
         -6    2    1    2    0  503 -0.75916646793E+02 -0.50610812442E+02 -0.17868788944E+03  0.26467231917E+03  0.17261889556E+03 0.  0.
        -24    2    3    3    0    0 -0.53933947763E+02 -0.70294564740E+01 -0.29278185454E+02  0.10742117199E+03  0.87885220990E+02 0.  0.
          6    2    1    2  501    0  0.75916646793E+02  0.50610812442E+02  0.15717311343E+02  0.19444036955E+03  0.17098313320E+03 0.  0.
         24    2    5    5    0    0  0.33676967753E+02  0.96050321431E+02  0.11751085770E+02  0.13209648125E+03  0.83376195276E+02 0.  0.
          5    1    5    5  501    0  0.42239679040E+02 -0.45439508989E+02  0.39662255728E+01  0.62343888296E+02  0.47000000000E+01 0. -1.
        -11    1    6    6    0    0  0.32991770703E+02  0.15159520236E+02  0.32341429966E+02  0.48623410824E+02  0.00000000000E+00 0.  1.
         12    1    6    6    0    0  0.68519705023E+00  0.80890801194E+02 -0.20590344196E+02  0.83473070430E+02  0.00000000000E+00 0. -1.
         -5    1    3    3    0  503 -0.21982699030E+02 -0.43581355968E+02 -0.14940970398E+03  0.15725114718E+03  0.47000000000E+01 0.  1.
         11    1    4    4    0    0  0.12678127384E+02 -0.49197057609E+01  0.20246100804E+02  0.24389403775E+02  0.00000000000E+00 0. -1.
        -12    1    4    4    0    0 -0.66612075147E+02 -0.21097507131E+01 -0.49524286258E+02  0.83031768215E+02  0.00000000000E+00 0.  1.
</event>
<event>
12    1  0.8691829E-002  0.2062496E+03  0.7818608E-02  0.1144803E+00
         21   -1    0    0  503  502  0.00000000000E+00  0.00000000000E+00  0.56196874982E+03  0.56196874982E+03  0.00000000000E+00 0.  1.
         21   -1    0    0  501  503 -0.00000000000E+00 -0.00000000000E+00 -0.13389727815E+03  0.13389727815E+03  0.00000000000E+00 0.  1.
          6    2    1    2  501    0 -0.10570493458E+03  0.39670092423E+02 -0.15844395393E+02  0.20685730344E+03  0.17260257731E+03 0.  0.
         24    2    3    3    0    0 -0.38688868614E+02 -0.43757337932E+02 -0.16284824311E+02  0.99742536904E+02  0.79194980823E+02 0.  0.
         -6    2    1    2    0  502  0.10570493458E+03 -0.39670092423E+02  0.44391586707E+03  0.48900872453E+03  0.17123371807E+03 0.  0.
        -24    2    5    5    0    0  0.25686753054E+02 -0.79468059062E+02  0.22440223702E+03  0.25195364380E+03  0.78417427601E+02 0.  0.
          5    1    3    3  501    0 -0.67016065964E+02  0.83427430355E+02  0.44042891730E+00  0.10711476654E+03  0.47000000000E+01 0. -1.
        -13    1    4    4    0    0 -0.53189643314E+02 -0.51136919763E+02 -0.28809911406E+02  0.79209429451E+02  0.00000000000E+00 0.  1.
         14    1    4    4    0    0  0.14500774700E+02  0.73795818313E+01  0.12525087096E+02  0.20533107453E+02  0.00000000000E+00 0. -1.
         -5    1    5    5    0  502  0.80018181524E+02  0.39797966639E+02  0.21951363005E+03  0.23705508073E+03  0.47000000000E+01 0.  1.
         13    1    6    6    0    0  0.46869175813E+02 -0.23281579304E+02  0.12920127165E+03  0.13939770505E+03  0.00000000000E+00 0. -1.
        -14    1    6    6    0    0 -0.21182422758E+02 -0.56186479758E+02  0.95200965369E+02  0.11255593875E+03  0.00000000000E+00 0.  1.
</event>
<event>
12    1  0.8691829E-002  0.2141216E+03  0.7818608E-02  0.1138476E+00
         21   -1    0    0  503  502  0.00000000000E+00  0.00000000000E+00  0.30561939398E+02  0.30561939398E+02  0.00000000000E+00 0. -1.
         21   -1    0    0  501  503 -0.00000000000E+00 -0.00000000000E+00 -0.24940141218E+04  0.24940141218E+04  0.00000000000E+00 0. -1.
          6    2    1    2  501    0  0.10585069030E+03  0.71282966695E+02 -0.20293017915E+04  0.20404948378E+04  0.17107832163E+03 0.  0.
         24    2    3    3    0    0  0.12957504986E+03  0.15526037046E+02 -0.14724007140E+04  0.14802872151E+04  0.79092510112E+02 0.  0.
         -6    2    1    2    0  502 -0.10585069030E+03 -0.71282966695E+02 -0.43415039088E+03  0.48408122338E+03  0.17193731109E+03 0.  0.
        -24    2    5    5    0    0 -0.78976108633E+02  0.67397976858E+01 -0.14597162345E+03  0.18428314650E+03  0.79811732363E+02 0.  0.
          5    1    3    3  501    0 -0.23724359555E+02  0.55756929649E+02 -0.55690107752E+03  0.56020762275E+03  0.47000000000E+01 0. -1.
        -11    1    4    4    0    0  0.97456103203E+02 -0.20929154809E+02 -0.11407338609E+04  0.11450805487E+04  0.00000000000E+00 0.  1.
         12    1    4    4    0    0  0.32118946656E+02  0.36455191855E+02 -0.33166685311E+03  0.33520666640E+03  0.00000000000E+00 0. -1.
         -5    1    5    5    0  502 -0.26874581672E+02 -0.78022764381E+02 -0.28817876743E+03  0.29979807688E+03  0.47000000000E+01 0.  1.
         13    1    6    6    0    0  0.13438394057E+01 -0.22195663658E+02 -0.11589226985E+02  0.25075158457E+02  0.00000000000E+00 0. -1.
        -14    1    6    6    0    0 -0.80319948038E+02  0.28935461343E+02 -0.13438239647E+03  0.15920798804E+03  0.00000000000E+00 0.  1.
</event>
<event>
12    1  0.8691829E-002  0.1976137E+03  0.7818608E-02  0.1154549E+00
         21   -1    0    0  501  502  0.00000000000E+00  0.00000000000E+00  0.26467374709E+03  0.26467374709E+03  0.00000000000E+00 0. -1.
         21   -1    0    0  502  503 -0.00000000000E+00 -0.00000000000E+00 -0.23503283958E+03  0.23503283958E+03  0.00000000000E+00 0. -1.
         -6    2    1    2    0  503 -0.53468143585E+02  0.43562806448E+02 -0.14510502960E+03  0.24516653494E+03  0.18518801191E+03 0.  0.
        -24    2    3    3    0    0 -0.76714084453E+02  0.17494278555E+02 -0.16801451401E+03  0.20313230616E+03  0.82720954720E+02 0.  0.
          6    2    1    2  501    0  0.53468143585E+02 -0.43562806448E+02  0.17474593710E+03  0.25454005174E+03  0.17174962859E+03 0.  0.
         24    2    5    5    0    0 -0.48203476379E+01 -0.82905533525E+02  0.12438286891E+03  0.16791484166E+03  0.76339588229E+02 0.  0.
          5    1    5    5  501    0  0.58288491223E+02  0.39342727077E+02  0.50363068196E+02  0.86625210078E+02  0.47000000000E+01 0. -1.
        -11    1    6    6    0    0 -0.40252532079E+02 -0.46584149648E+02  0.60313645172E+02  0.86186339585E+02  0.00000000000E+00 0.  1.
         12    1    6    6    0    0  0.35432184441E+02 -0.36321383877E+02  0.64069223737E+02  0.81728502074E+02  0.00000000000E+00 0. -1.
         -5    1    3    3    0  503  0.23245940867E+02  0.26068527893E+02  0.22909484414E+02  0.42034228783E+02  0.47000000000E+01 0.  1.
         13    1    4    4    0    0 -0.76559458635E+02 -0.18014094033E+02 -0.11679027592E+03  0.14080421456E+03  0.00000000000E+00 0. -1.
        -14    1    4    4    0    0 -0.15462581777E+00  0.35508372588E+02 -0.51224238096E+02  0.62328091592E+02  0.00000000000E+00 0.  1.
</event>
<event>
12    1  0.8691829E-002  0.1956049E+03  0.7818608E-02  0.1153799E+00
         21   -1    0    0  503  502  0.00000000000E+00  0.00000000000E+00  0.36088934365E+03  0.36088934365E+03  0.00000000000E+00 0. -1.
         21   -1    0    0  501  503 -0.00000000000E+00 -0.00000000000E+00 -0.33557797403E+03  0.33557797403E+03  0.00000000000E+00 0. -1.
          6    2    1    2  501    0  0.83971254345E+02  0.40925727545E+02 -0.27581216648E+03  0.33813257519E+03  0.17185808242E+03 0.  0.
         24    2    3    3    0    0  0.11933889755E+03  0.42079286181E+02 -0.17059643128E+03  0.22702613156E+03  0.80157864548E+02 0.  0.
         -6    2    1    2    0  502 -0.83971254345E+02 -0.40925727545E+02  0.30112353610E+03  0.35833474249E+03  0.17030066633E+03 0.  0.
        -24    2    5    5    0    0 -0.22394449192E+02 -0.76801263207E+02  0.23371936373E+03  0.26013001020E+03  0.81504207491E+02 0.  0.
          5    1    3    3  501    0 -0.35367643204E+02 -0.11535586359E+01 -0.10521573520E+03  0.11110644363E+03  0.47000000000E+01 0. -1.
        -11    1    4    4    0    0  0.87894844646E+02 -0.24305507992E+01 -0.69124939921E+02  0.11184662986E+03  0.00000000000E+00 0.  1.
         12    1    4    4    0    0  0.31444052903E+02  0.44509836980E+02 -0.10147149136E+03  0.11517950169E+03  0.00000000000E+00 0. -1.
         -5    1    5    5    0  502 -0.61576805153E+02  0.35875535662E+02  0.67404172375E+02  0.98204732297E+02  0.47000000000E+01 0.  1.
         13    1    6    6    0    0 -0.22257965297E+02 -0.69905839543E+02  0.23990124790E+03  0.25086819680E+03  0.00000000000E+00 0. -1.
        -14    1    6    6    0    0 -0.13648389462E+00 -0.68954236642E+01 -0.61818841765E+01  0.92618133933E+01  0.00000000000E+00 0.  1.
</event>
<event>
12    1  0.8691829E-002  0.1777984E+03  0.7818608E-02  0.1169953E+00
         21   -1    0    0  503  502  0.00000000000E+00  0.00000000000E+00  0.23759743068E+03  0.23759743068E+03  0.00000000000E+00 0. -1.
         21   -1    0    0  501  503 -0.00000000000E+00 -0.00000000000E+00 -0.42278052888E+03  0.42278052888E+03  0.00000000000E+00 0. -1.
          6    2    1    2  501    0 -0.46226005878E+02 -0.69082363159E+01 -0.36593411148E+03  0.40684155063E+03  0.17154505537E+03 0.  0.
         24    2    3    3    0    0 -0.35727384425E+02  0.19853233776E+02 -0.82442091075E+02  0.12185696689E+03  0.79886326171E+02 0.  0.
         -6    2    1    2    0  502  0.46226005878E+02  0.69082363159E+01  0.18075101328E+03  0.25353640893E+03  0.17153779322E+03 0.  0.
        -24    2    5    5    0    0  0.25724951734E+02 -0.37203262909E+02  0.18276650165E+03  0.20462557396E+03  0.80138476883E+02 0.  0.
          5    1    3    3  501    0 -0.10498621453E+02 -0.26761470091E+02 -0.28349202041E+03  0.28498458374E+03  0.47000000000E+01 0. -1.
        -13    1    4    4    0    0 -0.52090197033E+02  0.38576533188E+02 -0.61390516639E+02  0.89276721899E+02  0.00000000000E+00 0.  1.
         14    1    4    4    0    0  0.16362812608E+02 -0.18723299412E+02 -0.21051574436E+02  0.32580244989E+02  0.00000000000E+00 0. -1.
         -5    1    5    5    0  502  0.20501054143E+02  0.44111499225E+02 -0.20154883726E+01  0.48910834978E+02  0.47000000000E+01 0.  1.
         13    1    6    6    0    0 -0.24154695814E+02 -0.18116759109E+02  0.11181667838E+03  0.11582156904E+03  0.00000000000E+00 0. -1.
        -14    1    6    6    0    0  0.49879647549E+02 -0.19086503800E+02  0.70949823274E+02  0.88804004918E+02  0.00000000000E+00 0.  1.
</event>
<event>
12    1  0.8691829E-002  0.1728563E+03  0.7818608E-02  0.1175153E+00
         21   -1    0    0  501  502  0.00000000000E+00  0.00000000000E+00  0.36592735276E+03  0.36592735276E+03  0.00000000000E+00 0.  1.
         21   -1    0    0  502  503 -0.00000000000E+00 -0.00000000000E+00 -0.96538043144E+02  0.96538043144E+02  0.00000000000E+00 0.  1.
         -6    2    1    2    0  503  0.97918225995E+01  0.64431749129E+01  0.42174154494E+02  0.17697281635E+03  0.17147397507E+03 0.  0.
        -24    2    3    3    0    0  0.49974795035E+02  0.50658608637E+02  0.47400224908E+02  0.11681404587E+03  0.79592494768E+02 0.  0.
          6    2    1    2  501    0 -0.97918225995E+01 -0.64431749129E+01  0.22721515513E+03  0.28549257956E+03  0.17245837751E+03 0.  0.
         24    2    5    5    0    0 -0.64866867415E+02  0.62131121701E+01  0.85161838010E+02  0.13253939369E+03  0.77896334805E+02 0.  0.
          5    1    5    5  501    0  0.55075044816E+02 -0.12656287083E+02  0.14205331712E+03  0.15295318587E+03  0.47000000000E+01 0. -1.
        -13    1    6    6    0    0  0.23147542494E+00 -0.21348782387E+02  0.48311141590E+02  0.52818467338E+02  0.00000000000E+00 0.  1.
         14    1    6    6    0    0 -0.65098342840E+02  0.27561894557E+02  0.36850696420E+02  0.79720926354E+02  0.00000000000E+00 0. -1.
         -5    1    3    3    0  503 -0.40182972435E+02 -0.44215433724E+02 -0.52260704147E+01  0.60158770476E+02  0.47000000000E+01 0.  1.
         13    1    4    4    0    0  0.20896359468E+02  0.34038532533E+01  0.56728492759E+02  0.60550523918E+02  0.00000000000E+00 0. -1.
        -14    1    4    4    0    0  0.29078435567E+02  0.47254755384E+02 -0.93282678507E+01  0.56263521953E+02  0.00000000000E+00 0.  1.
</event>
<event>
12    1  0.8691829E-002  0.2081266E+03  0.7818608E-02  0.1143243E+00
         21   -1    0    0  503  502  0.00000000000E+00  0.00000000000E+00  0.34590110000E+03  0.34590110000E+03  0.00000000000E+00 0.  1.
         21   -1    0    0  501  503 -0.00000000000E+00 -0.00000000000E+00 -0.16857068458E+03  0.16857068458E+03  0.00000000000E+00 0.  1.
          6    2    1    2  501    0 -0.46378336993E+02 -0.10717332207E+03 -0.42744038352E+02  0.21157007222E+03  0.17116591816E+03 0.  0.
         24    2    3    3    0    0 -0.27849378649E+01 -0.69882715392E+02  0.38375177727E+02  0.11210454547E+03  0.78761824891E+02 0.  0.
         -6    2    1    2    0  502  0.46378336993E+02  0.10717332207E+03  0.22007445377E+03  0.30290171236E+03  0.17227771487E+03 0.  0.
        -24    2    5    5    0    0 -0.35943897063E+02  0.28477735760E+02  0.74906876731E+02  0.11833286084E+03  0.79301201780E+02 0.  0.
          5    1    3    3  501    0 -0.43593399128E+02 -0.37290606681E+02 -0.81119216080E+02  0.99465526749E+02  0.47000000000E+01 0. -1.
        -13    1    4    4    0    0  0.13193209039E+02 -0.37138971283E+02 -0.19300498136E+02  0.43884771630E+02  0.00000000000E+00 0.  1.
         14    1    4    4    0    0 -0.15978146904E+02 -0.32743744109E+02  0.57675675863E+02  0.68219773842E+02  0.00000000000E+00 0. -1.
         -5    1    5    5    0  502  0.82322234056E+02  0.78695586313E+02  0.14516757704E+03  0.18456885151E+03  0.47000000000E+01 0.  1.
         13    1    6    6    0    0  0.38041284267E+01 -0.21442858371E+01  0.67467326124E+02  0.67608501308E+02  0.00000000000E+00 0. -1.
        -14    1    6    6    0    0 -0.39748025490E+02  0.30622021597E+02  0.74395506066E+01  0.50724359535E+02  0.00000000000E+00 0.  1.
</event>
<event>
12    1  0.8691829E-002  0.2217078E+03  0.7818608E-02  0.1132944E+00
         21   -1    0    0  501  502  0.00000000000E+00  0.00000000000E+00  0.53648465500E+03  0.53648465500E+03  0.00000000000E+00 0. -1.
         21   -1    0    0  502  503 -0.00000000000E+00 -0.00000000000E+00 -0.13599043332E+03  0.13599043332E+03  0.00000000000E+00 0. -1.
         -6    2    1    2    0  503  0.61505854691E+02  0.12476321417E+03  0.71579497611E+01  0.22182332668E+03  0.17264275903E+03 0.  0.
        -24    2    3    3    0    0 -0.15493384720E+02  0.55141411114E+02  0.51393970400E+02  0.10888531779E+03  0.77032798515E+02 0.  0.
          6    2    1    2  501    0 -0.61505854691E+02 -0.12476321417E+03  0.39333627193E+03  0.45065176164E+03  0.17036653921E+03 0.  0.
         24    2    5    5    0    0  0.29964901411E+02 -0.87833735890E+02  0.21384127432E+03  0.24578295056E+03  0.77900627111E+02 0.  0.
          5    1    5    5  501    0 -0.91470756101E+02 -0.36929478280E+02  0.17949499760E+03  0.20486881108E+03  0.47000000000E+01 0. -1.
        -11    1    6    6    0    0  0.19903274922E+02  0.10373606320E+02  0.39679516117E+02  0.45587455072E+02  0.00000000000E+00 0.  1.
         12    1    6    6    0    0  0.10061626489E+02 -0.98207342210E+02  0.17416175820E+03  0.20019549548E+03  0.00000000000E+00 0. -1.
         -5    1    3    3    0  503  0.76999239411E+02  0.69621803056E+02 -0.44236020639E+02  0.11293800889E+03  0.47000000000E+01 0.  1.
         11    1    4    4    0    0 -0.13963273887E+02  0.74735874043E+02  0.37201883757E+02  0.84642802658E+02  0.00000000000E+00 0. -1.
        -12    1    4    4    0    0 -0.15301108329E+01 -0.19594462930E+02  0.14192086643E+02  0.24242515133E+02  0.00000000000E+00 0.  1.
</event>
<event>
12    1  0.8691829E-002  0.2357592E+03  0.7818608E-02  0.1122746E+00
         21   -1    0    0  501  502  0.00000000000E+00  0.00000000000E+00  0.34008488478E+03  0.34008488478E+03  0.00000000000E+00 0.  1.
         21   -1    0    0  502  503 -0.00000000000E+00 -0.00000000000E+00 -0.16594209792E+03  0.16594209792E+03  0.00000000000E+00 0. -1.
         -6    2    1    2    0  503 -0.11544096817E+03  0.10993942754E+03  0.53775757671E+02  0.24181447913E+03  0.17369258862E+03 0.  0.
        -24    2    3    3    0    0  0.55455287347E+01  0.65345171892E+02  0.44243877164E+02  0.11243392875E+03  0.79894450923E+02 0.  0.
          6    2    1    2  501    0  0.11544096817E+03 -0.10993942754E+03  0.12036702919E+03  0.26421250357E+03  0.17293562520E+03 0.  0.
         24    2    5    5    0    0  0.62301951972E+02 -0.13899302287E+03  0.72174366185E+02  0.18667226103E+03  0.80229672048E+02 0.  0.
          5    1    5    5  501    0  0.53139016201E+02  0.29053595335E+02  0.48192663008E+02  0.77540242536E+02  0.47000000000E+01 0. -1.
        -11    1    6    6    0    0  0.70526600617E+02 -0.77561135088E+02  0.67138099267E+02  0.12448797309E+03  0.00000000000E+00 0.  1.
         12    1    6    6    0    0 -0.82246486448E+01 -0.61431887787E+02  0.50362669177E+01  0.62184287942E+02  0.00000000000E+00 0. -1.
         -5    1    3    3    0  503 -0.12098649691E+03  0.44594255647E+02  0.95318805074E+01  0.12938055038E+03  0.47000000000E+01 0.  1.
         11    1    4    4    0    0 -0.21082006666E+02  0.10491906060E+02 -0.14590836764E+02  0.27702411724E+02  0.00000000000E+00 0. -1.
        -12    1    4    4    0    0  0.26627535401E+02  0.54853265832E+02  0.58834713927E+02  0.84731517022E+02  0.00000000000E+00 0.  1.
</event>
<event>
12    1  0.8691829E-002  0.1797894E+03  0.7818608E-02  0.1168045E+00
         21   -1    0    0  503  502  0.00000000000E+00  0.00000000000E+00  0.99097547698E+03  0.99097547698E+03  0.00000000000E+00 0. -1.
         21   -1    0    0  501  503 -0.00000000000E+00 -0.00000000000E+00 -0.34731162133E+02  0.34731162133E+02  0.00000000000E+00 0. -1.
          6    2    1    2  501    0 -0.41864368959E+02 -0.31822726155E+02  0.35098160504E+03  0.39435050712E+03  0.17192708951E+03 0.  0.
         24    2    3    3    0    0 -0.88501447974E+02 -0.12957393284E+01  0.18674126546E+03  0.22084577172E+03  0.77886901515E+02 0.  0.
         -6    2    1    2    0  502  0.41864368959E+02  0.31822726155E+02  0.60526270981E+03  0.63135613199E+03  0.17176235391E+03 0.  0.
        -24    2    5    5    0    0 -0.19240313429E+02  0.68863769641E+02  0.34133084045E+03  0.35788228904E+03  0.80377744033E+02 0.  0.
          5    1    3    3  501    0  0.46637079015E+02 -0.30526986826E+02  0.16424033957E+03  0.17350473540E+03  0.47000000000E+01 0. -1.
        -11    1    4    4    0    0 -0.83630267765E+01  0.29729337518E+02  0.63378237637E+02  0.70502303027E+02  0.00000000000E+00 0.  1.
         12    1    4    4    0    0 -0.80138421197E+02 -0.31025076846E+02  0.12336302783E+03  0.15034346870E+03  0.00000000000E+00 0. -1.
         -5    1    5    5    0  502  0.61104682388E+02 -0.37041043487E+02  0.26393186936E+03  0.27347384295E+03  0.47000000000E+01 0.  1.
         13    1    6    6    0    0 -0.46441555154E+02  0.37249277312E+02  0.13760819439E+03  0.14993445858E+03  0.00000000000E+00 0. -1.
        -14    1    6    6    0    0  0.27201241725E+02  0.31614492330E+02  0.20372264606E+03  0.20794783046E+03  0.00000000000E+00 0.  1.
</event>
<event>
12    1  0.8691829E-002  0.2692520E+03  0.7818608E-02  0.1101809E+00
         21   -1    0    0  503  502  0.00000000000E+00  0.00000000000E+00  0.78465589863E+03  0.78465589863E+03  0.00000000000E+00 0.  1.
         21   -1    0    0  501  503 -0.00000000000E+00 -0.00000000000E+00 -0.11329903259E+03  0.11329903259E+03  0.00000000000E+00 0. -1.
          6    2    1    2  501    0 -0.46456364156E+02  0.20049543669E+03  0.14135824050E+03  0.30348440301E+03  0.17252251102E+03 0.  0.
         24    2    3    3    0    0  0.11755400688E+02  0.29421074575E+02  0.50300149281E+02  0.10107710839E+03  0.81747707904E+02 0.  0.
         -6    2    1    2    0  502  0.46456364156E+02 -0.20049543669E+03  0.52999862553E+03  0.59447052821E+03  0.17360890511E+03 0.  0.
        -24    2    5    5    0    0 -0.35328676607E+02 -0.13109905514E+03  0.36084846592E+03  0.39412453458E+03  0.81776865624E+02 0.  0.
          5    1    3    3  501    0 -0.58211764844E+02  0.17107436212E+03  0.91058091221E+02  0.20240729463E+03  0.47000000000E+01 0. -1.
        -13    1    4    4    0    0  0.22594225169E+02  0.24107730949E+02 -0.13831815246E+02  0.35819000761E+02  0.00000000000E+00 0.  1.
         14    1    4    4    0    0 -0.10838824481E+02  0.53133436258E+01  0.64131964528E+02  0.65258107625E+02  0.00000000000E+00 0. -1.
         -5    1    5    5    0  502  0.81785040762E+02 -0.69396381557E+02  0.16915015962E+03  0.20034599363E+03  0.47000000000E+01 0.  1.
         11    1    6    6    0    0  0.16831223934E+02 -0.14078087277E+02  0.11310118677E+03  0.11521007373E+03  0.00000000000E+00 0. -1.
        -12    1    6    6    0    0 -0.52159900540E+02 -0.11702096786E+03  0.24774727915E+03  0.27891446085E+03  0.00000000000E+00 0.  1.
</event>
<event>
12    1  0.8691829E-002  0.1985868E+03  0.7818608E-02  0.1151120E+00
         21   -1    0    0  503  502  0.00000000000E+00  0.00000000000E+00  0.55683315398E+03  0.55683315398E+03  0.00000000000E+00 0.  1.
         21   -1    0    0  501  503 -0.00000000000E+00 -0.00000000000E+00 -0.74874350714E+02  0.74874350714E+02  0.00000000000E+00 0.  1.
          6    2    1    2  501    0 -0.83366316874E+02 -0.56516245763E+02  0.31667964721E+03  0.37333974597E+03  0.17015445378E+03 0.  0.
         24    2    3    3    0    0 -0.60118367026E+02 -0.13505518420E+02  0.72065869201E+02  0.12384349303E+03  0.79668715193E+02 0.  0.
         -6    2    1    2    0  502  0.83366316874E+02  0.56516245763E+02  0.16527915605E+03  0.25836775872E+03  0.17115101664E+03 0.  0.
        -24    2    5    5    0    0 -0.16793186934E+02  0.12842297427E+02  0.46081406688E+02  0.96597757114E+02  0.82223444994E+02 0.  0.
          5    1    3    3  501    0 -0.23247949848E+02 -0.43010727343E+02  0.24461377801E+03  0.24949625294E+03  0.47000000000E+01 0. -1.
        -13    1    4    4    0    0 -0.89646443012E+01  0.16395261784E+02  0.60700594100E+02  0.63511664917E+02  0.00000000000E+00 0.  1.
         14    1    4    4    0    0 -0.51153722725E+02 -0.29900780204E+02  0.11365275101E+02  0.60331828114E+02  0.00000000000E+00 0. -1.
         -5    1    5    5    0  502  0.10015950381E+03  0.43673948336E+02  0.11919774937E+03  0.16177000161E+03  0.47000000000E+01 0.  1.
         13    1    6    6    0    0 -0.28523637196E+02 -0.22364455569E+02  0.47151302587E+02  0.59472784426E+02  0.00000000000E+00 0. -1.
        -14    1    6    6    0    0  0.11730450262E+02  0.35206752996E+02 -0.10698958995E+01  0.37124972688E+02  0.00000000000E+00 0.  1.
</event>
<event>
12    1  0.8691829E-002  0.2858940E+03  0.7818608E-02  0.1092765E+00
         21   -1    0    0  501  502  0.00000000000E+00  0.00000000000E+00  0.10271260394E+03  0.10271260394E+03  0.00000000000E+00 0.  1.
         21   -1    0    0  502  503 -0.00000000000E+00 -0.00000000000E+00 -0.16880712405E+04  0.16880712405E+04  0.00000000000E+00 0. -1.
         -6    2    1    2    0  503 -0.11506542049E+03  0.19598532780E+03 -0.14468138717E+04  0.14747900734E+04  0.17345051617E+03 0.  0.
        -24    2    3    3    0    0 -0.14990186329E+03  0.14313088692E+03 -0.11025453909E+04  0.11247185856E+04  0.80178167219E+02 0.  0.
          6    2    1    2  501    0  0.11506542049E+03 -0.19598532780E+03 -0.13854476490E+03  0.31599377106E+03  0.17031474324E+03 0.  0.
         24    2    5    5    0    0  0.14321235535E+03 -0.19561244308E+03 -0.11908053387E+03  0.28144908588E+03  0.79116419168E+02 0.  0.
          5    1    5    5  501    0 -0.28146934863E+02 -0.37288472109E+00 -0.19464231024E+02  0.34544685185E+02  0.47000000000E+01 0. -1.
        -11    1    6    6    0    0  0.14029208830E+03 -0.14377594733E+03 -0.78991383004E+02  0.21585419074E+03  0.00000000000E+00 0.  1.
         12    1    6    6    0    0  0.29202670510E+01 -0.51836495745E+02 -0.40089150869E+02  0.65594895138E+02  0.00000000000E+00 0. -1.
         -5    1    3    3    0  503  0.34836442795E+02  0.52854440877E+02 -0.34426848080E+03  0.35007148776E+03  0.47000000000E+01 0.  1.
         11    1    4    4    0    0 -0.72734626938E+02  0.32603202017E+02 -0.56171071650E+03  0.56733783919E+03  0.00000000000E+00 0. -1.
        -12    1    4    4    0    0 -0.77167236348E+02  0.11052768491E+03 -0.54083467437E+03  0.55738074643E+03  0.00000000000E+00 0.  1.
</event>
<event>
12    1  0.8691829E-002  0.2831191E+03  0.7818608E-02  0.1094185E+00
         21   -1    0    0  503  502  0.00000000000E+00  0.00000000000E+00  0.95266252816E+02  0.95266252816E+02  0.00000000000E+00 0.  1.
         21   -1    0    0  501  503 -0.00000000000E+00 -0.00000000000E+00 -0.84517863290E+03  0.84517863290E+03  0.00000000000E+00 0.  1.
          6    2    1    2  501    0 -0.21886074892E+03 -0.51746707140E+02 -0.32854164438E+03  0.43279368121E+03  0.16968502965E+03 0.  0.
         24    2    3    3    0    0 -0.93074748405E+02 -0.56736918323E+02 -0.10207151100E+03  0.17364540041E+03  0.88612330023E+02 0.  0.
         -6    2    1    2    0  502  0.21886074892E+03  0.51746707140E+02 -0.42137073571E+03  0.50765120451E+03  0.17198459063E+03 0.  0.
        -24    2    5    5    0    0  0.13294092382E+03  0.46200011979E+02 -0.37727202754E+03  0.41080200093E+03  0.81341077376E+02 0.  0.
          5    1    3    3  501    0 -0.12578600051E+03  0.49902111825E+01 -0.22647013337E+03  0.25914828080E+03  0.47000000000E+01 0. -1.
        -13    1    4    4    0    0 -0.43421197344E+02  0.79821269474E+00 -0.85446806578E+02  0.95849852773E+02  0.00000000000E+00 0.  1.
         14    1    4    4    0    0 -0.49653551061E+02 -0.57535131017E+02 -0.16624704426E+02  0.77795547632E+02  0.00000000000E+00 0. -1.
         -5    1    5    5    0  502  0.85919825100E+02  0.55466951616E+01 -0.44098708164E+02  0.96849203580E+02  0.47000000000E+01 0.  1.
         13    1    6    6    0    0 -0.47815273702E+01 -0.11549778527E+02 -0.20156681777E+02  0.23718183073E+02  0.00000000000E+00 0. -1.
        -14    1    6    6    0    0  0.13772245119E+03  0.57749790506E+02 -0.35711534577E+03  0.38708381786E+03  0.00000000000E+00 0.  1.
</event>
<event>
12    1  0.8691829E-002  0.1949451E+03  0.7818608E-02  0.1154232E+00
         21   -1    0    0  503  502  0.00000000000E+00  0.00000000000E+00  0.72362528651E+03  0.72362528651E+03  0.00000000000E+00 0. -1.
         21   -1    0    0  501  503 -0.00000000000E+00 -0.00000000000E+00 -0.21650086212E+03  0.21650086212E+03  0.00000000000E+00 0. -1.
          6    2    1    2  501    0 -0.85537324187E+02 -0.35480137648E+02 -0.15566115850E+03  0.24946742738E+03  0.17154628256E+03 0.  0.
         24    2    3    3    0    0 -0.11347618337E+03 -0.31188745722E+02 -0.16633504448E+03  0.21888936762E+03  0.79972658967E+02 0.  0.
         -6    2    1    2    0  502  0.85537324187E+02  0.35480137648E+02  0.66278558290E+03  0.69065872125E+03  0.17073156226E+03 0.  0.
        -24    2    5    5    0    0  0.34724132147E+02  0.50384247769E+02  0.60098340735E+03  0.60913748546E+03  0.78250127793E+02 0.  0.
          5    1    3    3  501    0  0.27938859178E+02 -0.42913919265E+01  0.10673885984E+02  0.30578059762E+02  0.47000000000E+01 0. -1.
        -11    1    4    4    0    0 -0.24749506452E+02  0.22515106212E+02 -0.18292973665E+02  0.38132675790E+02  0.00000000000E+00 0.  1.
         12    1    4    4    0    0 -0.88726676913E+02 -0.53703851934E+02 -0.14804207082E+03  0.18075669183E+03  0.00000000000E+00 0. -1.
         -5    1    5    5    0  502  0.50813192040E+02 -0.14904110120E+02  0.61802175543E+02  0.81521235796E+02  0.47000000000E+01 0.  1.
         11    1    6    6    0    0  0.56590600422E+02  0.39779782831E+02  0.33627722904E+03  0.34331807693E+03  0.00000000000E+00 0. -1.
        -12    1    6    6    0    0 -0.21866468274E+02  0.10604464937E+02  0.26470617831E+03  0.26581940853E+03  0.00000000000E+00 0.  1.
</event>
<event>
12    1  0.8691829E-002  0.1730370E+03  0.7818608E-02  0.1174925E+00
         21   -1    0    0  503  502  0.00000000000E+00  0.00000000000E+00  0.46448015459E+03  0.46448015459E+03  0.00000000000E+00 0. -1.
         21   -1    0    0  501  503 -0.00000000000E+00 -0.00000000000E+00 -0.67784732333E+02  0.67784732333E+02  0.00000000000E+00 0. -1.
          6    2    1    2  501    0  0.13344411744E+02 -0.57418087271E+01  0.26033521989E+03  0.31259592895E+03  0.17242606064E+03 0.  0.
         24    2    3    3    0    0 -0.38688634581E+02 -0.51970818092E+02  0.15366784422E+03  0.18514170874E+03  0.80410631062E+02 0.  0.
         -6    2    1    2    0  502 -0.13344411744E+02  0.57418087271E+01  0.13636020237E+03  0.21966895798E+03  0.17160799695E+03 0.  0.
        -24    2    5    5    0    0 -0.32726578017E+02 -0.49663869323E+02  0.41437601076E+02  0.10796467084E+03  0.80011040120E+02 0.  0.
          5    1    3    3  501    0  0.52033046326E+02  0.46229009365E+02  0.10666737567E+03  0.12745422021E+03  0.47000000000E+01 0. -1.
        -11    1    4    4    0    0 -0.33022875650E+02 -0.35803647651E+02  0.15971314560E+03  0.16697514899E+03  0.00000000000E+00 0.  1.
         12    1    4    4    0    0 -0.56657589313E+01 -0.16167170442E+02 -0.60453013813E+01  0.18166559750E+02  0.00000000000E+00 0. -1.
         -5    1    5    5    0  502  0.19382166273E+02  0.55405678051E+02  0.94922601290E+02  0.11170428714E+03  0.47000000000E+01 0.  1.
         11    1    6    6    0    0 -0.44685778018E+02 -0.89604215780E+01  0.46654932426E+02  0.65221090389E+02  0.00000000000E+00 0. -1.
        -12    1    6    6    0    0  0.11959200001E+02 -0.40703447745E+02 -0.52173313504E+01  0.42743580447E+02  0.00000000000E+00 0.  1.
</event>
<event>
12    1  0.8691829E-002  0.2719233E+03  0.7818608E-02  0.1100210E+00
         21   -1    0    0  501  502  0.00000000000E+00  0.00000000000E+00  0.27030618648E+03  0.27030618648E+03  0.00000000000E+00 0.  1.
         21   -1    0    0  502  503 -0.00000000000E+00 -0.00000000000E+00 -0.27504039242E+03  0.27504039242E+03  0.00000000000E+00 0.  1.
         -6    2    1    2    0  503 -0.18668621908E+03 -0.97289773319E+02  0.18937734568E+02  0.27239486910E+03  0.17182340508E+03 0.  0.
        -24    2    3    3    0    0 -0.11612388481E+03 -0.12900339012E+03  0.11921267087E+02  0.19457380945E+03  0.87121865388E+02 0.  0.
          6    2    1    2  501    0  0.18668621908E+03  0.97289773319E+02 -0.23671940512E+02  0.27295170980E+03  0.17211981503E+03 0.  0.
         24    2    5    5    0    0  0.17163963009E+03  0.13253929576E+03 -0.34812046062E+02  0.23276314645E+03  0.77071241421E+02 0.  0.
          5    1    5    5  501    0  0.15046588995E+02 -0.35249522442E+02  0.11140105551E+02  0.40188563354E+02  0.47000000000E+01 0. -1.
        -11    1    6    6    0    0  0.79051024938E+02  0.18749443537E+02 -0.27898463110E+02  0.85900700932E+02  0.00000000000E+00 0.  1.
         12    1    6    6    0    0  0.92588605151E+02  0.11378985222E+03 -0.69135829526E+01  0.14686244551E+03  0.00000000000E+00 0. -1.
         -5    1    3    3    0  503 -0.70562334275E+02  0.31713616803E+02  0.70164674807E+01  0.77821059649E+02  0.47000000000E+01 0.  1.
         11    1    4    4    0    0  0.11954425576E+02 -0.26565531418E+02 -0.55011544459E+01  0.29646221523E+02  0.00000000000E+00 0. -1.
        -12    1    4    4    0    0 -0.12807831038E+03 -0.10243785870E+03  0.17422421533E+02  0.16492758793E+03  0.00000000000E+00 0.  1.
</event>
<event>
12    1  0.8691829E-002  0.1910552E+03  0.7818608E-02  0.1160134E+00
         21   -1    0    0  501  502  0.00000000000E+00  0.00000000000E+00  0.34852404154E+03  0.34852404154E+03  0.00000000000E+00 0. -1.
         21   -1    0    0  502  503 -0.00000000000E+00 -0.00000000000E+00 -0.23247548690E+03  0.23247548690E+03  0.00000000000E+00 0. -1.
         -6    2    1    2    0  503  0.54833982633E+02 -0.74760484612E+01 -0.16161781231E+03  0.25024468392E+03  0.18286450618E+03 0.  0.
        -24    2    3    3    0    0  0.66980803472E+02  0.47558728249E+02 -0.51565205250E+02  0.12651094469E+03  0.81226769395E+02 0.  0.
          6    2    1    2  501    0 -0.54833982633E+02  0.74760484612E+01  0.27766636696E+03  0.33075484452E+03  0.17098976251E+03 0.  0.
         24    2    5    5    0    0  0.21405980692E+02 -0.56108633844E+01  0.65422993873E+02  0.10480542831E+03  0.78830906871E+02 0.  0.
          5    1    5    5  501    0 -0.76239963325E+02  0.13086911846E+02  0.21224337308E+03  0.22594941621E+03  0.47000000000E+01 0. -1.
        -13    1    6    6    0    0  0.20309167259E+02  0.35180702565E+02  0.27153354253E+02  0.48861526326E+02  0.00000000000E+00 0.  1.
         14    1    6    6    0    0  0.10968134326E+01 -0.40791565949E+02  0.38269639620E+02  0.55943901982E+02  0.00000000000E+00 0. -1.
         -5    1    3    3    0  503 -0.12146820839E+02 -0.55034776710E+02 -0.11005260706E+03  0.12373373923E+03  0.47000000000E+01 0.  1.
         11    1    4    4    0    0  0.75051016145E+02  0.84401422823E+01 -0.35636704821E+02  0.83509674629E+02  0.00000000000E+00 0. -1.
        -12    1    4    4    0    0 -0.80702126722E+01  0.39118585967E+02 -0.15928500429E+02  0.43001270057E+02  0.00000000000E+00 0.  1.
</event>
<event>
12    1  0.8691829E-002  0.7204516E+03  0.7818608E-02  0.9683068E-01
         21   -1    0    0  501  502  0.00000000000E+00  0.00000000000E+00  0.47214933308E+03  0.47214933308E+03  0.00000000000E+00 0. -1.
         21   -1    0    0  502  503 -0.00000000000E+00 -0.00000000000E+00 -0.12165360944E+04  0.12165360944E+04  0.00000000000E+00 0. -1.
         -6    2    1    2    0  503  0.30842394151E+03 -0.62804412428E+03 -0.63513686578E+03  0.96044228181E+03  0.17171426461E+03 0.  0.
        -24    2    3    3    0    0  0.28341221661E+03 -0.61450875178E+03 -0.56113381356E+03  0.88102355335E+03  0.58205277285E+02 0.  0.
          6    2    1    2  501    0 -0.30842394151E+03  0.62804412428E+03 -0.10924989556E+03  0.72824314568E+03  0.16981693027E+03 0.  0.
         24    2    5    5    0    0 -0.10408474581E+03  0.25403128361E+03  0.85865688033E+01  0.28603546345E+03  0.79856307366E+02 0.  0.
          5    1    5    5  501    0 -0.20433919570E+03  0.37401284068E+03 -0.11783646436E+03  0.44220768223E+03  0.47000000000E+01 0. -1.
        -13    1    6    6    0    0 -0.70750638722E+01  0.98060441381E+01  0.19586797037E+02  0.23018636984E+02  0.00000000000E+00 0.  1.
         14    1    6    6    0    0 -0.97009681939E+02  0.24422523947E+03 -0.11000228234E+02  0.26301682647E+03  0.00000000000E+00 0. -1.
         -5    1    3    3    0  503  0.25011724898E+02 -0.13535372500E+02 -0.74003052224E+02  0.79418728456E+02  0.47000000000E+01 0.  1.
         11    1    4    4    0    0  0.13584198842E+03 -0.35208699475E+03 -0.33278298421E+03  0.50315287167E+03  0.00000000000E+00 0. -1.
        -12    1    4    4    0    0  0.14757022819E+03 -0.26242175704E+03 -0.22835082935E+03  0.37787068169E+03  0.00000000000E+00 0.  1.
</event>
<event>
12    1  0.8691829E-002  0.1978778E+03  0.7818608E-02  0.1151566E+00
         21   -1    0    0  503  502  0.00000000000E+00  0.00000000000E+00  0.17217118214E+04  0.17217118214E+04  0.00000000000E+00 0.  1.
         21   -1    0    0  501  503 -0.00000000000E+00 -0.00000000000E+00 -0.37855523945E+02  0.37855523945E+02  0.00000000000E+00 0.  1.
          6    2    1    2  501    0  0.90394307961E+02  0.38440378169E+02  0.13981962337E+04  0.14121290123E+04  0.17177556804E+03 0.  0.
         24    2    3    3    0    0  0.42306297511E+02  0.82838268287E+02  0.71863330923E+03  0.72940543152E+03  0.83345359177E+02 0.  0.
         -6    2    1    2    0  502 -0.90394307961E+02 -0.38440378169E+02  0.28566006371E+03  0.34743833303E+03  0.17164769056E+03 0.  0.
        -24    2    5    5    0    0 -0.29796727709E+02 -0.55173549136E+02  0.26066946780E+03  0.27962472358E+03  0.79432040674E+02 0.  0.
          5    1    3    3  501    0  0.48088010450E+02 -0.44397890118E+02  0.67956292451E+03  0.68272358078E+03  0.47000000000E+01 0. -1.
        -11    1    4    4    0    0  0.48683909724E+02  0.15703235267E+02  0.42824921138E+03  0.43129352153E+03  0.00000000000E+00 0.  1.
         12    1    4    4    0    0 -0.63776122129E+01  0.67135033020E+02  0.29038409785E+03  0.29811190999E+03  0.00000000000E+00 0. -1.
         -5    1    5    5    0  502 -0.60597580252E+02  0.16733170967E+02  0.24990595907E+02  0.67813609451E+02  0.47000000000E+01 0.  1.
         11    1    6    6    0    0 -0.55854493330E+02 -0.48098846252E+02  0.17803063668E+03  0.19268661353E+03  0.00000000000E+00 0. -1.
        -12    1    6    6    0    0  0.26057765621E+02 -0.70747028836E+01  0.82638831121E+02  0.86938110050E+02  0.00000000000E+00 0.  1.
</event>
<event>
12    1  0.8691829E-002  0.3338998E+03  0.7818608E-02  0.1069591E+00
         21   -1    0    0  501  502  0.00000000000E+00  0.00000000000E+00  0.37248132900E+03  0.37248132900E+03  0.00000000000E+00 0.  1.
         21   -1    0    0  502  503 -0.00000000000E+00 -0.00000000000E+00 -0.36034231791E+03  0.36034231791E+03  0.00000000000E+00 0.  1.
         -6    2    1    2    0  503  0.14426321259E+03  0.24627928858E+03 -0.14639374774E+03  0.36458222579E+03  0.17327350487E+03 0.  0.
        -24    2    3    3    0    0  0.16126816939E+03  0.18685006541E+03 -0.75378314848E+02  0.27031514335E+03  0.80423982567E+02 0.  0.
          6    2    1    2  501    0 -0.14426321259E+03 -0.24627928858E+03  0.15853275882E+03  0.36824142112E+03  0.17030486227E+03 0.  0.
         24    2    5    5    0    0 -0.14488838442E+03 -0.14546950591E+03  0.15059528495E+03  0.26700853805E+03  0.80377848012E+02 0.  0.
          5    1    5    5  501    0  0.62517182890E+00 -0.10080978268E+03  0.79374738692E+01  0.10123288307E+03  0.47000000000E+01 0. -1.
        -11    1    6    6    0    0 -0.95372887873E+02 -0.54483558807E+02  0.11086893727E+03  0.15606526575E+03  0.00000000000E+00 0.  1.
         12    1    6    6    0    0 -0.49515496549E+02 -0.90985947099E+02  0.39726347680E+02  0.11094327230E+03  0.00000000000E+00 0. -1.
         -5    1    3    3    0  503 -0.17004956799E+02  0.59429223171E+02 -0.71015432892E+02  0.94267082438E+02  0.47000000000E+01 0.  1.
         11    1    4    4    0    0  0.42757370431E+02  0.59624263697E+02 -0.61773353735E+02  0.95912422445E+02  0.00000000000E+00 0. -1.
        -12    1    4    4    0    0  0.11851079896E+03  0.12722580172E+03 -0.13604961113E+02  0.17440272091E+03  0.00000000000E+00 0.  1.
</event>
<event>
12    1  0.8691829E-002  0.2008897E+03  0.7818608E-02  0.1149079E+00
         21   -1    0    0  503  502  0.00000000000E+00  0.00000000000E+00  0.33047442806E+03  0.33047442806E+03  0.00000000000E+00 0. -1.
         21   -1    0    0  501  503 -0.00000000000E+00 -0.00000000000E+00 -0.17613719937E+03  0.17613719937E+03  0.00000000000E+00 0. -1.
          6    2    1    2  501    0 -0.59826103185E+02 -0.87768385870E+02 -0.63386593518E+02  0.21065262689E+03  0.17051163243E+03 0.  0.
         24    2    3    3    0    0  0.24122834635E+01 -0.10839463068E+03 -0.48077692072E+02  0.14315809962E+03  0.80172077048E+02 0.  0.
         -6    2    1    2    0  502  0.59826103185E+02  0.87768385870E+02  0.21772382221E+03  0.29595900055E+03  0.17001651411E+03 0.  0.
        -24    2    5    5    0    0  0.10236682085E+03  0.57184985524E+02  0.14622654036E+03  0.20719522220E+03  0.88309514858E+02 0.  0.
          5    1    3    3  501    0 -0.62238386649E+02  0.20626244814E+02 -0.15308901446E+02  0.67494527269E+02  0.47000000000E+01 0. -1.
        -13    1    4    4    0    0  0.10954808282E+02 -0.24750756805E+02  0.21067100317E+02  0.34299132681E+02  0.00000000000E+00 0.  1.
         14    1    4    4    0    0 -0.85425248187E+01 -0.83643873879E+02 -0.69144792389E+02  0.10885896694E+03  0.00000000000E+00 0. -1.
         -5    1    5    5    0  502 -0.42540717666E+02  0.30583400346E+02  0.71497281847E+02  0.88763778355E+02  0.47000000000E+01 0.  1.
         13    1    6    6    0    0  0.99982675882E+02  0.28592587452E+02  0.14505490786E+03  0.17847968463E+03  0.00000000000E+00 0. -1.
        -14    1    6    6    0    0  0.23841449698E+01  0.28592398072E+02  0.11716325035E+01  0.28715537562E+02  0.00000000000E+00 0.  1.
</event>
<event>
12    1  0.8691829E-002  0.2355152E+03  0.7818608E-02  0.1123799E+00
         21   -1    0    0  503  502  0.00000000000E+00  0.00000000000E+00  0.83215286637E+03  0.83215286637E+03  0.00000000000E+00 0. -1.
         21   -1    0    0  501  503 -0.00000000000E+00 -0.00000000000E+00 -0.66204878428E+02  0.66204878428E+02  0.00000000000E+00 0. -1.
          6    2    1    2  501    0 -0.33289158507E+02 -0.15711800867E+03  0.44668716043E+03  0.50497209593E+03  0.17225899585E+03 0.  0.
         24    2    3    3    0    0 -0.43556986539E+02 -0.22060011942E+02  0.12003016783E+03  0.15131552298E+03  0.78136362236E+02 0.  0.
         -6    2    1    2    0  502  0.33289158507E+02  0.15711800867E+03  0.31926082751E+03  0.39338564887E+03  0.16440972000E+03 0.  0.
        -24    2    5    5    0    0  0.35039626261E+02  0.99164059553E+02  0.96259169441E+02  0.16292186894E+03  0.78844286809E+02 0.  0.
          5    1    3    3  501    0  0.10267828031E+02 -0.13505799673E+03  0.32665699260E+03  0.35365657294E+03  0.47000000000E+01 0. -1.
        -11    1    4    4    0    0  0.22409315078E+02 -0.10901250124E+02  0.27215187723E+02  0.36900963393E+02  0.00000000000E+00 0.  1.
         12    1    4    4    0    0 -0.65966301616E+02 -0.11158761819E+02  0.92814980106E+02  0.11441455959E+03  0.00000000000E+00 0. -1.
         -5    1    5    5    0  502 -0.17504677533E+01  0.57953949117E+02  0.22300165807E+03  0.23046377993E+03  0.47000000000E+01 0.  1.
         11    1    6    6    0    0  0.87681139924E+01  0.99454943484E+02  0.93004715865E+02  0.13644794898E+03  0.00000000000E+00 0. -1.
        -12    1    6    6    0    0  0.26271512268E+02 -0.29088393117E+00  0.32544535765E+01  0.26473919967E+02  0.00000000000E+00 0.  1.
</event>
<event>
12    1  0.8691829E-002  0.1912919E+03  0.7818608E-02  0.1158351E+00
         21   -1    0    0  503  502  0.00000000000E+00  0.00000000000E+00  0.61292171640E+02  0.61292171640E+02  0.00000000000E+00 0.  1.
         21   -1    0    0  501  503 -0.00000000000E+00 -0.00000000000E+00 -0.13393886924E+04  0.13393886924E+04  0.00000000000E+00 0.  1.
          6    2    1    2  501    0 -0.51003426665E+02  0.49057004293E+02 -0.11620414427E+04  0.11769368404E+04  0.17271963538E+03 0.  0.
         24    2    3    3    0    0 -0.58404566099E+02  0.57666974239E+02 -0.11585988285E+04  0.11641755693E+04  0.78847557773E+02 0.  0.
         -6    2    1    2    0  502  0.51003426665E+02 -0.49057004293E+02 -0.11605507808E+03  0.22374402370E+03  0.17772075791E+03 0.  0.
        -24    2    5    5    0    0  0.11536796314E+02  0.16648348613E+02 -0.12273248515E+03  0.14666298792E+03  0.77694941490E+02 0.  0.
          5    1    3    3  501    0  0.74011394343E+01 -0.86099699458E+01 -0.34426141683E+01  0.12761271085E+02  0.47000000000E+01 0. -1.
        -11    1    4    4    0    0  0.14675355146E+02  0.28484364476E+02 -0.47096695784E+03  0.47205571752E+03  0.00000000000E+00 0.  1.
         12    1    4    4    0    0 -0.73079921246E+02  0.29182609763E+02 -0.68763187069E+03  0.69211985176E+03  0.00000000000E+00 0. -1.
         -5    1    5    5    0  502  0.39466630351E+02 -0.65705352906E+02  0.66774070702E+01  0.77081035780E+02  0.47000000000E+01 0.  1.
         11    1    6    6    0    0  0.41814056989E+02 -0.63171613509E+01 -0.64188088852E+02  0.76866329690E+02  0.00000000000E+00 0. -1.
        -12    1    6    6    0    0 -0.30277260676E+02  0.22965509964E+02 -0.58544396299E+02  0.69796658229E+02  0.00000000000E+00 0.  1.
</event>
<event>
12    1  0.8691829E-002  0.4314757E+03  0.7818608E-02  0.1033424E+00
         21   -1    0    0  503  502  0.00000000000E+00  0.00000000000E+00  0.86035388067E+03  0.86035388067E+03  0.00000000000E+00 0.  1.
         21   -1    0    0  501  503 -0.00000000000E+00 -0.00000000000E+00 -0.30037824966E+03  0.30037824966E+03  0.00000000000E+00 0. -1.
          6    2    1    2  501    0 -0.24396894678E+03 -0.31233229261E+03 -0.27153283351E+02  0.43232920046E+03  0.17058408124E+03 0.  0.
         24    2    3    3    0    0 -0.14209004678E+03 -0.95587105868E+02 -0.37932275004E+02  0.19254583385E+03  0.79426471940E+02 0.  0.
         -6    2    1    2    0  502  0.24396894678E+03  0.31233229261E+03  0.58712891436E+03  0.72840292987E+03  0.16964126314E+03 0.  0.
        -24    2    5    5    0    0  0.37412772385E+02  0.96629026532E+02  0.14888442505E+03  0.19805052383E+03  0.79501909793E+02 0.  0.
          5    1    3    3  501    0 -0.10187890001E+03 -0.21674518674E+03  0.10778991653E+02  0.23978336661E+03  0.47000000000E+01 0. -1.
        -11    1    4    4    0    0 -0.41929102638E+02 -0.41156934650E+02  0.23230535644E+02  0.63179116044E+02  0.00000000000E+00 0.  1.
         12    1    4    4    0    0 -0.10016094414E+03 -0.54430171218E+02 -0.61162810647E+02  0.12936671781E+03  0.00000000000E+00 0. -1.
         -5    1    5    5    0  502  0.20655617440E+03  0.21570326607E+03  0.43824448931E+03  0.53035240604E+03  0.47000000000E+01 0.  1.
         13    1    6    6    0    0  0.45466052992E+02  0.26313623584E+02  0.32307332448E+02  0.61671164175E+02  0.00000000000E+00 0. -1.
        -14    1    6    6    0    0 -0.80532806072E+01  0.70315402948E+02  0.11657709261E+03  0.13637935966E+03  0.00000000000E+00 0.  1.
</event>
<event>
12    1  0.8691829E-002  0.2020308E+03  0.7818608E-02  0.1148145E+00
         21   -1    0    0  503  502  0.00000000000E+00  0.00000000000E+00  0.44356624708E+03  0.44356624708E+03  0.00000000000E+00 0.  1.
         21   -1    0    0  501  503 -0.00000000000E+00 -0.00000000000E+00 -0.16997757008E+03  0.16997757008E+03  0.00000000000E+00 0.  1.
          6    2    1    2  501    0  0.95238451550E+02 -0.36759739022E+02  0.34495741450E+03  0.39976498460E+03  0.17434099927E+03 0.  0.
         24    2    3    3    0    0  0.72934646522E+02 -0.77255938667E+02  0.14800251487E+03  0.19740213131E+03  0.75992856993E+02 0.  0.
         -6    2    1    2    0  502 -0.95238451550E+02  0.36759739022E+02 -0.71368737504E+02  0.21377883255E+03  0.17374191057E+03 0.  0.
        -24    2    5    5    0    0  0.22800551177E+01 -0.25997818580E+02 -0.18636397343E+02  0.86298795377E+02  0.80119170960E+02 0.  0.
          5    1    3    3  501    0  0.22303805028E+02  0.40496199644E+02  0.19695489963E+03  0.20236285329E+03  0.47000000000E+01 0. -1.
        -13    1    4    4    0    0 -0.14298463741E+02 -0.23320285211E+02  0.23227123726E+02  0.35885666278E+02  0.00000000000E+00 0.  1.
         14    1    4    4    0    0  0.87233110264E+02 -0.53935653456E+02  0.12477539115E+03  0.16151646503E+03  0.00000000000E+00 0. -1.
         -5    1    5    5    0  502 -0.97518506668E+02  0.62757557603E+02 -0.52732340161E+02  0.12748003717E+03  0.47000000000E+01 0.  1.
         11    1    6    6    0    0 -0.12659683075E+02 -0.14340634100E+02 -0.47819198712E+02  0.51503370059E+02  0.00000000000E+00 0. -1.
        -12    1    6    6    0    0  0.14939738193E+02 -0.11657184481E+02  0.29182801369E+02  0.34795425318E+02  0.00000000000E+00 0.  1.
</event>
<event>
12    1  0.8691829E-002  0.1901606E+03  0.7818608E-02  0.1159069E+00
         21   -1    0    0  503  502  0.00000000000E+00  0.00000000000E+00  0.33587558323E+03  0.33587558323E+03  0.00000000000E+00 0.  1.
         21   -1    0    0  501  503 -0.00000000000E+00 -0.00000000000E+00 -0.10805969754E+03  0.10805969754E+03  0.00000000000E+00 0.  1.
          6    2    1    2  501    0  0.74370844283E+02  0.20899521420E+02  0.82764766269E+02  0.20739105115E+03  0.17376198977E+03 0.  0.
         24    2    3    3    0    0  0.84399240464E+02  0.44986749483E+02  0.41920019949E+01  0.12446619016E+03  0.79543825602E+02 0.  0.
         -6    2    1    2    0  502 -0.74370844283E+02 -0.20899521420E+02  0.14505111942E+03  0.23654422962E+03  0.17013386742E+03 0.  0.
        -24    2    5    5    0    0 -0.19676890790E+02 -0.21974458319E+02  0.38033253748E+01  0.85000132531E+02  0.79627259131E+02 0.  0.
          5    1    3    3  501    0 -0.10028396181E+02 -0.24087228063E+02  0.78572764274E+02  0.82924860997E+02  0.47000000000E+01 0. -1.
        -11    1    4    4    0    0  0.54154665513E+02  0.48581787331E+02  0.35357528792E+02  0.80889261953E+02  0.00000000000E+00 0.  1.
         12    1    4    4    0    0  0.30244574952E+02 -0.35950378475E+01 -0.31165526797E+02  0.43576928204E+02  0.00000000000E+00 0. -1.
         -5    1    5    5    0  502 -0.54693953493E+02  0.10749368985E+01  0.14124779405E+03  0.15154409708E+03  0.47000000000E+01 0.  1.
         11    1    6    6    0    0 -0.81182377964E+01  0.12909685018E+02  0.34111451663E+02  0.37365182814E+02  0.00000000000E+00 0. -1.
        -12    1    6    6    0    0 -0.11558652994E+02 -0.34884143337E+02 -0.30308126289E+02  0.47634949716E+02  0.00000000000E+00 0.  1.
</event>
<event>
12    1  0.8691829E-002  0.2449837E+03  0.7818608E-02  0.1116594E+00
         21   -1    0    0  501  502  0.00000000000E+00  0.00000000000E+00  0.13622932337E+04  0.13622932337E+04  0.00000000000E+00 0. -1.
         21   -1    0    0  502  503 -0.00000000000E+00 -0.00000000000E+00 -0.44111102831E+02  0.44111102831E+02  0.00000000000E+00 0. -1.
         -6    2    1    2    0  503  0.15822540548E+03 -0.71493067554E+02  0.69946520249E+03  0.74112656550E+03  0.17283078123E+03 0.  0.
        -24    2    3    3    0    0  0.16502730294E+03 -0.44915025481E+02  0.68312800753E+03  0.70885193043E+03  0.80967983629E+02 0.  0.
          6    2    1    2  501    0 -0.15822540548E+03  0.71493067554E+02  0.61871692839E+03  0.66527777104E+03  0.17215498112E+03 0.  0.
         24    2    5    5    0    0 -0.69607650297E+02 -0.25201783541E+02  0.33647311379E+03  0.35401154794E+03  0.81422754217E+02 0.  0.
          5    1    5    5  501    0 -0.88617755178E+02  0.96694851095E+02  0.28224381460E+03  0.31126622310E+03  0.47000000000E+01 0. -1.
        -11    1    6    6    0    0 -0.63355519025E+02 -0.43307272523E+02  0.17097130889E+03  0.18740498955E+03  0.00000000000E+00 0.  1.
         12    1    6    6    0    0 -0.62521312721E+01  0.18105488983E+02  0.16550180490E+03  0.16660655840E+03  0.00000000000E+00 0. -1.
         -5    1    3    3    0  503 -0.68018974599E+01 -0.26578042074E+02  0.16337194961E+02  0.32274635067E+02  0.47000000000E+01 0.  1.
         11    1    4    4    0    0  0.69049059648E+02  0.21448564656E+02  0.24431696150E+03  0.25479126995E+03  0.00000000000E+00 0. -1.
        -12    1    4    4    0    0  0.95978243288E+02 -0.66363590137E+02  0.43881104603E+03  0.45406066048E+03  0.00000000000E+00 0.  1.
</event>
<event>
12    1  0.8691829E-002  0.1767939E+03  0.7818608E-02  0.1172991E+00
         21   -1    0    0  501  502  0.00000000000E+00  0.00000000000E+00  0.18214349575E+04  0.18214349575E+04  0.00000000000E+00 0.  1.
         21   -1    0    0  502  503 -0.00000000000E+00 -0.00000000000E+00 -0.16494069275E+02  0.16494069275E+02  0.00000000000E+00 0.  1.
         -6    2    1    2    0  503  0.21603685587E+02  0.10029125255E+02  0.84910291285E+03  0.86731299225E+03  0.17518209763E+03 0.  0.
        -24    2    3    3    0    0  0.70159471075E+02  0.30166727896E+02  0.70392450936E+03  0.71283954409E+03  0.82450699789E+02 0.  0.
          6    2    1    2  501    0 -0.21603685587E+02 -0.10029125255E+02  0.95583797541E+03  0.97061603456E+03  0.16703876414E+03 0.  0.
         24    2    5    5    0    0 -0.44570601367E+02  0.26396546638E+02  0.86027371025E+03  0.86569259786E+03  0.81667014534E+02 0.  0.
          5    1    5    5  501    0  0.22966915780E+02 -0.36425671893E+02  0.95564265161E+02  0.10492343670E+03  0.47000000000E+01 0. -1.
        -13    1    6    6    0    0  0.94124109161E+01 -0.11902833749E+02  0.43801512716E+03  0.43827790561E+03  0.00000000000E+00 0.  1.
         14    1    6    6    0    0 -0.53983012283E+02  0.38299380387E+02  0.42225858310E+03  0.42741469225E+03  0.00000000000E+00 0. -1.
         -5    1    3    3    0  503 -0.48555785488E+02 -0.20137602641E+02  0.14517840350E+03  0.15447344816E+03  0.47000000000E+01 0.  1.
         11    1    4    4    0    0  0.86009847446E+02  0.37920797161E+02  0.61950106756E+03  0.62659177574E+03  0.00000000000E+00 0. -1.
        -12    1    4    4    0    0 -0.15850376371E+02 -0.77540692646E+01  0.84423441792E+02  0.86247768350E+02  0.00000000000E+00 0.  1.
</event>
<event>
12    1  0.8691829E-002  0.2073064E+03  0.7818608E-02  0.1144240E+00
         21   -1    0    0  501  502  0.00000000000E+00  0.00000000000E+00  0.17082735011E+02  0.17082735011E+02  0.00000000000E+00 0. -1.
         21   -1    0    0  502  503 -0.00000000000E+00 -0.00000000000E+00 -0.27459510255E+04  0.27459510255E+04  0.00000000000E+00 0. -1.
         -6    2    1    2    0  503 -0.14701796252E+02 -0.11435822338E+03 -0.17984390693E+04  0.18103477699E+04  0.17228469462E+03 0.  0.
        -24    2    3    3    0    0  0.36485805412E+02 -0.12441862800E+03 -0.14488942883E+04  0.14569004242E+04  0.80330431590E+02 0.  0.
          6    2    1    2  501    0  0.14701796252E+02  0.11435822338E+03 -0.93042922115E+03  0.95268599055E+03  0.16916889477E+03 0.  0.
         24    2    5    5    0    0 -0.97923683659E+01 -0.24661876875E+01 -0.29167309025E+03  0.30285571126E+03  0.80909935777E+02 0.  0.
          5    1    5    5  501    0  0.24494164618E+02  0.11682441107E+03 -0.63875613090E+03  0.64983027929E+03  0.47000000000E+01 0. -1.
        -13    1    6    6    0    0 -0.40399319956E+02 -0.15676646076E+02 -0.21379733993E+03  0.21814482539E+03  0.00000000000E+00 0.  1.
         14    1    6    6    0    0  0.30606951590E+02  0.13210458388E+02 -0.77875750323E+02  0.84710885870E+02  0.00000000000E+00 0. -1.
         -5    1    3    3    0  503 -0.51187601664E+02  0.10060404618E+02 -0.34954478097E+03  0.35344734574E+03  0.47000000000E+01 0.  1.
         11    1    4    4    0    0 -0.15922887746E+02 -0.67480909453E+02 -0.48886438316E+03  0.49375661678E+03  0.00000000000E+00 0. -1.
        -12    1    4    4    0    0  0.52408693158E+02 -0.56937718547E+02 -0.96002990518E+03  0.96314380741E+03  0.00000000000E+00 0.  1.
</event>
<event>
12    1  0.8691829E-002  0.2139238E+03  0.7818608E-02  0.1138743E+00
         21   -1    0    0  503  502  0.00000000000E+00  0.00000000000E+00  0.51911174549E+02  0.51911174549E+02  0.00000000000E+00 0. -1.
         21   -1    0    0  501  503 -0.00000000000E+00 -0.00000000000E+00 -0.13270247375E+04  0.13270247375E+04  0.00000000000E+00 0. -1.
          6    2    1    2  501    0 -0.85197805013E+02  0.83360404704E+02 -0.10406143111E+04  0.10623754176E+04  0.17763941114E+03 0.  0.
         24    2    3    3    0    0 -0.83898571383E+02  0.20782009259E+02 -0.90764287216E+03  0.91533380049E+03  0.80929109468E+02 0.  0.
         -6    2    1    2    0  502  0.85197805013E+02 -0.83360404704E+02 -0.23449925187E+03  0.31656049447E+03  0.17610515178E+03 0.  0.
        -24    2    5    5    0    0  0.73798628275E+01 -0.10056312051E+03 -0.11435138860E+03  0.17230667440E+03  0.80286651360E+02 0.  0.
          5    1    3    3  501    0 -0.12992336295E+01  0.62578395445E+02 -0.13297143892E+03  0.14704161708E+03  0.47000000000E+01 0. -1.
        -13    1    4    4    0    0 -0.55544165205E+01 -0.25486136859E+02 -0.26523664640E+03  0.26651617832E+03  0.00000000000E+00 0.  1.
         14    1    4    4    0    0 -0.78344154863E+02  0.46268146118E+02 -0.64240622576E+03  0.64881762217E+03  0.00000000000E+00 0. -1.
         -5    1    5    5    0  502  0.77817942185E+02  0.17202715804E+02 -0.12014786327E+03  0.14425382007E+03  0.47000000000E+01 0.  1.
         13    1    6    6    0    0 -0.21938573911E+02 -0.36345552927E+02 -0.58400748741E+01  0.42853316293E+02  0.00000000000E+00 0. -1.
        -14    1    6    6    0    0  0.29318436739E+02 -0.64217567582E+02 -0.10851131372E+03  0.12945335810E+03  0.00000000000E+00 0.  1.
</event>
<event>
12    1  0.8691829E-002  0.1767169E+03  0.7818608E-02  0.1171317E+00
         21   -1    0    0  503  502  0.00000000000E+00  0.00000000000E+00  0.21972096043E+03  0.21972096043E+03  0.00000000000E+00 0. -1.
         21   -1    0    0  501  503 -0.00000000000E+00 -0.00000000000E+00 -0.16916562565E+03  0.16916562565E+03  0.00000000000E+00 0. -1.
          6    2    1    2  501    0 -0.97806123253E+01 -0.36837260329E+02 -0.53898735098E+02  0.18360749611E+03  0.17133007575E+03 0.  0.
         24    2    3    3    0    0 -0.46686961442E+02 -0.43873925485E+02 -0.86406519732E+02  0.13370319446E+03  0.79409469518E+02 0.  0.
         -6    2    1    2    0  502  0.97806123253E+01  0.36837260329E+02  0.10445406988E+03  0.20527908997E+03  0.17255783940E+03 0.  0.
        -24    2    5    5    0    0  0.15915059624E+01 -0.46087667168E+02  0.62068658445E+02  0.11167236924E+03  0.80570427166E+02 0.  0.
          5    1    3    3  501    0  0.36906349117E+02  0.70366651555E+01  0.32507784634E+02  0.49904301653E+02  0.47000000000E+01 0. -1.
        -13    1    4    4    0    0 -0.39120708675E+02 -0.21186128768E+01 -0.82201025000E+02  0.91060018004E+02  0.00000000000E+00 0.  1.
         14    1    4    4    0    0 -0.75662527670E+01 -0.41755312608E+02 -0.42054947322E+01  0.42643176451E+02  0.00000000000E+00 0. -1.
         -5    1    5    5    0  502  0.81891063629E+01  0.82924927497E+02  0.42385411435E+02  0.93606720731E+02  0.47000000000E+01 0.  1.
         13    1    6    6    0    0  0.99786463199E+01  0.21399823677E+02  0.24297362546E+02  0.33880490884E+02  0.00000000000E+00 0. -1.
        -14    1    6    6    0    0 -0.83871403576E+01 -0.67487490845E+02  0.37771295899E+02  0.77791878354E+02  0.00000000000E+00 0.  1.
</event>
<event>
12    1  0.8691829E-002  0.1994283E+03  0.7818608E-02  0.1150252E+00
         21   -1    0    0  501  502  0.00000000000E+00  0.00000000000E+00  0.82516453150E+02  0.82516453150E+02  0.00000000000E+00 0.  1.
         21   -1    0    0  502  503 -0.00000000000E+00 -0.00000000000E+00 -0.71716283564E+03  0.71716283564E+03  0.00000000000E+00 0.  1.
         -6    2    1    2    0  503  0.21916665662E+02 -0.96659575261E+02 -0.54653268767E+03  0.58178143089E+03  0.17305560066E+03 0.  0.
        -24    2    3    3    0    0  0.66602059540E+02 -0.77891798609E+02 -0.49262435799E+03  0.50913701008E+03  0.77709525302E+02 0.  0.
          6    2    1    2  501    0 -0.21916665662E+02  0.96659575261E+02 -0.88113694818E+02  0.21789785789E+03  0.17289314485E+03 0.  0.
         24    2    5    5    0    0 -0.58016494725E+02  0.80972244411E+02 -0.11420063714E+03  0.17044357919E+03  0.78018011624E+02 0.  0.
          5    1    5    5  501    0  0.36099829062E+02  0.15687330851E+02  0.26086942324E+02  0.47454278705E+02  0.47000000000E+01 0. -1.
        -11    1    6    6    0    0 -0.71372764999E+01  0.27447616088E+02  0.63583975316E+01  0.29064438132E+02  0.00000000000E+00 0.  1.
         12    1    6    6    0    0 -0.50879218225E+02  0.53524628322E+02 -0.12055903467E+03  0.14137914106E+03  0.00000000000E+00 0. -1.
         -5    1    3    3    0  503 -0.44685393878E+02 -0.18767776653E+02 -0.53908329674E+02  0.72644420809E+02  0.47000000000E+01 0.  1.
         11    1    4    4    0    0  0.27126237193E+00 -0.31890163360E+02 -0.50665095370E+02  0.59866584931E+02  0.00000000000E+00 0. -1.
        -12    1    4    4    0    0  0.66330797168E+02 -0.46001635249E+02 -0.44195926262E+03  0.44927042515E+03  0.00000000000E+00 0.  1.
</event>
<event>
12    1  0.8691829E-002  0.2265006E+03  0.7818608E-02  0.1129166E+00
         21   -1    0    0  501  502  0.00000000000E+00  0.00000000000E+00  0.15156037356E+03  0.15156037356E+03  0.00000000000E+00 0. -1.
         21   -1    0    0  502  503 -0.00000000000E+00 -0.00000000000E+00 -0.33838254716E+03  0.33838254716E+03  0.00000000000E+00 0.  1.
         -6    2    1    2    0  503  0.14438435369E+03 -0.25580779037E+02 -0.99494653410E+02  0.24719072292E+03  0.17234514670E+03 0.  0.
        -24    2    3    3    0    0  0.77996157237E+02  0.37341276848E+02 -0.60515911996E+01  0.11634625945E+03  0.77601925435E+02 0.  0.
          6    2    1    2  501    0 -0.14438435369E+03  0.25580779037E+02 -0.87327520190E+02  0.24275219780E+03  0.17263057639E+03 0.  0.
         24    2    5    5    0    0 -0.10019430156E+03  0.84498375699E+02 -0.56568434662E+02  0.16280061716E+03  0.78263526542E+02 0.  0.
          5    1    5    5  501    0 -0.44190052137E+02 -0.58917596662E+02 -0.30759085528E+02  0.79951580640E+02  0.47000000000E+01 0. -1.
        -13    1    6    6    0    0 -0.57066467260E+02  0.22803108843E+02 -0.62043617558E+02  0.87326822558E+02  0.00000000000E+00 0.  1.
         14    1    6    6    0    0 -0.43127834297E+02  0.61695266856E+02  0.54751828962E+01  0.75473794600E+02  0.00000000000E+00 0. -1.
         -5    1    3    3    0  503  0.66388196457E+02 -0.62922055886E+02 -0.93443062210E+02  0.13084446347E+03  0.47000000000E+01 0.  1.
         11    1    4    4    0    0  0.87156876998E+02  0.11856508331E+02  0.23522033846E+01  0.87991083972E+02  0.00000000000E+00 0. -1.
        -12    1    4    4    0    0 -0.91607197606E+01  0.25484768517E+02 -0.84037945842E+01  0.28355175477E+02  0.00000000000E+00 0.  1.
</event>
<event>
12    1  0.8691829E-002  0.2980867E+03  0.7818608E-02  0.1086280E+00
         21   -1    0    0  503  502  0.00000000000E+00  0.00000000000E+00  0.29709306645E+02  0.29709306645E+02  0.00000000000E+00 0.  1.
         21   -1    0    0  501  503 -0.00000000000E+00 -0.00000000000E+00 -0.31222249997E+04  0.31222249997E+04  0.00000000000E+00 0. -1.
          6    2    1    2  501    0 -0.24032569023E+03  0.35608844311E+02 -0.18755959023E+04  0.18990378701E+04  0.17164036924E+03 0.  0.
         24    2    3    3    0    0 -0.89116716579E+02  0.67577537287E+02 -0.71193184279E+03  0.72514593116E+03  0.80505651784E+02 0.  0.
         -6    2    1    2    0  502  0.24032569023E+03 -0.35608844311E+02 -0.12169197908E+04  0.12528964362E+04  0.17271732840E+03 0.  0.
        -24    2    5    5    0    0  0.49504809936E+02 -0.38150661654E+02 -0.48845749181E+03  0.49983702275E+03  0.85674551763E+02 0.  0.
          5    1    3    3  501    0 -0.15120897365E+03 -0.31968692976E+02 -0.11636640595E+04  0.11738919390E+04  0.47000000000E+01 0. -1.
        -13    1    4    4    0    0 -0.88777269952E+02  0.39639771519E+02 -0.64964039782E+03  0.65687545366E+03  0.00000000000E+00 0.  1.
         14    1    4    4    0    0 -0.33944662638E+00  0.27937765768E+02 -0.62291444973E+02  0.68270477492E+02  0.00000000000E+00 0. -1.
         -5    1    5    5    0  502  0.19082088029E+03  0.25418173429E+01 -0.72846229898E+03  0.75305941348E+03  0.47000000000E+01 0.  1.
         11    1    6    6    0    0  0.47091541729E+01  0.26581099913E+02 -0.14277314719E+03  0.14530279613E+03  0.00000000000E+00 0. -1.
        -12    1    6    6    0    0  0.44795655763E+02 -0.64731761567E+02 -0.34568434462E+03  0.35453422662E+03  0.00000000000E+00 0.  1.
</event>
<event>
12    1  0.8691829E-002  0.2440862E+03  0.7818608E-02  0.1117722E+00
         21   -1    0    0  501  502  0.00000000000E+00  0.00000000000E+00  0.46632700892E+03  0.46632700892E+03  0.00000000000E+00 0.  1.
         21   -1    0    0  502  503 -0.00000000000E+00 -0.00000000000E+00 -0.15655445268E+03  0.15655445268E+03  0.00000000000E+00 0.  1.
         -6    2    1    2    0  503 -0.16843037219E+03  0.79301016052E+01  0.17796098411E+02  0.24473409064E+03  0.17648341910E+03 0.  0.
        -24    2    3    3    0    0 -0.10298184411E+03  0.70220122973E+02 -0.16449699785E+02  0.14799515699E+03  0.78075911672E+02 0.  0.
          6    2    1    2  501    0  0.16843037219E+03 -0.79301016052E+01  0.29197645783E+03  0.37814737095E+03  0.17121187297E+03 0.  0.
         24    2    5    5    0    0  0.68289350227E+02  0.58583298996E+02  0.14783337589E+03  0.19039334354E+03  0.79369263328E+02 0.  0.
          5    1    5    5  501    0  0.10014102196E+03 -0.66513400602E+02  0.14414308194E+03  0.18775402742E+03  0.47000000000E+01 0. -1.
        -11    1    6    6    0    0  0.56234679201E+02  0.33610103215E+02  0.35148295094E+02  0.74346357214E+02  0.00000000000E+00 0.  1.
         12    1    6    6    0    0  0.12054671025E+02  0.24973195781E+02  0.11268508080E+03  0.11604698632E+03  0.00000000000E+00 0. -1.
         -5    1    3    3    0  503 -0.65448528080E+02 -0.62290021367E+02  0.34245798196E+02  0.96738933651E+02  0.47000000000E+01 0.  1.
         11    1    4    4    0    0 -0.11035917001E+03  0.48751901765E+02 -0.12104145267E+01  0.12065388280E+03  0.00000000000E+00 0. -1.
        -12    1    4    4    0    0  0.73773259014E+01  0.21468221208E+02 -0.15239285259E+02  0.27341274192E+02  0.00000000000E+00 0.  1.
</event>
<event>
12    1  0.8691829E-002  0.1945154E+03  0.7818608E-02  0.1156286E+00
         21   -1    0    0  501  502  0.00000000000E+00  0.00000000000E+00  0.83605325419E+03  0.83605325419E+03  0.00000000000E+00 0.  1.
         21   -1    0    0  502  503 -0.00000000000E+00 -0.00000000000E+00 -0.44528532055E+02  0.44528532055E+02  0.00000000000E+00 0.  1.
         -6    2    1    2    0  503 -0.60387093453E+02 -0.76951213470E+02  0.31638118777E+03  0.36716420347E+03  0.15856987743E+03 0.  0.
        -24    2    3    3    0    0 -0.59454043132E+02  0.92748069870E+01  0.18586475387E+03  0.21066363893E+03  0.78820408175E+02 0.  0.
          6    2    1    2  501    0  0.60387093453E+02  0.76951213470E+02  0.47514353437E+03  0.51341758277E+03  0.16813133478E+03 0.  0.
         24    2    5    5    0    0  0.88372897248E+02  0.10186870322E+03  0.38662284895E+03  0.41717783912E+03  0.79831826152E+02 0.  0.
          5    1    5    5  501    0 -0.27985803795E+02 -0.24917489749E+02  0.88520685424E+02  0.96239743647E+02  0.47000000000E+01 0. -1.
        -13    1    6    6    0    0  0.82118743627E+01  0.49038767612E+02  0.21354147882E+03  0.21925373152E+03  0.00000000000E+00 0.  1.
         14    1    6    6    0    0  0.80161022885E+02  0.52829935607E+02  0.17308137013E+03  0.19792410761E+03  0.00000000000E+00 0. -1.
         -5    1    3    3    0  503 -0.93305032188E+00 -0.86226020457E+02  0.13051643390E+03  0.15650056455E+03  0.47000000000E+01 0.  1.
         13    1    4    4    0    0  0.85972556142E+01  0.34165558987E+01  0.10238378223E+03  0.10280089748E+03  0.00000000000E+00 0. -1.
        -14    1    4    4    0    0 -0.68051298746E+02  0.58582510883E+01  0.83480971640E+02  0.10786274145E+03  0.00000000000E+00 0.  1.
</event>
<event>
12    1  0.8691829E-002  0.1934579E+03  0.7818608E-02  0.1155907E+00
         21   -1    0    0  501  502  0.00000000000E+00  0.00000000000E+00  0.28746388763E+03  0.28746388763E+03  0.00000000000E+00 0.  1.
         21   -1    0    0  502  503 -0.00000000000E+00 -0.00000000000E+00 -0.15929001328E+03  0.15929001328E+03  0.00000000000E+00 0.  1.
         -6    2    1    2    0  503  0.30708857880E+02  0.79934921388E+02 -0.33646053548E+02  0.19636195232E+03  0.17347430297E+03 0.  0.
        -24    2    3    3    0    0 -0.53472742230E+01 -0.22857204707E+02 -0.18423456249E+02  0.86270702360E+02  0.80945445807E+02 0.  0.
          6    2    1    2  501    0 -0.30708857880E+02 -0.79934921388E+02  0.16181992790E+03  0.25039194859E+03  0.17081514348E+03 0.  0.
         24    2    5    5    0    0 -0.28894825320E+02 -0.10216030158E+03  0.17853810032E+03  0.22212809308E+03  0.78698146876E+02 0.  0.
          5    1    5    5  501    0 -0.18140325601E+01  0.22225380194E+02 -0.16718172419E+02  0.28263855504E+02  0.47000000000E+01 0. -1.
        -11    1    6    6    0    0  0.18402234806E+02 -0.44345043111E+02  0.11291956623E+03  0.12270270385E+03  0.00000000000E+00 0.  1.
         12    1    6    6    0    0 -0.47297060126E+02 -0.57815258471E+02  0.65618534094E+02  0.99425389239E+02  0.00000000000E+00 0. -1.
         -5    1    3    3    0  503  0.36056132103E+02  0.10279212609E+03 -0.15222597299E+02  0.11009124996E+03  0.47000000000E+01 0.  1.
         13    1    4    4    0    0  0.32857095699E+01  0.72825802842E+01  0.28632860812E+02  0.29726630842E+02  0.00000000000E+00 0. -1.
        -14    1    4    4    0    0 -0.86329837928E+01 -0.30139784991E+02 -0.47056317061E+02  0.56544071518E+02  0.00000000000E+00 0.  1.
</event>
<event>
12    1  0.8691829E-002  0.1791329E+03  0.7818608E-02  0.1169745E+00
         21   -1    0    0  501  502  0.00000000000E+00  0.00000000000E+00  0.21485682977E+03  0.21485682977E+03  0.00000000000E+00 0. -1.
         21   -1    0    0  502  503 -0.00000000000E+00 -0.00000000000E+00 -0.14686952704E+03  0.14686952704E+03  0.00000000000E+00 0. -1.
         -6    2    1    2    0  503  0.78172092303E+01  0.33841707765E+02  0.50003712901E+02  0.18169304690E+03  0.17118884906E+03 0.  0.
        -24    2    3    3    0    0  0.65612663022E+02 -0.27568383273E+01  0.22752908208E+02  0.10790643286E+03  0.82543816933E+02 0.  0.
          6    2    1    2  501    0 -0.78172092303E+01 -0.33841707765E+02  0.17983589826E+02  0.18003330991E+03  0.17573335833E+03 0.  0.
         24    2    5    5    0    0 -0.34070361381E+02 -0.64173558002E+02 -0.34732716305E+02  0.11362285841E+03  0.80154583768E+02 0.  0.
          5    1    5    5  501    0  0.26253152151E+02  0.30331850237E+02  0.52716306131E+02  0.66410451502E+02  0.47000000000E+01 0. -1.
        -11    1    6    6    0    0 -0.17010352232E+02 -0.78497508894E+02 -0.10992726456E+02  0.81068187476E+02  0.00000000000E+00 0.  1.
         12    1    6    6    0    0 -0.17060009150E+02  0.14323950892E+02 -0.23739989849E+02  0.32554670930E+02  0.00000000000E+00 0. -1.
         -5    1    3    3    0  503 -0.57795453791E+02  0.36598546093E+02  0.27250804693E+02  0.73786614040E+02  0.47000000000E+01 0.  1.
         13    1    4    4    0    0 -0.10958710748E+02  0.20481110759E+02 -0.39223713219E+01  0.23557466671E+02  0.00000000000E+00 0. -1.
        -14    1    4    4    0    0  0.76571373770E+02 -0.23237949086E+02  0.26675279530E+02  0.84348966187E+02  0.00000000000E+00 0.  1.
</event>
<event>
12    1  0.8691829E-002  0.2020411E+03  0.7818608E-02  0.1148131E+00
         21   -1    0    0  501  502  0.00000000000E+00  0.00000000000E+00  0.21727952465E+03  0.21727952465E+03  0.00000000000E+00 0. -1.
         21   -1    0    0  502  503 -0.00000000000E+00 -0.00000000000E+00 -0.24324295255E+03  0.24324295255E+03  0.00000000000E+00 0. -1.
         -6    2    1    2    0  503 -0.99774148868E+02 -0.31689363859E+02 -0.12331017477E+03  0.23669809358E+03  0.17280477927E+03 0.  0.
        -24    2    3    3    0    0 -0.71904486605E+02 -0.29178442617E+02  0.85626065454E+00  0.10933084314E+03  0.77012098860E+02 0.  0.
          6    2    1    2  501    0  0.99774148868E+02  0.31689363859E+02  0.97346746873E+02  0.22382438363E+03  0.17222621466E+03 0.  0.
         24    2    5    5    0    0  0.13032187948E+03  0.86477077134E+01  0.47725441085E+02  0.16098772433E+03  0.81121849954E+02 0.  0.
          5    1    5    5  501    0 -0.30547730607E+02  0.23041656146E+02  0.49621305787E+02  0.62836659294E+02  0.47000000000E+01 0. -1.
        -11    1    6    6    0    0  0.44122622431E+02 -0.10760445082E+02 -0.20035681964E+02  0.49638911554E+02  0.00000000000E+00 0.  1.
         12    1    6    6    0    0  0.86199257045E+02  0.19408152795E+02  0.67761123050E+02  0.11134881278E+03  0.00000000000E+00 0. -1.
         -5    1    3    3    0  503 -0.27869662264E+02 -0.25109212420E+01 -0.12416643543E+03  0.12736725045E+03  0.47000000000E+01 0.  1.
         11    1    4    4    0    0 -0.84294580633E+02 -0.34697727001E+02 -0.10342537377E+02  0.91741357427E+02  0.00000000000E+00 0. -1.
        -12    1    4    4    0    0  0.12390094028E+02  0.55192843835E+01  0.11198798031E+02  0.17589485708E+02  0.00000000000E+00 0.  1.
</event>
<event>
12    1  0.8691829E-002  0.2058833E+03  0.7818608E-02  0.1145014E+00
         21   -1    0    0  501  502  0.00000000000E+00  0.00000000000E+00  0.85903936025E+02  0.85903936025E+02  0.00000000000E+00 0.  1.
         21   -1    0    0  502  503 -0.00000000000E+00 -0.00000000000E+00 -0.12667896783E+04  0.12667896783E+04  0.00000000000E+00 0.  1.
         -6    2    1    2    0  503  0.10786643665E+03  0.34425467672E+02 -0.11198836196E+04  0.11386515118E+04  0.17195250197E+03 0.  0.
        -24    2    3    3    0    0  0.56653347277E+02  0.51871727656E+02 -0.35430803066E+03  0.37115217964E+03  0.79495169505E+02 0.  0.
          6    2    1    2  501    0 -0.10786643665E+03 -0.34425467672E+02 -0.61002122688E+02  0.21404210252E+03  0.17109202699E+03 0.  0.
         24    2    5    5    0    0 -0.10928640415E+03  0.31381165711E+02 -0.28639749367E+02  0.14054419431E+03  0.77486383417E+02 0.  0.
          5    1    5    5  501    0  0.14199675010E+01 -0.65806633383E+02 -0.32362373322E+02  0.73497908215E+02  0.47000000000E+01 0. -1.
        -13    1    6    6    0    0 -0.86481962528E+02 -0.24339118262E+01  0.64288160132E+01  0.86754731541E+02  0.00000000000E+00 0.  1.
         14    1    6    6    0    0 -0.22804441626E+02  0.33815077537E+02 -0.35068565380E+02  0.53789462765E+02  0.00000000000E+00 0. -1.
         -5    1    3    3    0  503  0.51213089376E+02 -0.17446259984E+02 -0.76557558890E+03  0.76749933214E+03  0.47000000000E+01 0.  1.
         13    1    4    4    0    0 -0.15291174133E+02 -0.23781793810E+01 -0.10347704352E+03  0.10462778923E+03  0.00000000000E+00 0. -1.
        -14    1    4    4    0    0  0.71944521410E+02  0.54249907037E+02 -0.25083098714E+03  0.26652439041E+03  0.00000000000E+00 0.  1.
</event>
<event>
12    1  0.8691829E-002  0.2629635E+03  0.7818608E-02  0.1105592E+00
         21   -1    0    0  501  502  0.00000000000E+00  0.00000000000E+00  0.21367394310E+03  0.21367394310E+03  0.00000000000E+00 0. -1.
         21   -1    0    0  502  503 -0.00000000000E+00 -0.00000000000E+00 -0.33773060589E+03  0.33773060589E+03  0.00000000000E+00 0.  1.
         -6    2    1    2    0  503  0.19619276669E+03 -0.24491710653E+02 -0.12167672210E+03  0.28843032290E+03  0.17115893456E+03 0.  0.
        -24    2    3    3    0    0  0.21723625942E+03 -0.38247585182E+02 -0.11756937728E+03  0.26252640520E+03  0.80268828164E+02 0.  0.
          6    2    1    2  501    0 -0.19619276669E+03  0.24491710653E+02 -0.23799406860E+01  0.26297422608E+03  0.17337339437E+03 0.  0.
         24    2    5    5    0    0 -0.97259307105E+02  0.52520518784E+02  0.54844840090E+02  0.14520237442E+03  0.76537542033E+02 0.  0.
          5    1    5    5  501    0 -0.98933459580E+02 -0.28028808131E+02 -0.57224780776E+02  0.11777185167E+03  0.47000000000E+01 0. -1.
        -13    1    6    6    0    0 -0.15342667175E+02  0.22847273818E+02 -0.16937366578E+02  0.32315162750E+02  0.00000000000E+00 0.  1.
         14    1    6    6    0    0 -0.81916639930E+02  0.29673244966E+02  0.71782206668E+02  0.11288721167E+03  0.00000000000E+00 0. -1.
         -5    1    3    3    0  503 -0.21043492738E+02  0.13755874529E+02 -0.41073448176E+01  0.25903917698E+02  0.47000000000E+01 0.  1.
         11    1    4    4    0    0  0.15285132455E+03 -0.54143068985E+02 -0.54673320678E+02  0.17112618540E+03  0.00000000000E+00 0. -1.
        -12    1    4    4    0    0  0.64384934875E+02  0.15895483803E+02 -0.62896056604E+02  0.91400219806E+02  0.00000000000E+00 0.  1.
</event>
<event>
12    1  0.8691829E-002  0.2068479E+03  0.7818608E-02  0.1144488E+00
         21   -1    0    0  503  502  0.00000000000E+00  0.00000000000E+00  0.14391943526E+03  0.14391943526E+03  0.00000000000E+00 0.  1.
         21   -1    0    0  501  503 -0.00000000000E+00 -0.00000000000E+00 -0.34986017073E+03  0.34986017073E+03  0.00000000000E+00 0.  1.
          6    2    1    2  501    0 -0.52696642666E+01 -0.11440694858E+03 -0.20163204104E+03  0.28886248106E+03  0.17224788459E+03 0.  0.
         24    2    3    3    0    0 -0.38601919534E+02 -0.13146441649E+03 -0.19297996830E+03  0.25014627237E+03  0.80986964505E+02 0.  0.
         -6    2    1    2    0  502  0.52696642666E+01  0.11440694858E+03 -0.43086944416E+01  0.20491712493E+03  0.16986978541E+03 0.  0.
        -24    2    5    5    0    0 -0.52980627114E+02  0.84239663948E+02  0.28077724676E+02  0.13160865576E+03  0.81419971858E+02 0.  0.
          5    1    3    3  501    0  0.33332255268E+02  0.17057467907E+02 -0.86520727338E+01  0.38716208689E+02  0.47000000000E+01 0. -1.
        -11    1    4    4    0    0 -0.42209925630E+02 -0.89957601906E+02 -0.18151516074E+03  0.20693429281E+03  0.00000000000E+00 0.  1.
         12    1    4    4    0    0  0.36080060960E+01 -0.41506814586E+02 -0.11464807561E+02  0.43211979560E+02  0.00000000000E+00 0. -1.
         -5    1    5    5    0  502  0.58250291381E+02  0.30167284636E+02 -0.32386419117E+02  0.73308469166E+02  0.47000000000E+01 0.  1.
         11    1    6    6    0    0 -0.13899688481E+02  0.29229949273E+02  0.50947878032E+02  0.60359568838E+02  0.00000000000E+00 0. -1.
        -12    1    6    6    0    0 -0.39080938633E+02  0.55009714676E+02 -0.22870153356E+02  0.71249086925E+02  0.00000000000E+00 0.  1.
</event>
<event>
12    1  0.8691829E-002  0.1741048E+03  0.7818608E-02  0.1173773E+00
         21   -1    0    0  503  502  0.00000000000E+00  0.00000000000E+00  0.21270595763E+03  0.21270595763E+03  0.00000000000E+00 0. -1.
         21   -1    0    0  501  503 -0.00000000000E+00 -0.00000000000E+00 -0.14206123423E+03  0.14206123423E+03  0.00000000000E+00 0. -1.
          6    2    1    2  501    0 -0.21766727292E+02 -0.14547278918E+02  0.35950841356E+02  0.17777781890E+03  0.17212517584E+03 0.  0.
         24    2    3    3    0    0 -0.37650343747E+02 -0.36140551636E+02 -0.33979729148E+02  0.10273827340E+03  0.81711951214E+02 0.  0.
         -6    2    1    2    0  502  0.21766727292E+02  0.14547278918E+02  0.34693882036E+02  0.17698937296E+03  0.17156969123E+03 0.  0.
        -24    2    5    5    0    0  0.21762392533E+01  0.66181684974E+02  0.68514629817E+02  0.11205993363E+03  0.58978155143E+02 0.  0.
          5    1    3    3  501    0  0.15883616455E+02  0.21593272718E+02  0.69930570504E+02  0.75039545503E+02  0.47000000000E+01 0. -1.
        -13    1    4    4    0    0  0.24411165993E+02 -0.17855349753E+02 -0.13443901343E+01  0.30274179176E+02  0.00000000000E+00 0.  1.
         14    1    4    4    0    0 -0.62061509740E+02 -0.18285201883E+02 -0.32635339013E+02  0.72464094223E+02  0.00000000000E+00 0. -1.
         -5    1    5    5    0  502  0.19590488039E+02 -0.51634406056E+02 -0.33820747781E+02  0.64929439323E+02  0.47000000000E+01 0.  1.
         13    1    6    6    0    0 -0.16559204651E+02  0.13785156126E+02  0.48245107524E+02  0.52837753435E+02  0.00000000000E+00 0. -1.
        -14    1    6    6    0    0  0.18735443905E+02  0.52396528848E+02  0.20269522293E+02  0.59222180200E+02  0.00000000000E+00 0.  1.
</event>
<event>
12    1  0.8691829E-002  0.1786108E+03  0.7818608E-02  0.1169396E+00
         21   -1    0    0  503  502  0.00000000000E+00  0.00000000000E+00  0.13877792702E+04  0.13877792702E+04  0.00000000000E+00 0. -1.
         21   -1    0    0  501  503 -0.00000000000E+00 -0.00000000000E+00 -0.39127047576E+02  0.39127047576E+02  0.00000000000E+00 0. -1.
          6    2    1    2  501    0 -0.24218342878E+02 -0.41360868860E+02  0.21322968814E+03  0.27752120645E+03  0.17103762896E+03 0.  0.
         24    2    3    3    0    0 -0.78110030653E+02 -0.55283810881E+02  0.15488775366E+03  0.19674971615E+03  0.74583898658E+02 0.  0.
         -6    2    1    2    0  502  0.24218342878E+02  0.41360868860E+02  0.11354225345E+04  0.11493851114E+04  0.17205973592E+03 0.  0.
        -24    2    5    5    0    0 -0.98885794000E+01  0.88075737018E+02  0.81915526225E+03  0.82783785424E+03  0.80281067430E+02 0.  0.
          5    1    3    3  501    0  0.53891687775E+02  0.13922942021E+02  0.58341934486E+02  0.80771490301E+02  0.47000000000E+01 0. -1.
        -11    1    4    4    0    0 -0.34754855958E+02  0.82676425573E+01  0.18670514874E+02  0.40309329588E+02  0.00000000000E+00 0.  1.
         12    1    4    4    0    0 -0.43355174695E+02 -0.63551453438E+02  0.13621723878E+03  0.15644038657E+03  0.00000000000E+00 0. -1.
         -5    1    5    5    0  502  0.34106922278E+02 -0.46714868158E+02  0.31626727227E+03  0.32154725712E+03  0.47000000000E+01 0.  1.
         13    1    6    6    0    0  0.31147024165E+02  0.61700563481E+02  0.40999568425E+03  0.41578066063E+03  0.00000000000E+00 0. -1.
        -14    1    6    6    0    0 -0.41035603565E+02  0.26375173537E+02  0.40915957800E+03  0.41205719361E+03  0.00000000000E+00 0.  1.
</event>
<event>
12    1  0.8691829E-002  0.2162711E+03  0.7818608E-02  0.1138089E+00
         21   -1    0    0  503  502  0.00000000000E+00  0.00000000000E+00  0.70629626585E+03  0.70629626585E+03  0.00000000000E+00 0. -1.
         21   -1    0    0  501  503 -0.00000000000E+00 -0.00000000000E+00 -0.72925602994E+02  0.72925602994E+02  0.00000000000E+00 0. -1.
          6    2    1    2  501    0 -0.11702049777E+03  0.28934436191E+02  0.17600282138E+03  0.27329842847E+03  0.17083336727E+03 0.  0.
         24    2    3    3    0    0 -0.12102511799E+03 -0.34500565806E+02  0.14158772343E+03  0.20086552553E+03  0.66802003677E+02 0.  0.
         -6    2    1    2    0  502  0.11702049777E+03 -0.28934436191E+02  0.45736784148E+03  0.50592344038E+03  0.17956109436E+03 0.  0.
        -24    2    5    5    0    0  0.69479826397E+02  0.55061808889E+02  0.23435041800E+03  0.26287129413E+03  0.79510689749E+02 0.  0.
          5    1    3    3  501    0  0.40046202135E+01  0.63435001997E+02  0.34415097951E+02  0.72432902940E+02  0.47000000000E+01 0. -1.
        -11    1    4    4    0    0 -0.26072286508E+02 -0.28367515645E+02  0.76281033378E+02  0.85459207349E+02  0.00000000000E+00 0.  1.
         12    1    4    4    0    0 -0.94952831479E+02 -0.61330501608E+01  0.65306690052E+02  0.11540631818E+03  0.00000000000E+00 0. -1.
         -5    1    5    5    0  502  0.47540671376E+02 -0.83996245080E+02  0.22301742347E+03  0.24305214625E+03  0.47000000000E+01 0.  1.
         13    1    6    6    0    0  0.62496531628E+02  0.43054297630E+02  0.23689081848E+03  0.24875037465E+03  0.00000000000E+00 0. -1.
        -14    1    6    6    0    0  0.69832947689E+01  0.12007511258E+02 -0.25404004706E+01  0.14120919481E+02  0.00000000000E+00 0.  1.
</event>
<event>
12    1  0.8691829E-002  0.1824586E+03  0.7818608E-02  0.1165727E+00
         21   -1    0    0  503  502  0.00000000000E+00  0.00000000000E+00  0.64766107961E+03  0.64766107961E+03  0.00000000000E+00 0.  1.
         21   -1    0    0  501  503 -0.00000000000E+00 -0.00000000000E+00 -0.56281684113E+02  0.56281684113E+02  0.00000000000E+00 0.  1.
          6    2    1    2  501    0 -0.40510263379E+02  0.48000293661E+02  0.18944884251E+03  0.26302472694E+03  0.17130683997E+03 0.  0.
         24    2    3    3    0    0 -0.74443683094E+02  0.60822136640E+02  0.18928501604E+03  0.22644613388E+03  0.78789847022E+02 0.  0.
         -6    2    1    2    0  502  0.40510263379E+02 -0.48000293661E+02  0.40193055299E+03  0.44091803679E+03  0.17004539427E+03 0.  0.
        -24    2    5    5    0    0 -0.66689195382E+01  0.33110151121E+02  0.17300614843E+03  0.19346450063E+03  0.79728470553E+02 0.  0.
          5    1    3    3  501    0  0.33933419715E+02 -0.12821842979E+02  0.16382647334E+00  0.36578593057E+02  0.47000000000E+01 0. -1.
        -11    1    4    4    0    0 -0.82633225282E+02  0.53198042973E+02  0.11477742104E+03  0.15110307104E+03  0.00000000000E+00 0.  1.
         12    1    4    4    0    0  0.81895421873E+01  0.76240936666E+01  0.74507595005E+02  0.75343062845E+02  0.00000000000E+00 0. -1.
         -5    1    5    5    0  502  0.47179182917E+02 -0.81110444781E+02  0.22892440456E+03  0.24745353615E+03  0.47000000000E+01 0.  1.
         13    1    6    6    0    0  0.16682774142E+02  0.36458354240E+02  0.16296717115E+03  0.16782677205E+03  0.00000000000E+00 0. -1.
        -14    1    6    6    0    0 -0.23351693680E+02 -0.33482031197E+01  0.10038977283E+02  0.25637728580E+02  0.00000000000E+00 0.  1.
</event>
<event>
12    1  0.8691829E-002  0.2083791E+03  0.7818608E-02  0.1143150E+00
         21   -1    0    0  503  502  0.00000000000E+00  0.00000000000E+00  0.14933455077E+03  0.14933455077E+03  0.00000000000E+00 0. -1.
         21   -1    0    0  501  503 -0.00000000000E+00 -0.00000000000E+00 -0.43852403298E+03  0.43852403298E+03  0.00000000000E+00 0. -1.
          6    2    1    2  501    0 -0.13458411878E+02 -0.11471693966E+03 -0.31604639241E+03  0.37775591514E+03  0.17167732573E+03 0.  0.
         24    2    3    3    0    0 -0.43577097781E+01 -0.74976620940E+02 -0.71544870610E+02  0.12983415354E+03  0.78088127090E+02 0.  0.
         -6    2    1    2    0  502  0.13458411878E+02  0.11471693966E+03  0.26856910202E+02  0.21010266862E+03  0.17343797923E+03 0.  0.
        -24    2    5    5    0    0 -0.26154526369E+02  0.27269279739E+02  0.61333959025E+02  0.10798981439E+03  0.80450435769E+02 0.  0.
          5    1    3    3  501    0 -0.91007020999E+01 -0.39740318723E+02 -0.24450152180E+03  0.24792176160E+03  0.47000000000E+01 0. -1.
        -11    1    4    4    0    0 -0.23896999343E+02 -0.82523774869E+02 -0.65495372300E+02  0.10803186469E+03  0.00000000000E+00 0.  1.
         12    1    4    4    0    0  0.19539289565E+02  0.75471539286E+01 -0.60494983099E+01  0.21802288846E+02  0.00000000000E+00 0. -1.
         -5    1    5    5    0  502  0.39612938247E+02  0.87447659924E+02 -0.34477048823E+02  0.10211285423E+03  0.47000000000E+01 0.  1.
         13    1    6    6    0    0  0.19370583083E+02 -0.16667477335E+02  0.19432342666E+02  0.32103585955E+02  0.00000000000E+00 0. -1.
        -14    1    6    6    0    0 -0.45525109452E+02  0.43936757074E+02  0.41901616359E+02  0.75886228436E+02  0.00000000000E+00 0.  1.
</event>
<event>
12    1  0.8691829E-002  0.1972236E+03  0.7818608E-02  0.1152891E+00
         21   -1    0    0  503  502  0.00000000000E+00  0.00000000000E+00  0.95590530371E+02  0.95590530371E+02  0.00000000000E+00 0.  1.
         21   -1    0    0  501  503 -0.00000000000E+00 -0.00000000000E+00 -0.46351947939E+03  0.46351947939E+03  0.00000000000E+00 0.  1.
          6    2    1    2  501    0 -0.16325425601E+02  0.87455134802E+02 -0.28641661846E+03  0.34570572076E+03  0.17193907616E+03 0.  0.
         24    2    3    3    0    0 -0.43802632491E+02  0.91639073659E+02 -0.29203848213E+03  0.31696206766E+03  0.69728665947E+02 0.  0.
         -6    2    1    2    0  502  0.16325425601E+02 -0.87455134802E+02 -0.81512330553E+02  0.21340428900E+03  0.17601764231E+03 0.  0.
        -24    2    5    5    0    0 -0.51720987496E+02 -0.83441036754E+02 -0.47654871720E+02  0.13714915909E+03  0.83074893189E+02 0.  0.
          5    1    3    3  501    0  0.27477206890E+02 -0.41839388565E+01  0.56218636636E+01  0.28743653106E+02  0.47000000000E+01 0. -1.
        -11    1    4    4    0    0 -0.23353930591E+02  0.95185403777E+01 -0.20372878779E+02  0.32420099857E+02  0.00000000000E+00 0.  1.
         12    1    4    4    0    0 -0.20448701900E+02  0.82120533281E+02 -0.27166560335E+03  0.28454196780E+03  0.00000000000E+00 0. -1.
         -5    1    5    5    0  502  0.68046413097E+02 -0.40140980477E+01 -0.33857458833E+02  0.76255129907E+02  0.47000000000E+01 0.  1.
         13    1    6    6    0    0 -0.62494400414E+02 -0.33087619986E+02 -0.48330842021E+02  0.85651683988E+02  0.00000000000E+00 0. -1.
        -14    1    6    6    0    0  0.10773412918E+02 -0.50353416768E+02  0.67597030055E+00  0.51497475103E+02  0.00000000000E+00 0.  1.
</event>
<event>
12    1  0.8691829E-002  0.1731374E+03  0.7818608E-02  0.1175716E+00
         21   -1    0    0  503  502  0.00000000000E+00  0.00000000000E+00  0.36833081570E+03  0.36833081570E+03  0.00000000000E+00 0. -1.
         21   -1    0    0  501  503 -0.00000000000E+00 -0.00000000000E+00 -0.10227524965E+03  0.10227524965E+03  0.00000000000E+00 0. -1.
          6    2    1    2  501    0  0.45733743765E+01  0.13320718644E+02  0.20440441635E+02  0.17010088885E+03  0.16827995553E+03 0.  0.
         24    2    3    3    0    0 -0.82751388770E+01  0.56643838292E+02 -0.29130505783E+02  0.10285993543E+03  0.80340385917E+02 0.  0.
         -6    2    1    2    0  502 -0.45733743765E+01 -0.13320718644E+02  0.24561512442E+03  0.30050517651E+03  0.17256365338E+03 0.  0.
        -24    2    5    5    0    0  0.38466306146E+02  0.24090563150E+02  0.68586968994E+02  0.11445927917E+03  0.79603657768E+02 0.  0.
          5    1    3    3  501    0  0.12848513253E+02 -0.43323119648E+02  0.49570947419E+02  0.67240953420E+02  0.47000000000E+01 0. -1.
        -11    1    4    4    0    0  0.22027819433E+02  0.30689500783E+02  0.17378303224E+02  0.41582156152E+02  0.00000000000E+00 0.  1.
         12    1    4    4    0    0 -0.30302958310E+02  0.25954337509E+02 -0.46508809007E+02  0.61277779277E+02  0.00000000000E+00 0. -1.
         -5    1    5    5    0  502 -0.43039680523E+02 -0.37411281794E+02  0.17702815542E+03  0.18604589734E+03  0.47000000000E+01 0.  1.
         13    1    6    6    0    0  0.10393379293E+02 -0.29371807157E+02  0.20927911895E+02  0.37532690885E+02  0.00000000000E+00 0. -1.
        -14    1    6    6    0    0  0.28072926854E+02  0.53462370307E+02  0.47659057099E+02  0.76926588281E+02  0.00000000000E+00 0.  1.
</event>
<event>
12    1  0.8691829E-002  0.1995314E+03  0.7818608E-02  0.1150611E+00
         21   -1    0    0  503  502  0.00000000000E+00  0.00000000000E+00  0.60055972164E+02  0.60055972164E+02  0.00000000000E+00 0. -1.
         21   -1    0    0  501  503 -0.00000000000E+00 -0.00000000000E+00 -0.11803964495E+04  0.11803964495E+04  0.00000000000E+00 0.  1.
          6    2    1    2  501    0  0.96333226959E+02 -0.30064517303E+02 -0.97550291558E+03  0.99570011681E+03  0.17213023702E+03 0.  0.
         24    2    3    3    0    0  0.68498757966E+02  0.14649447717E+02 -0.30069422626E+03  0.31882276196E+03  0.79525151212E+02 0.  0.
         -6    2    1    2    0  502 -0.96333226959E+02  0.30064517303E+02 -0.14483756179E+03  0.24475230488E+03  0.16953408396E+03 0.  0.
        -24    2    5    5    0    0 -0.81271659669E+00  0.57073855625E+02 -0.70589270563E+02  0.12070162570E+03  0.79548424394E+02 0.  0.
          5    1    3    3  501    0  0.27834468993E+02 -0.44713965020E+02 -0.67480868932E+03  0.67687735485E+03  0.47000000000E+01 0. -1.
        -13    1    4    4    0    0  0.87003009781E+01 -0.13841521282E+01 -0.20282035617E+03  0.20301159571E+03  0.00000000000E+00 0.  1.
         14    1    4    4    0    0  0.59798456987E+02  0.16033599845E+02 -0.97873870084E+02  0.11581116625E+03  0.00000000000E+00 0. -1.
         -5    1    5    5    0  502 -0.95520510362E+02 -0.27009338322E+02 -0.74248291225E+02  0.12405067919E+03  0.47000000000E+01 0.  1.
         11    1    6    6    0    0  0.11713537298E+02  0.28293257793E+02  0.11582145597E+02  0.32739295796E+02  0.00000000000E+00 0. -1.
        -12    1    6    6    0    0 -0.12526253895E+02  0.28780597832E+02 -0.82171416161E+02  0.87962329904E+02  0.00000000000E+00 0.  1.
</event>
<event>
12    1  0.8691829E-002  0.2002165E+03  0.7818608E-02  0.1150649E+00
         21   -1    0    0  501  502  0.00000000000E+00  0.00000000000E+00  0.89961500854E+02  0.89961500854E+02  0.00000000000E+00 0. -1.
         21   -1    0    0  502  503 -0.00000000000E+00 -0.00000000000E+00 -0.67010871061E+03  0.67010871061E+03  0.00000000000E+00 0.  1.
         -6    2    1    2    0  503  0.16923213106E+02 -0.89469536394E+02 -0.51794154460E+03  0.55529280367E+03  0.17831281809E+03 0.  0.
        -24    2    3    3    0    0  0.74575156863E+02 -0.69390534298E+02 -0.24848377891E+03  0.27896602169E+03  0.75507301677E+02 0.  0.
          6    2    1    2  501    0 -0.16923213106E+02  0.89469536394E+02 -0.62205665157E+02  0.20477740780E+03  0.17254868554E+03 0.  0.
         24    2    5    5    0    0 -0.89346492547E+01 -0.18735332199E+02 -0.77634380165E+01  0.83294253265E+02  0.80292098162E+02 0.  0.
          5    1    5    5  501    0 -0.79885638513E+01  0.10820486859E+03 -0.54442227141E+02  0.12148315454E+03  0.47000000000E+01 0. -1.
        -11    1    6    6    0    0 -0.19376022025E+01  0.29535912497E+02 -0.16279206577E+02  0.33780719295E+02  0.00000000000E+00 0.  1.
         12    1    6    6    0    0 -0.69970470522E+01 -0.48271244696E+02  0.85157685603E+01  0.49513533970E+02  0.00000000000E+00 0. -1.
         -5    1    3    3    0  503 -0.57651943757E+02 -0.20079002096E+02 -0.26945776569E+03  0.27632678197E+03  0.47000000000E+01 0.  1.
         11    1    4    4    0    0  0.34387040592E+02  0.90854180399E+01 -0.46216888576E+02  0.58318214747E+02  0.00000000000E+00 0. -1.
        -12    1    4    4    0    0  0.40188116272E+02 -0.78475952338E+02 -0.20226689033E+03  0.22064780694E+03  0.00000000000E+00 0.  1.
</event>
<event>
12    1  0.8691829E-002  0.3133804E+03  0.7818608E-02  0.1078882E+00
         21   -1    0    0  501  502  0.00000000000E+00  0.00000000000E+00  0.90274328521E+03  0.90274328521E+03  0.00000000000E+00 0. -1.
         21   -1    0    0  502  503 -0.00000000000E+00 -0.00000000000E+00 -0.35675429009E+03  0.35675429009E+03  0.00000000000E+00 0. -1.
         -6    2    1    2    0  503  0.15333727866E+03  0.21157839851E+03 -0.25264179746E+03  0.40158242781E+03  0.17077127616E+03 0.  0.
        -24    2    3    3    0    0  0.67518400886E+02  0.37563074990E+02 -0.12933757169E+03  0.17164279509E+03  0.82239422393E+02 0.  0.
          6    2    1    2  501    0 -0.15333727866E+03 -0.21157839851E+03  0.79863079258E+03  0.85791514748E+03  0.17300149618E+03 0.  0.
         24    2    5    5    0    0 -0.11260471481E+03 -0.10901334365E+03  0.30218520636E+03  0.34932981313E+03  0.78432700513E+02 0.  0.
          5    1    5    5  501    0 -0.40732563845E+02 -0.10256505486E+03  0.49644558622E+03  0.50858533435E+03  0.47000000000E+01 0. -1.
        -13    1    6    6    0    0  0.30081410808E+01 -0.35706949464E+02  0.89383576717E+02  0.96298800301E+02  0.00000000000E+00 0.  1.
         14    1    6    6    0    0 -0.11561285589E+03 -0.73306394188E+02  0.21280162964E+03  0.25303101283E+03  0.00000000000E+00 0. -1.
         -5    1    3    3    0  503  0.85818877772E+02  0.17401532352E+03 -0.12330422577E+03  0.22993963272E+03  0.47000000000E+01 0.  1.
         13    1    4    4    0    0  0.65051726290E+02  0.27584255719E+02 -0.38970029101E+02  0.80692511580E+02  0.00000000000E+00 0. -1.
        -14    1    4    4    0    0  0.24666745960E+01  0.99788192708E+01 -0.90367542585E+02  0.90950283510E+02  0.00000000000E+00 0.  1.
</event>
<event>
12    1  0.8691829E-002  0.2515385E+03  0.7818608E-02  0.1112465E+00
         21   -1    0    0  503  502  0.00000000000E+00  0.00000000000E+00  0.98296088067E+03  0.98296088067E+03  0.00000000000E+00 0.  1.
         21   -1    0    0  501  503 -0.00000000000E+00 -0.00000000000E+00 -0.66558917209E+02  0.66558917209E+02  0.00000000000E+00 0. -1.
          6    2    1    2  501    0  0.96961938500E+02  0.15628916428E+03  0.35926787527E+03  0.43857155791E+03  0.17159162221E+03 0.  0.
         24    2    3    3    0    0  0.44324252364E+02  0.12074595965E+02  0.18067113961E+03  0.20301381190E+03  0.80387262159E+02 0.  0.
         -6    2    1    2    0  502 -0.96961938500E+02 -0.15628916428E+03  0.55713408820E+03  0.61094823998E+03  0.17038614765E+03 0.  0.
        -24    2    5    5    0    0 -0.13243917450E+03 -0.10748985995E+03  0.39952430304E+03  0.44212010028E+03  0.82196772539E+02 0.  0.
          5    1    3    3  501    0  0.52637686136E+02  0.14421456832E+03  0.17859673566E+03  0.23555774601E+03  0.47000000000E+01 0. -1.
        -13    1    4    4    0    0  0.52557421517E+02  0.29697323829E+02  0.17089569531E+03  0.18124445447E+03  0.00000000000E+00 0.  1.
         14    1    4    4    0    0 -0.82331691534E+01 -0.17622727864E+02  0.97754443010E+01  0.21769357431E+02  0.00000000000E+00 0. -1.
         -5    1    5    5    0  502  0.35477235997E+02 -0.48799304330E+02  0.15760978516E+03  0.16882813970E+03  0.47000000000E+01 0.  1.
         13    1    6    6    0    0 -0.20511495877E+02 -0.38932175687E+02  0.40310356879E+02  0.59677136648E+02  0.00000000000E+00 0. -1.
        -14    1    6    6    0    0 -0.11192767862E+03 -0.68557684267E+02  0.35921394616E+03  0.38244296363E+03  0.00000000000E+00 0.  1.
</event>
<event>
12    1  0.8691829E-002  0.2160264E+03  0.7818608E-02  0.1137424E+00
         21   -1    0    0  501  502  0.00000000000E+00  0.00000000000E+00  0.16971522718E+03  0.16971522718E+03  0.00000000000E+00 0. -1.
         21   -1    0    0  502  503 -0.00000000000E+00 -0.00000000000E+00 -0.48298700249E+03  0.48298700249E+03  0.00000000000E+00 0. -1.
         -6    2    1    2    0  503  0.12994130141E+03 -0.40965880935E+00 -0.37322188032E+03  0.43123308123E+03  0.17257603764E+03 0.  0.
        -24    2    3    3    0    0  0.12153630293E+03  0.39749590421E+02 -0.35654478017E+03  0.38669517639E+03  0.77832360294E+02 0.  0.
          6    2    1    2  501    0 -0.12994130141E+03  0.40965880935E+00  0.59950105006E+02  0.22146914844E+03  0.16902561636E+03 0.  0.
         24    2    5    5    0    0 -0.24780613044E+02 -0.42995879991E+02  0.72701841020E+00  0.93124786808E+02  0.78797036005E+02 0.  0.
          5    1    5    5  501    0 -0.10516068836E+03  0.43405538801E+02  0.59223086596E+02  0.12834436163E+03  0.47000000000E+01 0. -1.
        -13    1    6    6    0    0 -0.17006702052E+02  0.90730343958E+01 -0.27349768901E+02  0.33459792689E+02  0.00000000000E+00 0.  1.
         14    1    6    6    0    0 -0.77739109921E+01 -0.52068914387E+02  0.28076787311E+02  0.59664994119E+02  0.00000000000E+00 0. -1.
         -5    1    3    3    0  503  0.84049984765E+01 -0.40159249230E+02 -0.16677100148E+02  0.44537904840E+02  0.47000000000E+01 0.  1.
         11    1    4    4    0    0  0.10531237890E+03  0.13458948013E+02 -0.32754916156E+03  0.34432585390E+03  0.00000000000E+00 0. -1.
        -12    1    4    4    0    0  0.16223924036E+02  0.26290642408E+02 -0.28995618617E+02  0.42369322491E+02  0.00000000000E+00 0.  1.
</event>
<event>
12    1  0.8691829E-002  0.1881510E+03  0.7818608E-02  0.1160179E+00
         21   -1    0    0  503  502  0.00000000000E+00  0.00000000000E+00  0.69306995135E+02  0.69306995135E+02  0.00000000000E+00 0.  1.
         21   -1    0    0  501  503 -0.00000000000E+00 -0.00000000000E+00 -0.55695334693E+03  0.55695334693E+03  0.00000000000E+00 0. -1.
          6    2    1    2  501    0  0.39248063080E+02 -0.64514685936E+02 -0.33453623937E+03  0.38381674231E+03  0.17233177615E+03 0.  0.
         24    2    3    3    0    0  0.85022292195E+01 -0.60758667217E+02 -0.86766634050E+02  0.13407431240E+03  0.81753097301E+02 0.  0.
         -6    2    1    2    0  502 -0.39248063080E+02  0.64514685936E+02 -0.15311011242E+03  0.24244359975E+03  0.17214423422E+03 0.  0.
        -24    2    5    5    0    0  0.36309983721E+02 -0.31031427670E+01 -0.57554829613E+02  0.10303739018E+03  0.77305245292E+02 0.  0.
          5    1    3    3  501    0  0.30745833860E+02 -0.37560187191E+01 -0.24776960532E+03  0.24974242991E+03  0.47000000000E+01 0. -1.
        -11    1    4    4    0    0  0.36014825031E+02 -0.17032317893E+02 -0.68566750031E+02  0.79300483508E+02  0.00000000000E+00 0.  1.
         12    1    4    4    0    0 -0.27512595812E+02 -0.43726349324E+02 -0.18199884020E+02  0.54773828895E+02  0.00000000000E+00 0. -1.
         -5    1    5    5    0  502 -0.75558046801E+02  0.67617828703E+02 -0.95555282810E+02  0.13940620957E+03  0.47000000000E+01 0.  1.
         11    1    6    6    0    0  0.38007698029E+02  0.27798878678E+01 -0.75229886843E+02  0.84331777880E+02  0.00000000000E+00 0. -1.
        -12    1    6    6    0    0 -0.16977143076E+01 -0.58830306349E+01  0.17675057230E+02  0.18705612297E+02  0.00000000000E+00 0.  1.
</event>
<event>
12    1  0.8691829E-002  0.1973007E+03  0.7818608E-02  0.1152309E+00
         21   -1    0    0  501  502  0.00000000000E+00  0.00000000000E+00  0.71702132224E+02  0.71702132224E+02  0.00000000000E+00 0. -1.
         21   -1    0    0  502  503 -0.00000000000E+00 -0.00000000000E+00 -0.20255296863E+04  0.20255296863E+04  0.00000000000E+00 0. -1.
         -6    2    1    2    0  503  0.22418124202E+02  0.95564600721E+02 -0.18759472355E+04  0.18862941397E+04  0.17115018473E+03 0.  0.
        -24    2    3    3    0    0 -0.55181173816E+02  0.56170078895E+02 -0.10444111855E+04  0.10502033122E+04  0.77020988951E+02 0.  0.
          6    2    1    2  501    0 -0.22418124202E+02 -0.95564600721E+02 -0.77880318544E+02  0.21093767883E+03  0.16968852386E+03 0.  0.
         24    2    5    5    0    0  0.29592729701E+01 -0.61657890363E+02 -0.11530882827E+03  0.15422206692E+03  0.81718218935E+02 0.  0.
          5    1    5    5  501    0 -0.25377397172E+02 -0.33906710359E+02  0.37428509727E+02  0.56715611916E+02  0.47000000000E+01 0. -1.
        -11    1    6    6    0    0 -0.34732561615E+02 -0.66993698329E+01 -0.33651815008E+02  0.48822915171E+02  0.00000000000E+00 0.  1.
         12    1    6    6    0    0  0.37691834585E+02 -0.54958520530E+02 -0.81657013263E+02  0.10539915174E+03  0.00000000000E+00 0. -1.
         -5    1    3    3    0  503  0.77599298018E+02  0.39394521826E+02 -0.83153604998E+03  0.83609082750E+03  0.47000000000E+01 0.  1.
         13    1    4    4    0    0 -0.28226210757E+02  0.71279769808E+02 -0.83687301295E+03  0.84037727502E+03  0.00000000000E+00 0. -1.
        -14    1    4    4    0    0 -0.26954963059E+02 -0.15109690913E+02 -0.20753817259E+03  0.20982603718E+03  0.00000000000E+00 0.  1.
</event>
<event>
12    1  0.8691829E-002  0.1799413E+03  0.7818608E-02  0.1167995E+00
         21   -1    0    0  501  502  0.00000000000E+00  0.00000000000E+00  0.20817953770E+03  0.20817953770E+03  0.00000000000E+00 0.  1.
         21   -1    0    0  502  503 -0.00000000000E+00 -0.00000000000E+00 -0.24968170732E+03  0.24968170732E+03  0.00000000000E+00 0. -1.
         -6    2    1    2    0  503 -0.49837632302E+02  0.32723586635E+02 -0.16170785125E+03  0.24192620300E+03  0.16977701795E+03 0.  0.
        -24    2    3    3    0    0 -0.17150540558E+02  0.67372889722E+02 -0.16269331032E+03  0.19405051710E+03  0.79707230870E+02 0.  0.
          6    2    1    2  501    0  0.49837632302E+02 -0.32723586635E+02  0.12020568163E+03  0.21593504202E+03  0.16918603299E+03 0.  0.
         24    2    5    5    0    0  0.82186384946E+02  0.19886199628E+02  0.94242132200E+02  0.14877532710E+03  0.78118215974E+02 0.  0.
          5    1    5    5  501    0 -0.32348752644E+02 -0.52609786263E+02  0.25963549430E+02  0.67159714913E+02  0.47000000000E+01 0. -1.
        -13    1    6    6    0    0  0.22896475205E+02 -0.21700166374E+02  0.61871698396E+02  0.69449642618E+02  0.00000000000E+00 0.  1.
         14    1    6    6    0    0  0.59289909741E+02  0.41586366001E+02  0.32370433805E+02  0.79325684485E+02  0.00000000000E+00 0. -1.
         -5    1    3    3    0  503 -0.32687091744E+02 -0.34649303087E+02  0.98545906304E+00  0.47875685903E+02  0.47000000000E+01 0.  1.
         11    1    4    4    0    0  0.17590415381E+02  0.53895279255E+02 -0.50828262330E+02  0.76142209653E+02  0.00000000000E+00 0. -1.
        -12    1    4    4    0    0 -0.34740955939E+02  0.13477610467E+02 -0.11186504799E+03  0.11790830745E+03  0.00000000000E+00 0.  1.
</event>
<event>
12    1  0.8691829E-002  0.2011737E+03  0.7818608E-02  0.1149414E+00
         21   -1    0    0  503  502  0.00000000000E+00  0.00000000000E+00  0.42175737403E+03  0.42175737403E+03  0.00000000000E+00 0.  1.
         21   -1    0    0  501  503 -0.00000000000E+00 -0.00000000000E+00 -0.11057698807E+03  0.11057698807E+03  0.00000000000E+00 0. -1.
          6    2    1    2  501    0 -0.70248173527E+02  0.74512070636E+02  0.52958950153E+02  0.20499790647E+03  0.16950704027E+03 0.  0.
         24    2    3    3    0    0 -0.10640198920E+03  0.25290286074E+02  0.45294246685E+02  0.14326687584E+03  0.80702212203E+02 0.  0.
         -6    2    1    2    0  502  0.70248173527E+02 -0.74512070636E+02  0.25822143580E+03  0.32733645563E+03  0.17315885979E+03 0.  0.
        -24    2    5    5    0    0 -0.31121391850E+02 -0.38549195874E+02  0.11718789207E+03  0.14990571533E+03  0.79272567181E+02 0.  0.
          5    1    3    3  501    0  0.36153815674E+02  0.49221784562E+02  0.76647034682E+01  0.61731030629E+02  0.47000000000E+01 0. -1.
        -13    1    4    4    0    0 -0.30393659673E+02  0.30543772181E+02  0.51116565722E+02  0.66855066065E+02  0.00000000000E+00 0.  1.
         14    1    4    4    0    0 -0.76008329529E+02 -0.52534861070E+01 -0.58223190376E+01  0.76411809775E+02  0.00000000000E+00 0. -1.
         -5    1    5    5    0  502  0.10136956538E+03 -0.35962874762E+02  0.14103354373E+03  0.17743074030E+03  0.47000000000E+01 0.  1.
         13    1    6    6    0    0 -0.54821958269E+01 -0.58629529024E+02  0.59828488098E+02  0.83945959598E+02  0.00000000000E+00 0. -1.
        -14    1    6    6    0    0 -0.25639196023E+02  0.20080333150E+02  0.57359403975E+02  0.65959755734E+02  0.00000000000E+00 0.  1.
</event>
<event>
12    1  0.8691829E-002  0.2471297E+03  0.7818608E-02  0.1115225E+00
         21   -1    0    0  501  502  0.00000000000E+00  0.00000000000E+00  0.13801670260E+03  0.13801670260E+03  0.00000000000E+00 0. -1.
         21   -1    0    0  502  503 -0.00000000000E+00 -0.00000000000E+00 -0.44372588074E+03  0.44372588074E+03  0.00000000000E+00 0.  1.
         -6    2    1    2    0  503 -0.16016119892E+03 -0.75655496958E+02 -0.13193238179E+03  0.27963094716E+03  0.17149912357E+03 0.  0.
        -24    2    3    3    0    0 -0.15151695626E+03 -0.63372399960E+02 -0.40607755295E+02  0.18696015992E+03  0.79571744343E+02 0.  0.
          6    2    1    2  501    0  0.16016119892E+03  0.75655496958E+02 -0.17377679635E+03  0.30211163617E+03  0.17233021181E+03 0.  0.
         24    2    5    5    0    0  0.48444444056E+02  0.94189281586E+01 -0.14089231029E+03  0.16805420151E+03  0.77175068391E+02 0.  0.
          5    1    5    5  501    0  0.11171675486E+03  0.66236568799E+02 -0.32884486066E+02  0.13405743466E+03  0.47000000000E+01 0. -1.
        -13    1    6    6    0    0  0.32652946571E+02  0.28037474117E+02 -0.13665949755E+03  0.14327642215E+03  0.00000000000E+00 0.  1.
         14    1    6    6    0    0  0.15791497485E+02 -0.18618545959E+02 -0.42328127386E+01  0.24777779362E+02  0.00000000000E+00 0. -1.
         -5    1    3    3    0  503 -0.86442426581E+01 -0.12283096998E+02 -0.91324626493E+02  0.92670787236E+02  0.47000000000E+01 0.  1.
         11    1    4    4    0    0 -0.14093445927E+03 -0.32241576833E+02 -0.15131627983E+02  0.14536508264E+03  0.00000000000E+00 0. -1.
        -12    1    4    4    0    0 -0.10582496988E+02 -0.31130823127E+02 -0.25476127312E+02  0.41595077279E+02  0.00000000000E+00 0.  1.
</event>
<event>
12    1  0.8691829E-002  0.1836873E+03  0.7818608E-02  0.1165007E+00
         21   -1    0    0  503  502  0.00000000000E+00  0.00000000000E+00  0.41144988859E+03  0.41144988859E+03  0.00000000000E+00 0. -1.
         21   -1    0    0  501  503 -0.00000000000E+00 -0.00000000000E+00 -0.96264408540E+02  0.96264408540E+02  0.00000000000E+00 0. -1.
          6    2    1    2  501    0  0.45001092143E+02 -0.42636793189E+02  0.56456532066E+02  0.19216757326E+03  0.17291050220E+03 0.  0.
         24    2    3    3    0    0  0.11141096417E+02  0.11492720544E+02  0.87473462236E+02  0.12102937308E+03  0.82099305095E+02 0.  0.
         -6    2    1    2    0  502 -0.45001092143E+02  0.42636793189E+02  0.25872894799E+03  0.31554672388E+03  0.16966458675E+03 0.  0.
        -24    2    5    5    0    0 -0.58363858667E+02 -0.33472178936E+02  0.15390869376E+03  0.18523741928E+03  0.78091540691E+02 0.  0.
          5    1    3    3  501    0  0.33859995727E+02 -0.54129513733E+02 -0.31016930169E+02  0.71138200179E+02  0.47000000000E+01 0. -1.
        -11    1    4    4    0    0 -0.19494213997E+02  0.26765343786E+02  0.73757553081E+01  0.33923587277E+02  0.00000000000E+00 0.  1.
         12    1    4    4    0    0  0.30635310414E+02 -0.15272623242E+02  0.80097706927E+02  0.87105785800E+02  0.00000000000E+00 0. -1.
         -5    1    5    5    0  502  0.13362766524E+02  0.76108972126E+02  0.10482025423E+03  0.13030930460E+03  0.47000000000E+01 0.  1.
         13    1    6    6    0    0 -0.25745839793E+02  0.59943753271E+01  0.38864963117E+01  0.26718638734E+02  0.00000000000E+00 0. -1.
        -14    1    6    6    0    0 -0.32618018874E+02 -0.39466554263E+02  0.15002219744E+03  0.15851878055E+03  0.00000000000E+00 0.  1.
</event>
<event>
12    1  0.8691829E-002  0.1882509E+03  0.7818608E-02  0.1160643E+00
         21   -1    0    0  501  502  0.00000000000E+00  0.00000000000E+00  0.18415476578E+03  0.18415476578E+03  0.00000000000E+00 0.  1.
         21   -1    0    0  502  503 -0.00000000000E+00 -0.00000000000E+00 -0.19267409588E+03  0.19267409588E+03  0.00000000000E+00 0. -1.
         -6    2    1    2    0  503 -0.53712696156E+02  0.51176622905E+02  0.18712454873E+02  0.18917868210E+03  0.17301536733E+03 0.  0.
        -24    2    3    3    0    0 -0.82287281858E+02 -0.13261187923E+02 -0.79630426458E+00  0.11588870942E+03  0.80513992632E+02 0.  0.
          6    2    1    2  501    0  0.53712696156E+02 -0.51176622905E+02 -0.27231784974E+02  0.18765017956E+03  0.17019670772E+03 0.  0.
         24    2    5    5    0    0 -0.25486534146E+02 -0.83306259168E+01 -0.44828119492E+02  0.95780606109E+02  0.80283257647E+02 0.  0.
          5    1    5    5  501    0  0.79199230302E+02 -0.42845996988E+02  0.17596334518E+02  0.91869573455E+02  0.47000000000E+01 0. -1.
        -13    1    6    6    0    0  0.12308522551E+01  0.31999666849E+02 -0.36117270111E+01  0.32226359517E+02  0.00000000000E+00 0.  1.
         14    1    6    6    0    0 -0.26717386401E+02 -0.40330292766E+02 -0.41216392481E+02  0.63554246592E+02  0.00000000000E+00 0. -1.
         -5    1    3    3    0  503  0.28574585702E+02  0.64437810828E+02  0.19508759137E+02  0.73289972680E+02  0.47000000000E+01 0.  1.
         13    1    4    4    0    0 -0.44978810587E+02 -0.45912873308E+02 -0.11168340269E+02  0.65236624388E+02  0.00000000000E+00 0. -1.
        -14    1    4    4    0    0 -0.37308471271E+02  0.32651685385E+02  0.10372036005E+02  0.50652085030E+02  0.00000000000E+00 0.  1.
</event>
<event>
12    1  0.8691829E-002  0.1736963E+03  0.7818608E-02  0.1175099E+00
         21   -1    0    0  503  502  0.00000000000E+00  0.00000000000E+00  0.91383236776E+03  0.91383236776E+03  0.00000000000E+00 0.  1.
         21   -1    0    0  501  503 -0.00000000000E+00 -0.00000000000E+00 -0.56924460139E+02  0.56924460139E+02  0.00000000000E+00 0.  1.
          6    2    1    2  501    0  0.69961180164E+01 -0.11549741381E+02  0.74516339966E+03  0.76422051431E+03  0.16906259225E+03 0.  0.
         24    2    3    3    0    0  0.45128353349E+02 -0.47588485388E+00  0.69053357520E+03  0.69652113919E+03  0.79172496019E+02 0.  0.
         -6    2    1    2    0  502 -0.69961180164E+01  0.11549741381E+02  0.11174450796E+03  0.20653631359E+03  0.17317064295E+03 0.  0.
        -24    2    5    5    0    0  0.18040903729E+02  0.54435377946E+02  0.18013136346E+02  0.10035867797E+03  0.80366078562E+02 0.  0.
          5    1    3    3  501    0 -0.38132235333E+02 -0.11073856527E+02  0.54629824466E+02  0.67699375115E+02  0.47000000000E+01 0. -1.
        -13    1    4    4    0    0 -0.12125122845E+02 -0.25526964706E+02  0.18674771129E+03  0.18887390557E+03  0.00000000000E+00 0.  1.
         14    1    4    4    0    0  0.57253476194E+02  0.25051079852E+02  0.50378586391E+03  0.50764723363E+03  0.00000000000E+00 0. -1.
         -5    1    5    5    0  502 -0.25037021745E+02 -0.42885636565E+02  0.93731371612E+02  0.10617763562E+03  0.47000000000E+01 0.  1.
         11    1    6    6    0    0 -0.21893275971E+02  0.61543558633E+01  0.28888190076E+02  0.36765733431E+02  0.00000000000E+00 0. -1.
        -12    1    6    6    0    0  0.39934179700E+02  0.48281022083E+02 -0.10875053729E+02  0.63592944540E+02  0.00000000000E+00 0.  1.
</event>
<event>
12    1  0.8691829E-002  0.2156013E+03  0.7818608E-02  0.1137481E+00
         21   -1    0    0  503  502  0.00000000000E+00  0.00000000000E+00  0.10365028688E+04  0.10365028688E+04  0.00000000000E+00 0. -1.
         21   -1    0    0  501  503 -0.00000000000E+00 -0.00000000000E+00 -0.52016213339E+02  0.52016213339E+02  0.00000000000E+00 0.  1.
          6    2    1    2  501    0 -0.12211666801E+02  0.12644488034E+03  0.28462218216E+03  0.35619797437E+03  0.17242325190E+03 0.  0.
         24    2    3    3    0    0 -0.38186497434E+02  0.90292557143E+02  0.86435582155E+02  0.15301898746E+03  0.79578553646E+02 0.  0.
         -6    2    1    2    0  502  0.12211666801E+02 -0.12644488034E+03  0.69986447334E+03  0.73232110780E+03  0.17420244350E+03 0.  0.
        -24    2    5    5    0    0 -0.23659145464E+02 -0.12086763755E+03  0.34333887861E+03  0.37392131636E+03  0.82260709294E+02 0.  0.
          5    1    3    3  501    0  0.25974830634E+02  0.36152323201E+02  0.19818660000E+03  0.20317898690E+03  0.47000000000E+01 0. -1.
        -13    1    4    4    0    0 -0.10208159113E+02  0.92696434266E+02  0.82786622896E+02  0.12470148503E+03  0.00000000000E+00 0.  1.
         14    1    4    4    0    0 -0.27978338321E+02 -0.24038771234E+01  0.36489592590E+01  0.28317502434E+02  0.00000000000E+00 0. -1.
         -5    1    5    5    0  502  0.35870812264E+02 -0.55772427956E+01  0.35652559472E+03  0.35839979144E+03  0.47000000000E+01 0.  1.
         13    1    6    6    0    0 -0.48961714910E+02 -0.91867437910E+02  0.29021903657E+03  0.30832444739E+03  0.00000000000E+00 0. -1.
        -14    1    6    6    0    0  0.25302569446E+02 -0.29000199638E+02  0.53119842045E+02  0.65596868969E+02  0.00000000000E+00 0.  1.
</event>
<event>
12    1  0.8691829E-002  0.2820962E+03  0.7818608E-02  0.1094560E+00
         21   -1    0    0  501  502  0.00000000000E+00  0.00000000000E+00  0.88378498855E+02  0.88378498855E+02  0.00000000000E+00 0. -1.
         21   -1    0    0  502  503 -0.00000000000E+00 -0.00000000000E+00 -0.11783869770E+04  0.11783869770E+04  0.00000000000E+00 0.  1.
         -6    2    1    2    0  503  0.59789337349E+02 -0.21525692859E+03 -0.85282639721E+03  0.89827119176E+03  0.17224389685E+03 0.  0.
        -24    2    3    3    0    0  0.19240126652E+02 -0.22961092415E+02 -0.26909629593E+03  0.28232894752E+03  0.79996399213E+02 0.  0.
          6    2    1    2  501    0 -0.59789337349E+02  0.21525692859E+03 -0.23718208090E+03  0.36849428406E+03  0.17211155602E+03 0.  0.
         24    2    5    5    0    0 -0.75372524558E+02  0.66608124281E+02 -0.78007823513E+02  0.15009593937E+03  0.79535594600E+02 0.  0.
          5    1    5    5  501    0  0.15583187209E+02  0.14864880431E+03 -0.15917425739E+03  0.21839834469E+03  0.47000000000E+01 0. -1.
        -13    1    6    6    0    0  0.99951596594E+01  0.87663823732E+01 -0.36661487264E+02  0.38997657942E+02  0.00000000000E+00 0.  1.
         14    1    6    6    0    0 -0.85367684217E+02  0.57841741908E+02 -0.41346336249E+02  0.11109828143E+03  0.00000000000E+00 0. -1.
         -5    1    3    3    0  503  0.40549210697E+02 -0.19229583618E+03 -0.58373010128E+03  0.61594224424E+03  0.47000000000E+01 0.  1.
         11    1    4    4    0    0  0.43276002075E+02 -0.14257438362E+02 -0.84779180805E+02  0.96247578683E+02  0.00000000000E+00 0. -1.
        -12    1    4    4    0    0 -0.24035875423E+02 -0.87036540535E+01 -0.18431711512E+03  0.18608136884E+03  0.00000000000E+00 0.  1.
</event>
<event>
12    1  0.8691829E-002  0.2647688E+03  0.7818608E-02  0.1104500E+00
         21   -1    0    0  501  502  0.00000000000E+00  0.00000000000E+00  0.16340458078E+03  0.16340458078E+03  0.00000000000E+00 0.  1.
         21   -1    0    0  502  503 -0.00000000000E+00 -0.00000000000E+00 -0.42708699722E+03  0.42708699722E+03  0.00000000000E+00 0. -1.
         -6    2    1    2    0  503  0.17810299303E+03 -0.91753042904E+02 -0.13702055141E+03  0.29698559131E+03  0.17113302700E+03 0.  0.
        -24    2    3    3    0    0  0.52438467869E+02 -0.73317092095E+02 -0.11788427031E+03  0.16845643345E+03  0.79722518021E+02 0.  0.
          6    2    1    2  501    0 -0.17810299303E+03  0.91753042904E+02 -0.12666186504E+03  0.29350598669E+03  0.17309892883E+03 0.  0.
         24    2    5    5    0    0 -0.94413755061E+02  0.40884401978E+02 -0.14418536644E+03  0.19390342507E+03  0.78889966954E+02 0.  0.
          5    1    5    5  501    0 -0.83689237965E+02  0.50868640926E+02  0.17523501406E+02  0.99602561625E+02  0.47000000000E+01 0. -1.
        -11    1    6    6    0    0 -0.23514927704E+02 -0.23631068336E+02 -0.30347924166E+02  0.45081877920E+02  0.00000000000E+00 0.  1.
         12    1    6    6    0    0 -0.70898827357E+02  0.64515470314E+02 -0.11383744228E+03  0.14882154714E+03  0.00000000000E+00 0. -1.
         -5    1    3    3    0  503  0.12566452516E+03 -0.18435950809E+02 -0.19136281101E+02  0.12852915786E+03  0.47000000000E+01 0.  1.
         13    1    4    4    0    0  0.69838574031E+02 -0.57723536409E+02 -0.11255312068E+03  0.14449096184E+03  0.00000000000E+00 0. -1.
        -14    1    4    4    0    0 -0.17400106162E+02 -0.15593555685E+02 -0.53311496303E+01  0.23965471615E+02  0.00000000000E+00 0.  1.
</event>
<event>
12    1  0.8691829E-002  0.2139291E+03  0.7818608E-02  0.1138570E+00
         21   -1    0    0  501  502  0.00000000000E+00  0.00000000000E+00  0.79972353980E+03  0.79972353980E+03  0.00000000000E+00 0. -1.
         21   -1    0    0  502  503 -0.00000000000E+00 -0.00000000000E+00 -0.91092512108E+02  0.91092512108E+02  0.00000000000E+00 0. -1.
         -6    2    1    2    0  503 -0.11749917962E+03 -0.47044641360E+02  0.82090911895E+02  0.22876002530E+03  0.17196795012E+03 0.  0.
        -24    2    3    3    0    0 -0.10489563121E+03 -0.75846771682E+02  0.13814647673E+02  0.15344634527E+03  0.81234907311E+02 0.  0.
          6    2    1    2  501    0  0.11749917962E+03  0.47044641360E+02  0.62654011579E+03  0.66205602660E+03  0.17247147639E+03 0.  0.
         24    2    5    5    0    0  0.11938440615E+03  0.74719817537E+02  0.38731780975E+03  0.42118495909E+03  0.86867695092E+02 0.  0.
          5    1    5    5  501    0 -0.18852265244E+01 -0.27675176177E+02  0.23922230604E+03  0.24087106751E+03  0.47000000000E+01 0. -1.
        -11    1    6    6    0    0  0.86554135852E+01  0.21959143478E+02  0.12295520486E+02  0.26613905964E+02  0.00000000000E+00 0.  1.
         12    1    6    6    0    0  0.11072899256E+03  0.52760674059E+02  0.37502228927E+03  0.39457105313E+03  0.00000000000E+00 0. -1.
         -5    1    3    3    0  503 -0.12603548411E+02  0.28802130322E+02  0.68276264222E+02  0.75313680031E+02  0.47000000000E+01 0.  1.
         11    1    4    4    0    0 -0.11178944494E+03 -0.74136024319E+02 -0.40731486772E+01  0.13419992788E+03  0.00000000000E+00 0. -1.
        -12    1    4    4    0    0  0.68938137316E+01 -0.17107473639E+01  0.17887796351E+02  0.19246417396E+02  0.00000000000E+00 0.  1.
</event>
<event>
12    1  0.8691829E-002  0.1772109E+03  0.7818608E-02  0.1170594E+00
         21   -1    0    0  501  502  0.00000000000E+00  0.00000000000E+00  0.22870491028E+03  0.22870491028E+03  0.00000000000E+00 0.  1.
         21   -1    0    0  502  503 -0.00000000000E+00 -0.00000000000E+00 -0.13761894375E+03  0.13761894375E+03  0.00000000000E+00 0. -1.
         -6    2    1    2    0  503  0.83923149342E+01  0.42548888049E+02  0.34451129810E+02  0.18052862028E+03  0.17182218591E+03 0.  0.
        -24    2    3    3    0    0  0.42717805643E+01 -0.24924897295E+02 -0.28391690764E+02  0.88111086176E+02  0.79485701786E+02 0.  0.
          6    2    1    2  501    0 -0.83923149342E+01 -0.42548888049E+02  0.56634836722E+02  0.18579523375E+03  0.17155618709E+03 0.  0.
         24    2    5    5    0    0 -0.13909927382E+01  0.17287889586E+02  0.87184041457E+02  0.11808406495E+03  0.77730195701E+02 0.  0.
          5    1    5    5  501    0 -0.70013221961E+01 -0.59836777635E+02 -0.30549204735E+02  0.67711168799E+02  0.47000000000E+01 0. -1.
        -13    1    6    6    0    0 -0.19156419996E+02  0.31386136411E+02  0.10681279243E+02  0.38290308332E+02  0.00000000000E+00 0.  1.
         14    1    6    6    0    0  0.17765427258E+02 -0.14098246825E+02  0.76502762214E+02  0.79793756621E+02  0.00000000000E+00 0. -1.
         -5    1    3    3    0  503  0.41205343699E+01  0.67473785344E+02  0.62842820574E+02  0.92417534103E+02  0.47000000000E+01 0.  1.
         11    1    4    4    0    0 -0.29752964460E+02 -0.34523145977E+02 -0.52933373783E+01  0.45881433314E+02  0.00000000000E+00 0. -1.
        -12    1    4    4    0    0  0.34024745024E+02  0.95982486827E+01 -0.23098353385E+02  0.42229652862E+02  0.00000000000E+00 0.  1.
</event>
<event>
12    1  0.8691829E-002  0.5988837E+03  0.7818608E-02  0.9908793E-01
         21   -1    0    0  503  502  0.00000000000E+00  0.00000000000E+00  0.33044200281E+03  0.33044200281E+03  0.00000000000E+00 0. -1.
         21   -1    0    0  501  503 -0.00000000000E+00 -0.00000000000E+00 -0.12723976206E+04  0.12723976206E+04  0.00000000000E+00 0.  1.
          6    2    1    2  501    0  0.40872008152E+03 -0.39946022779E+03 -0.78193226735E+03  0.98492626018E+03  0.17900024762E+03 0.  0.
         24    2    3    3    0    0  0.31651371424E+03 -0.21828423464E+03 -0.46725875889E+03  0.61026873444E+03  0.79172230566E+02 0.  0.
         -6    2    1    2    0  502 -0.40872008152E+03  0.39946022779E+03 -0.16002335046E+03  0.61791336325E+03  0.17201416559E+03 0.  0.
        -24    2    5    5    0    0 -0.78556249851E+02  0.11124795567E+03 -0.34374228748E+02  0.16197009777E+03  0.80656884022E+02 0.  0.
          5    1    3    3  501    0  0.92206367280E+02 -0.18117599316E+03 -0.31467350846E+03  0.37465752574E+03  0.47000000000E+01 0. -1.
        -13    1    4    4    0    0  0.19027695125E+03 -0.10777652515E+03 -0.31658339747E+03  0.38476765080E+03  0.00000000000E+00 0.  1.
         14    1    4    4    0    0  0.12623676298E+03 -0.11050770949E+03 -0.15067536142E+03  0.22550108364E+03  0.00000000000E+00 0. -1.
         -5    1    5    5    0  502 -0.33016383167E+03  0.28821227212E+03 -0.12564912171E+03  0.45594326547E+03  0.47000000000E+01 0.  1.
         13    1    6    6    0    0 -0.13408278892E+02  0.30280342334E+02 -0.46773356736E+02  0.57309929114E+02  0.00000000000E+00 0. -1.
        -14    1    6    6    0    0 -0.65147970959E+02  0.80967613335E+02  0.12399127989E+02  0.10466016866E+03  0.00000000000E+00 0.  1.
</event>
<event>
12    1  0.8691829E-002  0.2639086E+03  0.7818608E-02  0.1106356E+00
         21   -1    0    0  501  502  0.00000000000E+00  0.00000000000E+00  0.11565854361E+03  0.11565854361E+03  0.00000000000E+00 0.  1.
         21   -1    0    0  502  503 -0.00000000000E+00 -0.00000000000E+00 -0.91868031986E+03  0.91868031986E+03  0.00000000000E+00 0.  1.
         -6    2    1    2    0  503  0.19577992093E+03  0.27250999438E+02 -0.71091006872E+03  0.75481732038E+03  0.15900838635E+03 0.  0.
        -24    2    3    3    0    0  0.14378802666E+03 -0.41712521367E+02 -0.47428013582E+03  0.50287498687E+03  0.74341604327E+02 0.  0.
          6    2    1    2  501    0 -0.19577992093E+03 -0.27250999438E+02 -0.92111707528E+02  0.27952154309E+03  0.17485803378E+03 0.  0.
         24    2    5    5    0    0 -0.62620288188E+02  0.26900276164E+02  0.68504451799E+01  0.10493790665E+03  0.79499121400E+02 0.  0.
          5    1    5    5  501    0 -0.13315963275E+03 -0.54151275602E+02 -0.98962152708E+02  0.17458363644E+03  0.47000000000E+01 0. -1.
        -11    1    6    6    0    0 -0.50877645970E+02 -0.61158365995E+01  0.33231085891E+02  0.61075718466E+02  0.00000000000E+00 0.  1.
         12    1    6    6    0    0 -0.11742642219E+02  0.33016112764E+02 -0.26380640711E+02  0.43862188188E+02  0.00000000000E+00 0. -1.
         -5    1    3    3    0  503  0.51991894276E+02  0.68963520805E+02 -0.23662993290E+03  0.25194233351E+03  0.47000000000E+01 0.  1.
         11    1    4    4    0    0  0.22373648834E+02 -0.15438813297E+01 -0.17261921970E+02  0.28300842422E+02  0.00000000000E+00 0. -1.
        -12    1    4    4    0    0  0.12141437782E+03 -0.40168640037E+02 -0.45701821385E+03  0.47457414445E+03  0.00000000000E+00 0.  1.
</event>
<event>
12    1  0.8691829E-002  0.1769793E+03  0.7818608E-02  0.1170842E+00
         21   -1    0    0  503  502  0.00000000000E+00  0.00000000000E+00  0.25902071628E+04  0.25902071628E+04  0.00000000000E+00 0.  1.
         21   -1    0    0  501  503 -0.00000000000E+00 -0.00000000000E+00 -0.17444917476E+02  0.17444917476E+02  0.00000000000E+00 0.  1.
          6    2    1    2  501    0 -0.39116977228E+02 -0.21027970357E+02  0.56177339793E+03  0.58889062387E+03  0.17096930370E+03 0.  0.
         24    2    3    3    0    0 -0.43961876422E+02 -0.59589029295E+02  0.52053599625E+03  0.53203078205E+03  0.81335912475E+02 0.  0.
         -6    2    1    2    0  502  0.39116977228E+02  0.21027970357E+02  0.20109888474E+04  0.20187614565E+04  0.17131654943E+03 0.  0.
        -24    2    5    5    0    0  0.66022193484E+02 -0.37982591254E+02  0.13640877796E+04  0.13686005390E+04  0.80810627835E+02 0.  0.
          5    1    3    3  501    0  0.48448991944E+01  0.38561058938E+02  0.41237401680E+02  0.56859841821E+02  0.47000000000E+01 0. -1.
        -11    1    4    4    0    0  0.17964932878E+02 -0.18481804257E+00  0.17820238577E+03  0.17910573208E+03  0.00000000000E+00 0.  1.
         12    1    4    4    0    0 -0.61926809300E+02 -0.59404211253E+02  0.34233361049E+03  0.35292504997E+03  0.00000000000E+00 0. -1.
         -5    1    5    5    0  502 -0.26905216256E+02  0.59010561611E+02  0.64690106782E+03  0.65016091746E+03  0.47000000000E+01 0.  1.
         11    1    6    6    0    0  0.92642934202E+01 -0.48380163344E+02  0.81551939895E+03  0.81700572667E+03  0.00000000000E+00 0. -1.
        -12    1    6    6    0    0  0.56757900064E+02  0.10397572090E+02  0.54856838066E+03  0.55159481233E+03  0.00000000000E+00 0.  1.
</event>
<event>
12    1  0.8691829E-002  0.1846456E+03  0.7818608E-02  0.1163494E+00
         21   -1    0    0  501  502  0.00000000000E+00  0.00000000000E+00  0.19772544395E+03  0.19772544395E+03  0.00000000000E+00 0. -1.
         21   -1    0    0  502  503 -0.00000000000E+00 -0.00000000000E+00 -0.17667322909E+03  0.17667322909E+03  0.00000000000E+00 0.  1.
         -6    2    1    2    0  503  0.51170927940E+02 -0.43672794039E+02 -0.19989751281E+02  0.18524676100E+03  0.17143802233E+03 0.  0.
        -24    2    3    3    0    0  0.48162956917E+02 -0.30954817810E+02  0.52233091912E+02  0.11170069457E+03  0.80441768454E+02 0.  0.
          6    2    1    2  501    0 -0.51170927940E+02  0.43672794039E+02  0.41041966136E+02  0.18915191204E+03  0.17195413935E+03 0.  0.
         24    2    5    5    0    0  0.89631594238E+01  0.66379033593E+02  0.61654206730E+02  0.12148629123E+03  0.80443541826E+02 0.  0.
          5    1    5    5  501    0 -0.60134087363E+02 -0.22706239553E+02 -0.20612240594E+02  0.67665620813E+02  0.47000000000E+01 0. -1.
        -11    1    6    6    0    0 -0.32287343671E+02  0.43655559374E+02  0.47945228100E+02  0.72436353602E+02  0.00000000000E+00 0.  1.
         12    1    6    6    0    0  0.41250503095E+02  0.22723474218E+02  0.13708978630E+02  0.49049937627E+02  0.00000000000E+00 0. -1.
         -5    1    3    3    0  503  0.30079710224E+01 -0.12717976230E+02 -0.72222843193E+02  0.73546066434E+02  0.47000000000E+01 0.  1.
         11    1    4    4    0    0  0.20454664594E+02 -0.22364240439E+02  0.70967146350E+02  0.77167923486E+02  0.00000000000E+00 0. -1.
        -12    1    4    4    0    0  0.27708292323E+02 -0.85905773702E+01 -0.18734054438E+02  0.34532771084E+02  0.00000000000E+00 0.  1.
</event>
<event>
12    1  0.8691829E-002  0.1730776E+03  0.7818608E-02  0.1175176E+00
         21   -1    0    0  501  502  0.00000000000E+00  0.00000000000E+00  0.67980199748E+03  0.67980199748E+03  0.00000000000E+00 0.  1.
         21   -1    0    0  502  503 -0.00000000000E+00 -0.00000000000E+00 -0.49100778953E+02  0.49100778953E+02  0.00000000000E+00 0.  1.
         -6    2    1    2    0  503 -0.55369473201E+01 -0.13519993614E+02  0.19144429001E+03  0.25677725768E+03  0.17049984126E+03 0.  0.
        -24    2    3    3    0    0  0.22371746050E+01 -0.74370429356E+02  0.13019071875E+03  0.16995961838E+03  0.80004268122E+02 0.  0.
          6    2    1    2  501    0  0.55369473201E+01  0.13519993614E+02  0.43925692852E+03  0.47212551876E+03  0.17245987416E+03 0.  0.
         24    2    5    5    0    0 -0.46692254597E+02 -0.35629065564E+02  0.30098850051E+03  0.31629301979E+03  0.77444173276E+02 0.  0.
          5    1    5    5  501    0  0.52229201917E+02  0.49149059178E+02  0.13826842801E+03  0.15583249897E+03  0.47000000000E+01 0. -1.
        -13    1    6    6    0    0  0.42253523574E+01 -0.23266744877E+02  0.20975524060E+03  0.21108400219E+03  0.00000000000E+00 0.  1.
         14    1    6    6    0    0 -0.50917606955E+02 -0.12362320687E+02  0.91233259909E+02  0.10520901760E+03  0.00000000000E+00 0. -1.
         -5    1    3    3    0  503 -0.77741219251E+01  0.60850435742E+02  0.61253571256E+02  0.86817639298E+02  0.47000000000E+01 0.  1.
         11    1    4    4    0    0 -0.10479856183E+02 -0.50622566255E+02  0.18249390813E+02  0.54822548872E+02  0.00000000000E+00 0. -1.
        -12    1    4    4    0    0  0.12717030788E+02 -0.23747863102E+02  0.11194132794E+03  0.11513706951E+03  0.00000000000E+00 0.  1.
</event>
<event>
12    1  0.8691829E-002  0.1865780E+03  0.7818608E-02  0.1163334E+00
         21   -1    0    0  503  502  0.00000000000E+00  0.00000000000E+00  0.96875904126E+02  0.96875904126E+02  0.00000000000E+00 0. -1.
         21   -1    0    0  501  503 -0.00000000000E+00 -0.00000000000E+00 -0.94257358124E+03  0.94257358124E+03  0.00000000000E+00 0. -1.
          6    2    1    2  501    0 -0.25344936395E+02  0.45255522705E+02 -0.83342894618E+03  0.85246857973E+03  0.17148890044E+03 0.  0.
         24    2    3    3    0    0  0.43714378599E+02 -0.11300387358E+02 -0.42859433437E+03  0.43788334982E+03  0.77524698913E+02 0.  0.
         -6    2    1    2    0  502  0.25344936395E+02 -0.45255522705E+02 -0.12268730938E+02  0.18698090563E+03  0.17922307099E+03 0.  0.
        -24    2    5    5    0    0 -0.40963608606E+02 -0.46374730607E+02 -0.52780863226E+01  0.12013006511E+03  0.10283356202E+03 0.  0.
          5    1    3    3  501    0 -0.69059314994E+02  0.56555910063E+02 -0.40483461180E+03  0.41458522992E+03  0.47000000000E+01 0. -1.
        -13    1    4    4    0    0 -0.17639640615E+02 -0.20733142064E+02 -0.15088751456E+03  0.15332339075E+03  0.00000000000E+00 0.  1.
         14    1    4    4    0    0  0.61354019214E+02  0.94327547059E+01 -0.27770681981E+03  0.28455995907E+03  0.00000000000E+00 0. -1.
         -5    1    5    5    0  502  0.66308545001E+02  0.11192079023E+01 -0.69906446151E+01  0.66850840523E+02  0.47000000000E+01 0.  1.
         11    1    6    6    0    0 -0.34742029520E+02  0.51052905055E+01  0.38614123665E+02  0.52193133195E+02  0.00000000000E+00 0. -1.
        -12    1    6    6    0    0 -0.62215790861E+01 -0.51480021113E+02 -0.43892209988E+02  0.67936931913E+02  0.00000000000E+00 0.  1.
</event>
<event>
12    1  0.8691829E-002  0.1998794E+03  0.7818608E-02  0.1149896E+00
         21   -1    0    0  503  502  0.00000000000E+00  0.00000000000E+00  0.29633878320E+03  0.29633878320E+03  0.00000000000E+00 0. -1.
         21   -1    0    0  501  503 -0.00000000000E+00 -0.00000000000E+00 -0.17037243331E+03  0.17037243331E+03  0.00000000000E+00 0. -1.
          6    2    1    2  501    0  0.39860186920E+02  0.94070903436E+02 -0.43913884628E+02  0.20439258782E+03  0.17149265675E+03 0.  0.
         24    2    3    3    0    0  0.83927574056E+02  0.35852456695E+02 -0.41877152474E+02  0.13119722986E+03  0.84438029847E+02 0.  0.
         -6    2    1    2    0  502 -0.39860186920E+02 -0.94070903436E+02  0.16988023452E+03  0.26231862869E+03  0.17179522549E+03 0.  0.
        -24    2    5    5    0    0 -0.66398774625E+02 -0.29520721965E+02  0.42394800408E+02  0.11690319458E+03  0.81171223376E+02 0.  0.
          5    1    3    3  501    0 -0.44067387136E+02  0.58218446742E+02 -0.20367321542E+01  0.73195357967E+02  0.47000000000E+01 0. -1.
        -11    1    4    4    0    0 -0.15246842017E+02  0.17700243894E+02 -0.53837996153E+01  0.23973946769E+02  0.00000000000E+00 0.  1.
         12    1    4    4    0    0  0.99174416073E+02  0.18152212801E+02 -0.36493352858E+02  0.10722328309E+03  0.00000000000E+00 0. -1.
         -5    1    5    5    0  502  0.26538587705E+02 -0.64550181472E+02  0.12748543411E+03  0.14541543411E+03  0.47000000000E+01 0.  1.
         11    1    6    6    0    0 -0.42997301447E+02 -0.33491519344E+02  0.64517030928E+02  0.84456480388E+02  0.00000000000E+00 0. -1.
        -12    1    6    6    0    0 -0.23401473178E+02  0.39707973790E+01 -0.22122230520E+02  0.32446714192E+02  0.00000000000E+00 0.  1.
</event>
<event>
12    1  0.8691829E-002  0.2860305E+03  0.7818608E-02  0.1092466E+00
         21   -1    0    0  501  502  0.00000000000E+00  0.00000000000E+00  0.97482577821E+02  0.97482577821E+02  0.00000000000E+00 0. -1.
         21   -1    0    0  502  503 -0.00000000000E+00 -0.00000000000E+00 -0.93726256707E+03  0.93726256707E+03  0.00000000000E+00 0. -1.
         -6    2    1    2    0  503  0.14469710794E+03 -0.17680375608E+03 -0.58754566656E+03  0.65338496267E+03  0.17177071328E+03 0.  0.
        -24    2    3    3    0    0  0.93677929754E+02 -0.17769169348E+03 -0.54528463876E+03  0.58696335890E+03  0.82708856692E+02 0.  0.
          6    2    1    2  501    0 -0.14469710794E+03  0.17680375608E+03 -0.25223432269E+03  0.38136018222E+03  0.17209478153E+03 0.  0.
         24    2    5    5    0    0 -0.17232549367E+03  0.16531496523E+03 -0.24215983122E+03  0.34943988474E+03  0.80260424195E+02 0.  0.
          5    1    5    5  501    0  0.27628385725E+02  0.11488790843E+02 -0.10074491468E+02  0.31920297479E+02  0.47000000000E+01 0. -1.
        -11    1    6    6    0    0 -0.19063305020E+02  0.34630122428E+01 -0.55232715513E+02  0.58532511607E+02  0.00000000000E+00 0.  1.
         12    1    6    6    0    0 -0.15326218865E+03  0.16185195299E+03 -0.18692711571E+03  0.29090737313E+03  0.00000000000E+00 0. -1.
         -5    1    3    3    0  503  0.51019178191E+02  0.88793740403E+00 -0.42261027801E+02  0.66421603766E+02  0.47000000000E+01 0.  1.
         11    1    4    4    0    0  0.95777886655E+02 -0.10074864794E+03 -0.38021648248E+03  0.40483115886E+03  0.00000000000E+00 0. -1.
        -12    1    4    4    0    0 -0.20999569008E+01 -0.76943045541E+02 -0.16506815627E+03  0.18213220004E+03  0.00000000000E+00 0.  1.
</event>
<event>
12    1  0.8691829E-002  0.1762313E+03  0.7818608E-02  0.1171860E+00
         21   -1    0    0  503  502  0.00000000000E+00  0.00000000000E+00  0.16539254663E+03  0.16539254663E+03  0.00000000000E+00 0.  1.
         21   -1    0    0  501  503 -0.00000000000E+00 -0.00000000000E+00 -0.30435586938E+03  0.30435586938E+03  0.00000000000E+00 0.  1.
          6    2    1    2  501    0  0.42241199264E+01  0.32262590224E+02 -0.21596696629E+03  0.27874577397E+03  0.17320149556E+03 0.  0.
         24    2    3    3    0    0  0.49802815045E+02  0.28027674889E+02 -0.53935086102E+02  0.11030655006E+03  0.77412340925E+02 0.  0.
         -6    2    1    2    0  502 -0.42241199264E+01 -0.32262590224E+02  0.77003643533E+02  0.19100264203E+03  0.17173738739E+03 0.  0.
        -24    2    5    5    0    0 -0.64076904192E+02  0.10456262841E+02  0.39957035638E+02  0.10852963222E+03  0.77245927327E+02 0.  0.
          5    1    3    3  501    0 -0.45578695119E+02  0.42349153356E+01 -0.16203188018E+03  0.16843922391E+03  0.47000000000E+01 0. -1.
        -11    1    4    4    0    0  0.53307304497E+02  0.47083038519E+02 -0.24810716352E+02  0.75326309314E+02  0.00000000000E+00 0.  1.
         12    1    4    4    0    0 -0.35044894519E+01 -0.19055363630E+02 -0.29124369750E+02  0.34980240747E+02  0.00000000000E+00 0. -1.
         -5    1    5    5    0  502  0.59852784266E+02 -0.42718853065E+02  0.37046607895E+02  0.82473009816E+02  0.47000000000E+01 0.  1.
         13    1    6    6    0    0 -0.77204356958E+02 -0.59502370002E+01  0.40752738023E+02  0.87502592590E+02  0.00000000000E+00 0. -1.
        -14    1    6    6    0    0  0.13127452766E+02  0.16406499841E+02 -0.79570238478E+00  0.21027039626E+02  0.00000000000E+00 0.  1.
</event>
<event>
12    1  0.8691829E-002  0.2387046E+03  0.7818608E-02  0.1121211E+00
         21   -1    0    0  501  502  0.00000000000E+00  0.00000000000E+00  0.91813753718E+03  0.91813753718E+03  0.00000000000E+00 0.  1.
         21   -1    0    0  502  503 -0.00000000000E+00 -0.00000000000E+00 -0.61222723466E+02  0.61222723466E+02  0.00000000000E+00 0.  1.
         -6    2    1    2    0  503 -0.13440168537E+03  0.87188178292E+02  0.41963843001E+03  0.48117302014E+03  0.17252672808E+03 0.  0.
        -24    2    3    3    0    0 -0.12369016722E+03  0.12080033670E+03  0.39362077166E+03  0.43708762165E+03  0.78843505143E+02 0.  0.
          6    2    1    2  501    0  0.13440168537E+03 -0.87188178292E+02  0.43727638370E+03  0.49818724050E+03  0.17695846800E+03 0.  0.
         24    2    5    5    0    0  0.90651433297E+02 -0.33179655781E+02  0.40007337352E+03  0.41921155420E+03  0.79756197640E+02 0.  0.
          5    1    5    5  501    0  0.43750252071E+02 -0.54008522511E+02  0.37203010177E+02  0.78975686299E+02  0.47000000000E+01 0. -1.
        -13    1    6    6    0    0  0.46062388172E+01 -0.14026655301E+02  0.20042928175E+03  0.20097229033E+03  0.00000000000E+00 0.  1.
         14    1    6    6    0    0  0.86045194480E+02 -0.19153000480E+02  0.19964409177E+03  0.21823926388E+03  0.00000000000E+00 0. -1.
         -5    1    3    3    0  503 -0.10711518151E+02 -0.33612158407E+02  0.26017658354E+02  0.44085398491E+02  0.47000000000E+01 0.  1.
         13    1    4    4    0    0 -0.11191265931E+02  0.36862627645E+02  0.35280913176E+02  0.52238305721E+02  0.00000000000E+00 0. -1.
        -14    1    4    4    0    0 -0.11249890129E+03  0.83937709054E+02  0.35833985848E+03  0.38484931593E+03  0.00000000000E+00 0.  1.
</event>
<event>
12    1  0.8691829E-002  0.2397681E+03  0.7818608E-02  0.1119953E+00
         21   -1    0    0  501  502  0.00000000000E+00  0.00000000000E+00  0.53696649638E+03  0.53696649638E+03  0.00000000000E+00 0.  1.
         21   -1    0    0  502  503 -0.00000000000E+00 -0.00000000000E+00 -0.13057868332E+03  0.13057868332E+03  0.00000000000E+00 0. -1.
         -6    2    1    2    0  503 -0.24219878823E+02 -0.16529623630E+03  0.61513838647E+02  0.24753319300E+03  0.17198628150E+03 0.  0.
        -24    2    3    3    0    0 -0.63736841295E+02 -0.16938227583E+03  0.63723979061E+02  0.20746748743E+03  0.78925740593E+02 0.  0.
          6    2    1    2  501    0  0.24219878823E+02  0.16529623630E+03  0.34487397442E+03  0.42001198670E+03  0.17193767032E+03 0.  0.
         24    2    5    5    0    0  0.58793556616E+02  0.13507140117E+03  0.33211267087E+03  0.37211813821E+03  0.80449468114E+02 0.  0.
          5    1    5    5  501    0 -0.34573677793E+02  0.30224835129E+02  0.12761303547E+02  0.47893848488E+02  0.47000000000E+01 0. -1.
        -13    1    6    6    0    0 -0.15172078524E+02  0.62119489918E+02  0.12888143460E+03  0.14387302450E+03  0.00000000000E+00 0.  1.
         14    1    6    6    0    0  0.73965635140E+02  0.72951911254E+02  0.20323123627E+03  0.22824511371E+03  0.00000000000E+00 0. -1.
         -5    1    3    3    0  503  0.39516962472E+02  0.40860395316E+01 -0.22101404148E+01  0.40065705569E+02  0.47000000000E+01 0.  1.
         13    1    4    4    0    0  0.63201441270E+01 -0.58273692423E+01 -0.11444362375E+02  0.14313486097E+02  0.00000000000E+00 0. -1.
        -14    1    4    4    0    0 -0.70056985422E+02 -0.16355490659E+03  0.75168341437E+02  0.19315400133E+03  0.00000000000E+00 0.  1.
</event>
<event>
12    1  0.8691829E-002  0.1962606E+03  0.7818608E-02  0.1153140E+00
         21   -1    0    0  501  502  0.00000000000E+00  0.00000000000E+00  0.13157899324E+03  0.13157899324E+03  0.00000000000E+00 0.  1.
         21   -1    0    0  502  503 -0.00000000000E+00 -0.00000000000E+00 -0.30573929945E+03  0.30573929945E+03  0.00000000000E+00 0.  1.
         -6    2    1    2    0  503 -0.92955737499E+02  0.21890423622E+02 -0.13477712428E+03  0.23808216181E+03  0.17145927436E+03 0.  0.
        -24    2    3    3    0    0 -0.68968895419E+02 -0.41289112284E+02 -0.12847574660E+03  0.17004673199E+03  0.77125704317E+02 0.  0.
          6    2    1    2  501    0  0.92955737499E+02 -0.21890423622E+02 -0.39383181935E+02  0.19923613087E+03  0.17036443598E+03 0.  0.
         24    2    5    5    0    0  0.12145426764E+03  0.19273869614E+01 -0.60237497234E+02  0.15638234705E+03  0.77923221481E+02 0.  0.
          5    1    5    5  501    0 -0.28498530146E+02 -0.23817810584E+02  0.20854315299E+02  0.42853783825E+02  0.47000000000E+01 0. -1.
        -11    1    6    6    0    0  0.10111359777E+03 -0.30847683827E+02 -0.45463884306E+02  0.11507607931E+03  0.00000000000E+00 0.  1.
         12    1    6    6    0    0  0.20340669872E+02  0.32775070788E+02 -0.14773612928E+02  0.41306267744E+02  0.00000000000E+00 0. -1.
         -5    1    3    3    0  503 -0.23986842080E+02  0.63179535907E+02 -0.63013776764E+01  0.68035429821E+02  0.47000000000E+01 0.  1.
         11    1    4    4    0    0 -0.68655506700E+02 -0.26121244345E+02 -0.47080001643E+02  0.87249209515E+02  0.00000000000E+00 0. -1.
        -12    1    4    4    0    0 -0.31338871907E+00 -0.15167867939E+02 -0.81395744957E+02  0.82797522471E+02  0.00000000000E+00 0.  1.
</event>
<event>
12    1  0.8691829E-002  0.3883685E+03  0.7818608E-02  0.1047891E+00
         21   -1    0    0  501  502  0.00000000000E+00  0.00000000000E+00  0.65364603875E+03  0.65364603875E+03  0.00000000000E+00 0.  1.
         21   -1    0    0  502  503 -0.00000000000E+00 -0.00000000000E+00 -0.23073345469E+03  0.23073345469E+03  0.00000000000E+00 0. -1.
         -6    2    1    2    0  503  0.27339471057E+02 -0.34729914260E+03  0.20625764105E+03  0.43966668240E+03  0.17146555336E+03 0.  0.
        -24    2    3    3    0    0 -0.50686598964E+01 -0.97486972272E+02  0.11695376099E+03  0.17235847005E+03  0.80621702480E+02 0.  0.
          6    2    1    2  501    0 -0.27339471057E+02  0.34729914260E+03  0.21665494301E+03  0.44471281104E+03  0.17165657238E+03 0.  0.
         24    2    5    5    0    0 -0.82790752004E+02  0.24123977996E+03  0.16948292127E+03  0.31598549227E+03  0.77919385717E+02 0.  0.
          5    1    5    5  501    0  0.55451280947E+02  0.10605936264E+03  0.47172021743E+02  0.12872731877E+03  0.47000000000E+01 0. -1.
        -13    1    6    6    0    0 -0.44309032289E+02  0.13156106912E+03  0.13759194229E+03  0.19545625555E+03  0.00000000000E+00 0.  1.
         14    1    6    6    0    0 -0.38481719715E+02  0.10967871084E+03  0.31890978978E+02  0.12052923672E+03  0.00000000000E+00 0. -1.
         -5    1    3    3    0  503  0.32408130954E+02 -0.24981217033E+03  0.89303880057E+02  0.26730821235E+03  0.47000000000E+01 0.  1.
         13    1    4    4    0    0 -0.14815364678E+02 -0.30450283473E+02 -0.36221908530E+01  0.34056351254E+02  0.00000000000E+00 0. -1.
        -14    1    4    4    0    0  0.97467047820E+01 -0.67036688799E+02  0.12057595185E+03  0.13830211879E+03  0.00000000000E+00 0.  1.
</event>
<event>
12    1  0.8691829E-002  0.1852621E+03  0.7818608E-02  0.1162857E+00
         21   -1    0    0  501  502  0.00000000000E+00  0.00000000000E+00  0.51322571535E+02  0.51322571535E+02  0.00000000000E+00 0.  1.
         21   -1    0    0  502  503 -0.00000000000E+00 -0.00000000000E+00 -0.21587132450E+04  0.21587132450E+04  0.00000000000E+00 0.  1.
         -6    2    1    2    0  503  0.44734678875E+02  0.51181678306E+02 -0.19721727735E+04  0.19808552473E+04  0.17234066908E+03 0.  0.
        -24    2    3    3    0    0 -0.26181928131E+02 -0.39262571836E+01 -0.63840091531E+03  0.64405477243E+03  0.80931528860E+02 0.  0.
          6    2    1    2  501    0 -0.44734678875E+02 -0.51181678306E+02 -0.13521789992E+03  0.22918056927E+03  0.17210199646E+03 0.  0.
         24    2    5    5    0    0 -0.90199787112E+02 -0.16166857494E+02 -0.65360798541E+02  0.13865312395E+03  0.80964720209E+02 0.  0.
          5    1    5    5  501    0  0.45465108237E+02 -0.35014820812E+02 -0.69857101380E+02  0.90527445323E+02  0.47000000000E+01 0. -1.
        -11    1    6    6    0    0 -0.34723071268E+02 -0.19050322095E+02  0.13803716178E+02  0.41942210606E+02  0.00000000000E+00 0.  1.
         12    1    6    6    0    0 -0.55476715843E+02  0.28834646009E+01 -0.79164514719E+02  0.96710913342E+02  0.00000000000E+00 0. -1.
         -5    1    3    3    0  503  0.70916607007E+02  0.55107935490E+02 -0.13337718582E+04  0.13368004748E+04  0.47000000000E+01 0.  1.
         13    1    4    4    0    0  0.22559073362E+01  0.35200557878E+02 -0.33062152972E+03  0.33249776587E+03  0.00000000000E+00 0. -1.
        -14    1    4    4    0    0 -0.28437835468E+02 -0.39126815062E+02 -0.30777938559E+03  0.31155700656E+03  0.00000000000E+00 0.  1.
</event>
<event>
12    1  0.8691829E-002  0.2600742E+03  0.7818608E-02  0.1107184E+00
         21   -1    0    0  501  502  0.00000000000E+00  0.00000000000E+00  0.42337616741E+03  0.42337616741E+03  0.00000000000E+00 0. -1.
         21   -1    0    0  502  503 -0.00000000000E+00 -0.00000000000E+00 -0.25657871197E+03  0.25657871197E+03  0.00000000000E+00 0. -1.
         -6    2    1    2    0  503 -0.69146781307E+02  0.18156344301E+03 -0.12576357064E+03  0.28888589364E+03  0.17289309599E+03 0.  0.
        -24    2    3    3    0    0 -0.19548399099E+02  0.19328031633E+03 -0.10240479118E+03  0.23262749679E+03  0.76742363922E+02 0.  0.
          6    2    1    2  501    0  0.69146781307E+02 -0.18156344301E+03  0.29256102608E+03  0.39106898574E+03  0.17203614861E+03 0.  0.
         24    2    5    5    0    0 -0.66963555595E+01 -0.58496479531E+02  0.57543724309E+02  0.11511087110E+03  0.80452179223E+02 0.  0.
          5    1    5    5  501    0  0.75843136866E+02 -0.12306696348E+03  0.23501730177E+03  0.27595811465E+03  0.47000000000E+01 0. -1.
        -13    1    6    6    0    0 -0.95476346337E+01  0.16155666388E+02  0.30203533590E+02  0.35558632213E+02  0.00000000000E+00 0.  1.
         14    1    6    6    0    0  0.28512790742E+01 -0.74652145919E+02  0.27340190720E+02  0.79552238883E+02  0.00000000000E+00 0. -1.
         -5    1    3    3    0  503 -0.49598382207E+02 -0.11716873318E+02 -0.23358779454E+02  0.56258396845E+02  0.47000000000E+01 0.  1.
         11    1    4    4    0    0 -0.41788087098E+02  0.15609735366E+03 -0.61077234972E+02  0.17275143031E+03  0.00000000000E+00 0. -1.
        -12    1    4    4    0    0  0.22239687999E+02  0.37182962669E+02 -0.41327556212E+02  0.59876066484E+02  0.00000000000E+00 0.  1.
</event>
<event>
12    1  0.8691829E-002  0.1884510E+03  0.7818608E-02  0.1159930E+00
         21   -1    0    0  503  502  0.00000000000E+00  0.00000000000E+00  0.40126289935E+03  0.40126289935E+03  0.00000000000E+00 0. -1.
         21   -1    0    0  501  503 -0.00000000000E+00 -0.00000000000E+00 -0.22868265798E+03  0.22868265798E+03  0.00000000000E+00 0. -1.
          6    2    1    2  501    0 -0.14106169871E+02 -0.74733845561E+02 -0.16040196918E+03  0.24747237349E+03  0.17242288776E+03 0.  0.
         24    2    3    3    0    0 -0.63778165705E+01  0.23785888036E+02 -0.45527237944E+02  0.95867099083E+02  0.80692789504E+02 0.  0.
         -6    2    1    2    0  502  0.14106169871E+02  0.74733845561E+02  0.33298221055E+03  0.38247318384E+03  0.17211755319E+03 0.  0.
        -24    2    5    5    0    0  0.28726835672E+02 -0.23564651161E+02  0.14468694226E+03  0.16950943954E+03  0.80116259030E+02 0.  0.
          5    1    3    3  501    0 -0.77283533002E+01 -0.98519733596E+02 -0.11487473124E+03  0.15160527441E+03  0.47000000000E+01 0. -1.
        -11    1    4    4    0    0  0.32394707609E+02  0.26199207924E+02 -0.37806720381E+02  0.56259787441E+02  0.00000000000E+00 0.  1.
         12    1    4    4    0    0 -0.38772524179E+02 -0.24133198882E+01 -0.77205175629E+01  0.39607311643E+02  0.00000000000E+00 0. -1.
         -5    1    5    5    0  502 -0.14620665801E+02  0.98298496722E+02  0.18829526829E+03  0.21296374430E+03  0.47000000000E+01 0.  1.
         13    1    6    6    0    0  0.46858056387E+02 -0.23287578521E+01  0.41584441647E+02  0.62692633926E+02  0.00000000000E+00 0. -1.
        -14    1    6    6    0    0 -0.18131220715E+02 -0.21235893309E+02  0.10310250061E+03  0.10681680561E+03  0.00000000000E+00 0.  1.
</event>
<event>
12    1  0.8691829E-002  0.1761993E+03  0.7818608E-02  0.1172757E+00
         21   -1    0    0  503  502  0.00000000000E+00  0.00000000000E+00  0.48043539405E+02  0.48043539405E+02  0.00000000000E+00 0. -1.
         21   -1    0    0  501  503 -0.00000000000E+00 -0.00000000000E+00 -0.72209971953E+03  0.72209971953E+03  0.00000000000E+00 0. -1.
          6    2    1    2  501    0  0.26406928590E+02  0.66788656705E+01 -0.47151926584E+03  0.50168954253E+03  0.16917460182E+03 0.  0.
         24    2    3    3    0    0 -0.36177024052E+02  0.36187858621E+02 -0.34032551185E+03  0.35329337385E+03  0.79852462757E+02 0.  0.
         -6    2    1    2    0  502 -0.26406928590E+02 -0.66788656705E+01 -0.20253691428E+03  0.26845371640E+03  0.17408119680E+03 0.  0.
        -24    2    5    5    0    0 -0.69270524351E+02 -0.14242234353E+02 -0.19683389131E+03  0.22430502607E+03  0.81042687326E+02 0.  0.
          5    1    3    3  501    0  0.62583952642E+02 -0.29508992950E+02 -0.13119375399E+03  0.14839616868E+03  0.47000000000E+01 0. -1.
        -13    1    4    4    0    0 -0.13821360844E+02  0.10420094359E+02 -0.29989309432E+03  0.30039220430E+03  0.00000000000E+00 0.  1.
         14    1    4    4    0    0 -0.22355663208E+02  0.25767764262E+02 -0.40432417530E+02  0.52901169551E+02  0.00000000000E+00 0. -1.
         -5    1    5    5    0  502  0.42863595760E+02  0.75633686823E+01 -0.57030229759E+01  0.44148690336E+02  0.47000000000E+01 0.  1.
         13    1    6    6    0    0 -0.61488337091E+02 -0.38413415884E+02 -0.95874452109E+02  0.12020115093E+03  0.00000000000E+00 0. -1.
        -14    1    6    6    0    0 -0.77821872598E+01  0.24171181532E+02 -0.10095943920E+03  0.10410387514E+03  0.00000000000E+00 0.  1.
</event>
<event>
12    1  0.8691829E-002  0.2816672E+03  0.7818608E-02  0.1095536E+00
         21   -1    0    0  501  502  0.00000000000E+00  0.00000000000E+00  0.24014528741E+04  0.24014528741E+04  0.00000000000E+00 0. -1.
         21   -1    0    0  502  503 -0.00000000000E+00 -0.00000000000E+00 -0.32489813543E+02  0.32489813543E+02  0.00000000000E+00 0.  1.
         -6    2    1    2    0  503  0.21700773424E+03 -0.42750216010E+02  0.11066152546E+04  0.11405524179E+04  0.16535585412E+03 0.  0.
        -24    2    3    3    0    0  0.17881179494E+03 -0.53056459597E+02  0.10606145020E+04  0.10796976097E+04  0.77814912934E+02 0.  0.
          6    2    1    2  501    0 -0.21700773424E+03  0.42750216010E+02  0.12623478059E+04  0.12933902697E+04  0.17440317962E+03 0.  0.
         24    2    5    5    0    0 -0.20016741970E+03 -0.10421057789E+02  0.11053522285E+04  0.11267154910E+04  0.86652490829E+02 0.  0.
          5    1    5    5  501    0 -0.16840314543E+02  0.53171273800E+02  0.15699557737E+03  0.16667477873E+03  0.47000000000E+01 0. -1.
        -13    1    6    6    0    0 -0.12899445046E+03 -0.57370189161E+01  0.47142968751E+03  0.48879283127E+03  0.00000000000E+00 0.  1.
         14    1    6    6    0    0 -0.71172969238E+02 -0.46840388732E+01  0.63392254102E+03  0.63792265972E+03  0.00000000000E+00 0. -1.
         -5    1    3    3    0  503  0.38195939301E+02  0.10306243587E+02  0.46000752671E+02  0.60854808209E+02  0.47000000000E+01 0.  1.
         11    1    4    4    0    0  0.61518351369E+02 -0.24602068744E+02  0.59564460510E+03  0.59931816670E+03  0.00000000000E+00 0. -1.
        -12    1    4    4    0    0  0.11729344358E+03 -0.28454390853E+02  0.46496989686E+03  0.48037944300E+03  0.00000000000E+00 0.  1.
</event>
<event>
12    1  0.8691829E-002  0.2522247E+03  0.7818608E-02  0.1111969E+00
         21   -1    0    0  501  502  0.00000000000E+00  0.00000000000E+00  0.22021625327E+03  0.22021625327E+03  0.00000000000E+00 0. -1.
         21   -1    0    0  502  503 -0.00000000000E+00 -0.00000000000E+00 -0.36798388931E+03  0.36798388931E+03  0.00000000000E+00 0.  1.
         -6    2    1    2    0  503  0.18180859887E+03 -0.26321633966E+02 -0.21067533727E+03  0.32863567534E+03  0.17282972643E+03 0.  0.
        -24    2    3    3    0    0  0.12818290158E+03  0.80718939283E+00 -0.53051282696E+02  0.15987809463E+03  0.79467343837E+02 0.  0.
          6    2    1    2  501    0 -0.18180859887E+03  0.26321633966E+02  0.62907701233E+02  0.25956446724E+03  0.17224731852E+03 0.  0.
         24    2    5    5    0    0 -0.21287648996E+02  0.26350114790E+02  0.24506406443E+01  0.87971570136E+02  0.81151087259E+02 0.  0.
          5    1    5    5  501    0 -0.16052094988E+03 -0.28480824880E-01  0.60457060588E+02  0.17159289710E+03  0.47000000000E+01 0. -1.
        -13    1    6    6    0    0 -0.51459805211E+02  0.11122283907E+02 -0.63977452188E+01  0.53035345719E+02  0.00000000000E+00 0.  1.
         14    1    6    6    0    0  0.30172156215E+02  0.15227830883E+02  0.88483858631E+01  0.34936224416E+02  0.00000000000E+00 0. -1.
         -5    1    3    3    0  503  0.53625697297E+02 -0.27128823358E+02 -0.15762405457E+03  0.16875758071E+03  0.47000000000E+01 0.  1.
         11    1    4    4    0    0  0.11620632654E+03 -0.12207591106E+02 -0.69308238298E+02  0.13585495024E+03  0.00000000000E+00 0. -1.
        -12    1    4    4    0    0  0.11976575033E+02  0.13014780499E+02  0.16256955603E+02  0.24023144391E+02  0.00000000000E+00 0.  1.
</event>
<event>
12    1  0.8691829E-002  0.1876487E+03  0.7818608E-02  0.1161344E+00
         21   -1    0    0  501  502  0.00000000000E+00  0.00000000000E+00  0.50134561593E+03  0.50134561593E+03  0.00000000000E+00 0. -1.
         21   -1    0    0  502  503 -0.00000000000E+00 -0.00000000000E+00 -0.12892939351E+03  0.12892939351E+03  0.00000000000E+00 0. -1.
         -6    2    1    2    0  503 -0.50013017341E+01  0.77482917657E+02 -0.27715346910E+02  0.18968439501E+03  0.17083153605E+03 0.  0.
        -24    2    3    3    0    0  0.48365004147E+02  0.87020522896E+02 -0.43669108439E+02  0.13297865435E+03  0.76580587936E+02 0.  0.
          6    2    1    2  501    0  0.50013017341E+01 -0.77482917657E+02  0.40013156933E+03  0.44059061443E+03  0.16729076843E+03 0.  0.
         24    2    5    5    0    0 -0.12871791906E+02 -0.27190464011E+02  0.82574863460E+02  0.11854538498E+03  0.79557500364E+02 0.  0.
          5    1    5    5  501    0  0.17873093640E+02 -0.50292453646E+02  0.31755670587E+03  0.32204522945E+03  0.47000000000E+01 0. -1.
        -13    1    6    6    0    0  0.17019518277E+02  0.21697740758E+02  0.23310353759E+02  0.36108566141E+02  0.00000000000E+00 0.  1.
         14    1    6    6    0    0 -0.29891310183E+02 -0.48888204769E+02  0.59264509701E+02  0.82436818838E+02  0.00000000000E+00 0. -1.
         -5    1    3    3    0  503 -0.53366305881E+02 -0.95376052392E+01  0.15953761529E+02  0.56705740662E+02  0.47000000000E+01 0.  1.
         11    1    4    4    0    0  0.27787165237E+02  0.21102397427E+02 -0.52836189522E+02  0.63317459301E+02  0.00000000000E+00 0. -1.
        -12    1    4    4    0    0  0.20577838910E+02  0.65918125469E+02  0.91670810826E+01  0.69661195046E+02  0.00000000000E+00 0.  1.
</event>
<event>
12    1  0.8691829E-002  0.2106266E+03  0.7818608E-02  0.1141428E+00
         21   -1    0    0  503  502  0.00000000000E+00  0.00000000000E+00  0.85762913300E+03  0.85762913300E+03  0.00000000000E+00 0. -1.
         21   -1    0    0  501  503 -0.00000000000E+00 -0.00000000000E+00 -0.54431258236E+02  0.54431258236E+02  0.00000000000E+00 0. -1.
          6    2    1    2  501    0  0.72792763700E+02 -0.95177251276E+02  0.29361355031E+03  0.36134816413E+03  0.17322264052E+03 0.  0.
         24    2    3    3    0    0  0.11335141349E+03 -0.45448763805E+02  0.21051047352E+03  0.25624755561E+03  0.80212325880E+02 0.  0.
         -6    2    1    2    0  502 -0.72792763700E+02  0.95177251276E+02  0.50958432445E+03  0.55071222711E+03  0.17102712577E+03 0.  0.
        -24    2    5    5    0    0 -0.98234102024E+02  0.21584709817E+02  0.25471241228E+03  0.28416972492E+03  0.75882679814E+02 0.  0.
          5    1    3    3  501    0 -0.40558649792E+02 -0.49728487470E+02  0.83103076786E+02  0.10510060852E+03  0.47000000000E+01 0. -1.
        -11    1    4    4    0    0  0.60191058951E+01  0.35999375171E+01 -0.62833889117E+01  0.94164835326E+01  0.00000000000E+00 0.  1.
         12    1    4    4    0    0  0.10733230760E+03 -0.49048701323E+02  0.21679386243E+03  0.24683107208E+03  0.00000000000E+00 0. -1.
         -5    1    5    5    0  502  0.25441338324E+02  0.73592541459E+02  0.25487191217E+03  0.26654250218E+03  0.47000000000E+01 0.  1.
         11    1    6    6    0    0 -0.52036698539E+02  0.29703796339E+02  0.63573829397E+02  0.87359975366E+02  0.00000000000E+00 0. -1.
        -12    1    6    6    0    0 -0.46197403485E+02 -0.81190865219E+01  0.19113858288E+03  0.19680974956E+03  0.00000000000E+00 0.  1.
</event>
<event>
12    1  0.8691829E-002  0.1916444E+03  0.7818608E-02  0.1157476E+00
         21   -1    0    0  501  502  0.00000000000E+00  0.00000000000E+00  0.24152705977E+03  0.24152705977E+03  0.00000000000E+00 0.  1.
         21   -1    0    0  502  503 -0.00000000000E+00 -0.00000000000E+00 -0.25252602899E+03  0.25252602899E+03  0.00000000000E+00 0.  1.
         -6    2    1    2    0  503  0.21212128693E+02 -0.78443447052E+02 -0.16265723777E+03  0.25136616992E+03  0.17356337630E+03 0.  0.
        -24    2    3    3    0    0 -0.14723463300E+02  0.18199142513E+02 -0.43421830326E+02  0.93662874846E+02  0.79619655963E+02 0.  0.
          6    2    1    2  501    0 -0.21212128693E+02  0.78443447052E+02  0.15165826854E+03  0.24268691884E+03  0.17115309337E+03 0.  0.
         24    2    5    5    0    0 -0.76715114889E+02  0.73820681916E+02  0.10429784687E+03  0.16942675931E+03  0.80577192648E+02 0.  0.
          5    1    5    5  501    0  0.55502986196E+02  0.46227651362E+01  0.47360421668E+02  0.73260159532E+02  0.47000000000E+01 0. -1.
        -13    1    6    6    0    0 -0.26211799326E+02  0.78306879510E+02  0.69502882524E+02  0.10793366704E+03  0.00000000000E+00 0.  1.
         14    1    6    6    0    0 -0.50503315562E+02 -0.44861975939E+01  0.34794964351E+02  0.61493092261E+02  0.00000000000E+00 0. -1.
         -5    1    3    3    0  503  0.35935591994E+02 -0.96642589565E+02 -0.11923540744E+03  0.15770329508E+03  0.47000000000E+01 0.  1.
         13    1    4    4    0    0  0.12118119752E+02  0.37819818409E+01 -0.58363373598E+02  0.59728013450E+02  0.00000000000E+00 0. -1.
        -14    1    4    4    0    0 -0.26841583053E+02  0.14417160672E+02  0.14941543271E+02  0.33934861396E+02  0.00000000000E+00 0.  1.
</event>
<event>
12    1  0.8691829E-002  0.2814188E+03  0.7818608E-02  0.1095019E+00
         21   -1    0    0  503  502  0.00000000000E+00  0.00000000000E+00  0.24531080393E+03  0.24531080393E+03  0.00000000000E+00 0.  1.
         21   -1    0    0  501  503 -0.00000000000E+00 -0.00000000000E+00 -0.37992691215E+03  0.37992691215E+03  0.00000000000E+00 0. -1.
          6    2    1    2  501    0 -0.57562868456E+02  0.21526990756E+03 -0.18932113681E+03  0.33855112692E+03  0.17064511645E+03 0.  0.
         24    2    3    3    0    0 -0.52985263414E+02  0.23351865576E+03 -0.19448987991E+03  0.31848181741E+03  0.79157778581E+02 0.  0.
         -6    2    1    2    0  502  0.57562868456E+02 -0.21526990756E+03  0.54705028599E+02  0.28668658916E+03  0.17187769874E+03 0.  0.
        -24    2    5    5    0    0  0.21890320846E+02 -0.16331460233E+03 -0.24629727538E+02  0.18525691931E+03  0.81010228947E+02 0.  0.
          5    1    3    3  501    0 -0.45776050420E+01 -0.18248748199E+02  0.51687430962E+01  0.20069309504E+02  0.47000000000E+01 0. -1.
        -11    1    4    4    0    0  0.13944564859E+02  0.12500498226E+02 -0.40601715274E+01  0.19162419937E+02  0.00000000000E+00 0.  1.
         12    1    4    4    0    0 -0.66929828273E+02  0.22101815753E+03 -0.19042970838E+03  0.29931939748E+03  0.00000000000E+00 0. -1.
         -5    1    5    5    0  502  0.35672547610E+02 -0.51955305233E+02  0.79334756137E+02  0.10142966985E+03  0.47000000000E+01 0.  1.
         11    1    6    6    0    0 -0.26361164158E+02 -0.32927041169E+02  0.67878036017E+01  0.42722070334E+02  0.00000000000E+00 0. -1.
        -12    1    6    6    0    0  0.48251485004E+02 -0.13038756116E+03 -0.31417531140E+02  0.14253484898E+03  0.00000000000E+00 0.  1.
</event>
<event>
12    1  0.8691829E-002  0.2066600E+03  0.7818608E-02  0.1144715E+00
         21   -1    0    0  501  502  0.00000000000E+00  0.00000000000E+00  0.18274403518E+03  0.18274403518E+03  0.00000000000E+00 0.  1.
         21   -1    0    0  502  503 -0.00000000000E+00 -0.00000000000E+00 -0.59157932112E+03  0.59157932112E+03  0.00000000000E+00 0. -1.
         -6    2    1    2    0  503  0.95556194627E+02  0.58336826218E+02 -0.50619740542E+03  0.54587699704E+03  0.17091433826E+03 0.  0.
        -24    2    3    3    0    0  0.89097231806E+02  0.36584975842E+02 -0.50760020618E+03  0.52266236706E+03  0.79001287636E+02 0.  0.
          6    2    1    2  501    0 -0.95556194627E+02 -0.58336826218E+02  0.97362119480E+02  0.22844635925E+03  0.17370718212E+03 0.  0.
         24    2    5    5    0    0 -0.20398708967E+02 -0.50637003826E+02  0.11576864950E+03  0.15054369394E+03  0.79251562081E+02 0.  0.
          5    1    5    5  501    0 -0.75157485660E+02 -0.76998223916E+01 -0.18406530023E+02  0.77902665315E+02  0.47000000000E+01 0. -1.
        -11    1    6    6    0    0 -0.34688716735E+02 -0.77225406322E+01  0.12275700979E+02  0.37598371468E+02  0.00000000000E+00 0.  1.
         12    1    6    6    0    0  0.14290007768E+02 -0.42914463194E+02  0.10349294852E+03  0.11294532247E+03  0.00000000000E+00 0. -1.
         -5    1    3    3    0  503  0.64589628215E+01  0.21751850376E+02  0.14028007609E+01  0.23214629988E+02  0.47000000000E+01 0.  1.
         11    1    4    4    0    0  0.42070874438E+02  0.29889783041E+02 -0.41869322884E+03  0.42186179903E+03  0.00000000000E+00 0. -1.
        -12    1    4    4    0    0  0.47026357368E+02  0.66951928009E+01 -0.88906977342E+02  0.10080056802E+03  0.00000000000E+00 0.  1.
</event>
<event>
12    1  0.8691829E-002  0.2455901E+03  0.7818608E-02  0.1116318E+00
         21   -1    0    0  503  502  0.00000000000E+00  0.00000000000E+00  0.29103880141E+03  0.29103880141E+03  0.00000000000E+00 0. -1.
         21   -1    0    0  501  503 -0.00000000000E+00 -0.00000000000E+00 -0.22640488865E+03  0.22640488865E+03  0.00000000000E+00 0.  1.
          6    2    1    2  501    0  0.13027827709E+03 -0.11704431194E+03 -0.44843040178E+02  0.24965054967E+03  0.17217054991E+03 0.  0.
         24    2    3    3    0    0  0.77007700812E+02 -0.66442505897E+02  0.46688845792E+02  0.13218364700E+03  0.70341137607E+02 0.  0.
         -6    2    1    2    0  502 -0.13027827709E+03  0.11704431194E+03  0.10947695294E+03  0.26779314038E+03  0.17045868230E+03 0.  0.
        -24    2    5    5    0    0 -0.13663682395E+02  0.62414513616E+02  0.12456468405E+02  0.10649080630E+03  0.84278469935E+02 0.  0.
          5    1    3    3  501    0  0.53270576280E+02 -0.50601806047E+02 -0.91531885970E+02  0.11746690266E+03  0.47000000000E+01 0. -1.
        -11    1    4    4    0    0  0.76492369062E+02 -0.61697810462E+02  0.14138697301E+02  0.99285472763E+02  0.00000000000E+00 0.  1.
         12    1    4    4    0    0  0.51533174968E+00 -0.47446954348E+01  0.32550148491E+02  0.32898174241E+02  0.00000000000E+00 0. -1.
         -5    1    5    5    0  502 -0.11661459470E+03  0.54629798327E+02  0.97020484533E+02  0.16130233408E+03  0.47000000000E+01 0.  1.
         13    1    6    6    0    0 -0.40999704282E+02  0.39165260605E+01  0.44276976460E+01  0.41423657902E+02  0.00000000000E+00 0. -1.
        -14    1    6    6    0    0  0.27336021886E+02  0.58497987556E+02  0.80287707587E+01  0.65067148397E+02  0.00000000000E+00 0.  1.
</event>
<event>
12    1  0.8691829E-002  0.2568664E+03  0.7818608E-02  0.1109261E+00
         21   -1    0    0  501  502  0.00000000000E+00  0.00000000000E+00  0.16273373590E+03  0.16273373590E+03  0.00000000000E+00 0.  1.
         21   -1    0    0  502  503 -0.00000000000E+00 -0.00000000000E+00 -0.63082971588E+03  0.63082971588E+03  0.00000000000E+00 0.  1.
         -6    2    1    2    0  503  0.14449550642E+03 -0.12568870906E+03 -0.47282337711E+03  0.53809134296E+03  0.17118336504E+03 0.  0.
        -24    2    3    3    0    0  0.16831036862E+03 -0.78517241324E+02 -0.34341002635E+03  0.39822640673E+03  0.78488772774E+02 0.  0.
          6    2    1    2  501    0 -0.14449550642E+03  0.12568870906E+03  0.47273971279E+01  0.25547210882E+03  0.16901789000E+03 0.  0.
         24    2    5    5    0    0 -0.13632013915E+03  0.29789925048E+02 -0.66097366559E+01  0.15844616379E+03  0.74772175500E+02 0.  0.
          5    1    5    5  501    0 -0.81753672647E+01  0.95898784014E+02  0.11337133784E+02  0.97025945023E+02  0.47000000000E+01 0. -1.
        -11    1    6    6    0    0  0.79004318442E+01  0.86785449843E+01 -0.47937459718E+01  0.12677301243E+02  0.00000000000E+00 0.  1.
         12    1    6    6    0    0 -0.14422057100E+03  0.21111380064E+02 -0.18159906840E+01  0.14576886255E+03  0.00000000000E+00 0. -1.
         -5    1    3    3    0  503 -0.23814862203E+02 -0.47171467738E+02 -0.12941335077E+03  0.13986493623E+03  0.47000000000E+01 0.  1.
         11    1    4    4    0    0  0.10944326222E+03 -0.49671796720E+02 -0.28913331867E+03  0.31311849354E+03  0.00000000000E+00 0. -1.
        -12    1    4    4    0    0  0.58867106404E+02 -0.28845444604E+02 -0.54276707677E+02  0.85107913186E+02  0.00000000000E+00 0.  1.
</event>
<event>
12    1  0.8691829E-002  0.1937549E+03  0.7818608E-02  0.1156580E+00
         21   -1    0    0  501  502  0.00000000000E+00  0.00000000000E+00  0.13747478177E+03  0.13747478177E+03  0.00000000000E+00 0.  1.
         21   -1    0    0  502  503 -0.00000000000E+00 -0.00000000000E+00 -0.30004338278E+03  0.30004338278E+03  0.00000000000E+00 0. -1.
         -6    2    1    2    0  503  0.67076399370E+02  0.59501650450E+02 -0.15837716422E+03  0.25024845589E+03  0.17175934842E+03 0.  0.
        -24    2    3    3    0    0 -0.99666064713E+01 -0.19680460776E+02 -0.59038270395E+02  0.10160210607E+03  0.79692012185E+02 0.  0.
          6    2    1    2  501    0 -0.67076399370E+02 -0.59501650450E+02 -0.41914367944E+01  0.18726970866E+03  0.16435536462E+03 0.  0.
         24    2    5    5    0    0 -0.81374642097E+02 -0.53284815001E+02  0.46103287256E+02  0.13440442652E+03  0.80485606710E+02 0.  0.
          5    1    5    5  501    0  0.14298242727E+02 -0.62168354490E+01 -0.50294724050E+02  0.52865282136E+02  0.47000000000E+01 0. -1.
        -11    1    6    6    0    0 -0.46324562906E+01 -0.29154397959E+02  0.45159959616E+02  0.53952391274E+02  0.00000000000E+00 0.  1.
         12    1    6    6    0    0 -0.76742185806E+02 -0.24130417042E+02  0.94332763968E+00  0.80452035251E+02  0.00000000000E+00 0. -1.
         -5    1    3    3    0  503  0.77043005841E+02  0.79182111227E+02 -0.99338893829E+02  0.14864634982E+03  0.47000000000E+01 0.  1.
         13    1    4    4    0    0 -0.19469841822E+02 -0.35329431273E+02 -0.57936416028E+00  0.40343266074E+02  0.00000000000E+00 0. -1.
        -14    1    4    4    0    0  0.95032353509E+01  0.15648970497E+02 -0.58458906234E+02  0.61258839998E+02  0.00000000000E+00 0.  1.
</event>
<event>
12    1  0.8691829E-002  0.2279992E+03  0.7818608E-02  0.1130828E+00
         21   -1    0    0  503  502  0.00000000000E+00  0.00000000000E+00  0.26930279369E+03  0.26930279369E+03  0.00000000000E+00 0.  1.
         21   -1    0    0  501  503 -0.00000000000E+00 -0.00000000000E+00 -0.45861737784E+03  0.45861737784E+03  0.00000000000E+00 0. -1.
          6    2    1    2  501    0  0.69574905685E+02  0.13151671526E+03 -0.37927666393E+03  0.44253183520E+03  0.17276088523E+03 0.  0.
         24    2    3    3    0    0  0.51952717764E+01  0.54435063394E+02 -0.73917064874E+02  0.12104638754E+03  0.78729463876E+02 0.  0.
         -6    2    1    2    0  502 -0.69574905685E+02 -0.13151671526E+03  0.18996207978E+03  0.28538833632E+03  0.15239290292E+03 0.  0.
        -24    2    5    5    0    0 -0.62906598860E+02 -0.14962975186E+03  0.19325038456E+03  0.26525251354E+03  0.81650976639E+02 0.  0.
          5    1    3    3  501    0  0.64379633908E+02  0.77081651865E+02 -0.30535959906E+03  0.32148544766E+03  0.47000000000E+01 0. -1.
        -13    1    4    4    0    0 -0.18318051642E+02  0.23855445639E+02 -0.76685279031E+02  0.82372721958E+02  0.00000000000E+00 0.  1.
         14    1    4    4    0    0  0.23513323419E+02  0.30579617754E+02  0.27682141571E+01  0.38673665585E+02  0.00000000000E+00 0. -1.
         -5    1    5    5    0  502 -0.66683068253E+01  0.18113036600E+02 -0.32883047759E+01  0.20135822782E+02  0.47000000000E+01 0.  1.
         13    1    6    6    0    0  0.16143964107E+02 -0.41678014096E+02  0.71668437493E+02  0.84463301906E+02  0.00000000000E+00 0. -1.
        -14    1    6    6    0    0 -0.79050562967E+02 -0.10795173776E+03  0.12158194707E+03  0.18078921164E+03  0.00000000000E+00 0.  1.
</event>
<event>
12    1  0.8691829E-002  0.1978086E+03  0.7818608E-02  0.1151766E+00
         21   -1    0    0  503  502  0.00000000000E+00  0.00000000000E+00  0.13111915613E+04  0.13111915613E+04  0.00000000000E+00 0. -1.
         21   -1    0    0  501  503 -0.00000000000E+00 -0.00000000000E+00 -0.10514890393E+03  0.10514890393E+03  0.00000000000E+00 0. -1.
          6    2    1    2  501    0  0.34354731244E+02  0.90621580442E+02  0.35801379910E+01  0.19784102740E+03  0.17244052985E+03 0.  0.
         24    2    3    3    0    0  0.23163891070E+02  0.55198847722E+01  0.53152058940E+02  0.98608981893E+02  0.79571068631E+02 0.  0.
         -6    2    1    2    0  502 -0.34354731244E+02 -0.90621580442E+02  0.12024625194E+04  0.12184994378E+04  0.17155830224E+03 0.  0.
        -24    2    5    5    0    0  0.21765273016E+02  0.19451579491E+00  0.38512467035E+03  0.39420563846E+03  0.81260745359E+02 0.  0.
          5    1    3    3  501    0  0.11190840174E+02  0.85101695669E+02 -0.49571920949E+02  0.99232045511E+02  0.47000000000E+01 0. -1.
        -13    1    4    4    0    0 -0.11336436738E+02 -0.27503278169E+02  0.38966475419E+01  0.30002149424E+02  0.00000000000E+00 0.  1.
         14    1    4    4    0    0  0.34500327808E+02  0.33023162941E+02  0.49255411399E+02  0.68606832470E+02  0.00000000000E+00 0. -1.
         -5    1    5    5    0  502 -0.56120004259E+02 -0.90816096236E+02  0.81733784904E+03  0.82429379937E+03  0.47000000000E+01 0.  1.
         11    1    6    6    0    0 -0.29558208370E+02  0.11245320903E+02  0.14547895623E+03  0.14887669942E+03  0.00000000000E+00 0. -1.
        -12    1    6    6    0    0  0.51323481386E+02 -0.11050805108E+02  0.23964571412E+03  0.24532893904E+03  0.00000000000E+00 0.  1.
</event>
<event>
12    1  0.8691829E-002  0.2024348E+03  0.7818608E-02  0.1148124E+00
         21   -1    0    0  501  502  0.00000000000E+00  0.00000000000E+00  0.18393877271E+03  0.18393877271E+03  0.00000000000E+00 0.  1.
         21   -1    0    0  502  503 -0.00000000000E+00 -0.00000000000E+00 -0.33620559955E+03  0.33620559955E+03  0.00000000000E+00 0. -1.
         -6    2    1    2    0  503  0.42977940419E+02 -0.95293898689E+02 -0.22890821016E+03  0.30557947757E+03  0.17335460174E+03 0.  0.
        -24    2    3    3    0    0  0.82190868430E+02 -0.10301627571E+03 -0.21123010464E+03  0.26162615864E+03  0.80389040707E+02 0.  0.
          6    2    1    2  501    0 -0.42977940419E+02  0.95293898689E+02  0.76641383323E+02  0.21456489470E+03  0.17098585295E+03 0.  0.
         24    2    5    5    0    0  0.89710783847E+01 -0.11112936236E+02  0.26289204169E+02  0.85807188056E+02  0.80422469914E+02 0.  0.
          5    1    5    5  501    0 -0.51949018804E+02  0.10640683492E+03  0.50352179154E+02  0.12875770664E+03  0.47000000000E+01 0. -1.
        -13    1    6    6    0    0  0.20590837308E+02  0.30390124391E+02  0.21246747358E+02  0.42414225383E+02  0.00000000000E+00 0.  1.
         14    1    6    6    0    0 -0.11619758923E+02 -0.41503060627E+02  0.50424568111E+01  0.43392962673E+02  0.00000000000E+00 0. -1.
         -5    1    3    3    0  503 -0.39212928011E+02  0.77223770195E+01 -0.17678105522E+02  0.43953318929E+02  0.47000000000E+01 0.  1.
         11    1    4    4    0    0  0.52393152205E+02 -0.68422501300E+01 -0.86074582992E+02  0.10099847832E+03  0.00000000000E+00 0. -1.
        -12    1    4    4    0    0  0.29797716224E+02 -0.96174025578E+02 -0.12515552164E+03  0.16062768032E+03  0.00000000000E+00 0.  1.
</event>
<event>
12    1  0.8691829E-002  0.1777670E+03  0.7818608E-02  0.1170711E+00
         21   -1    0    0  503  502  0.00000000000E+00  0.00000000000E+00  0.22640361554E+03  0.22640361554E+03  0.00000000000E+00 0.  1.
         21   -1    0    0  501  503 -0.00000000000E+00 -0.00000000000E+00 -0.15688207664E+03  0.15688207664E+03  0.00000000000E+00 0.  1.
          6    2    1    2  501    0 -0.25905549467E+02  0.29987866725E+02 -0.33232340445E+02  0.17795794659E+03  0.17027704678E+03 0.  0.
         24    2    3    3    0    0 -0.40554530640E+02  0.25442454840E+02 -0.82416719377E+02  0.12622356200E+03  0.82751939595E+02 0.  0.
         -6    2    1    2    0  502  0.25905549467E+02 -0.29987866725E+02  0.10275387935E+03  0.20532774559E+03  0.17329383643E+03 0.  0.
        -24    2    5    5    0    0  0.19200824567E+02 -0.25230007799E+02  0.14162185422E+03  0.16532274554E+03  0.79181030825E+02 0.  0.
          5    1    3    3  501    0  0.14648981173E+02  0.45454118844E+01  0.49184378932E+02  0.51734384596E+02  0.47000000000E+01 0. -1.
        -11    1    4    4    0    0  0.10864746628E+02  0.36526615235E+02 -0.54985137736E+02  0.66899938054E+02  0.00000000000E+00 0.  1.
         12    1    4    4    0    0 -0.51419277268E+02 -0.11084160395E+02 -0.27431581641E+02  0.59323623943E+02  0.00000000000E+00 0. -1.
         -5    1    5    5    0  502  0.67047249002E+01 -0.47578589256E+01 -0.38867974876E+02  0.40005000044E+02  0.47000000000E+01 0.  1.
         13    1    6    6    0    0  0.39396739333E+02  0.12736273248E+02  0.57623065920E+02  0.70955855659E+02  0.00000000000E+00 0. -1.
        -14    1    6    6    0    0 -0.20195914766E+02 -0.37966281047E+02  0.83998788304E+02  0.94366889883E+02  0.00000000000E+00 0.  1.
</event>
<event>
12    1  0.8691829E-002  0.2206433E+03  0.7818608E-02  0.1133496E+00
         21   -1    0    0  503  502  0.00000000000E+00  0.00000000000E+00  0.16652279971E+03  0.16652279971E+03  0.00000000000E+00 0. -1.
         21   -1    0    0  501  503 -0.00000000000E+00 -0.00000000000E+00 -0.33416778640E+03  0.33416778640E+03  0.00000000000E+00 0.  1.
          6    2    1    2  501    0  0.11019410330E+03 -0.82026531354E+02 -0.17315206608E+03  0.28047298051E+03  0.17266256849E+03 0.  0.
         24    2    3    3    0    0  0.13795541397E+03 -0.77130050959E+02 -0.16477562225E+03  0.25069176661E+03  0.10351142523E+03 0.  0.
         -6    2    1    2    0  502 -0.11019410330E+03  0.82026531354E+02  0.55070793942E+01  0.22021760560E+03  0.17203015329E+03 0.  0.
        -24    2    5    5    0    0 -0.13913477243E+03  0.95855903054E+02  0.89644037918E+01  0.18761611878E+03  0.81071625376E+02 0.  0.
          5    1    3    3  501    0 -0.27761310666E+02 -0.48964803952E+01 -0.83764438296E+01  0.29781213900E+02  0.47000000000E+01 0. -1.
        -11    1    4    4    0    0  0.73515634099E+02 -0.27816166781E+02 -0.14837203652E+03  0.16790636918E+03  0.00000000000E+00 0.  1.
         12    1    4    4    0    0  0.64439779871E+02 -0.49313884178E+02 -0.16403585734E+02  0.82785397429E+02  0.00000000000E+00 0. -1.
         -5    1    5    5    0  502  0.28940669123E+02 -0.13829371700E+02 -0.34573243976E+01  0.32601486820E+02  0.47000000000E+01 0.  1.
         11    1    6    6    0    0 -0.72688669306E+02  0.31958636318E+01  0.10942761204E+02  0.73577171817E+02  0.00000000000E+00 0. -1.
        -12    1    6    6    0    0 -0.66446103121E+02  0.92660039422E+02 -0.19783574122E+01  0.11403894696E+03  0.00000000000E+00 0.  1.
</event>
<event>
12    1  0.8691829E-002  0.2053616E+03  0.7818608E-02  0.1145836E+00
         21   -1    0    0  501  502  0.00000000000E+00  0.00000000000E+00  0.31363757022E+03  0.31363757022E+03  0.00000000000E+00 0. -1.
         21   -1    0    0  502  503 -0.00000000000E+00 -0.00000000000E+00 -0.13420337742E+03  0.13420337742E+03  0.00000000000E+00 0.  1.
         -6    2    1    2    0  503  0.85231594152E+02 -0.71824509183E+02  0.65731127707E+02  0.21310331696E+03  0.16931998638E+03 0.  0.
        -24    2    3    3    0    0 -0.85779152020E+01 -0.70757437873E+02  0.21718394532E+02  0.10937013342E+03  0.80062112005E+02 0.  0.
          6    2    1    2  501    0 -0.85231594152E+02  0.71824509183E+02  0.11370306509E+03  0.23473763068E+03  0.17248241500E+03 0.  0.
         24    2    5    5    0    0 -0.59423264497E+02  0.11532526446E+03  0.67788520205E+02  0.16626412469E+03  0.78850711486E+02 0.  0.
          5    1    5    5  501    0 -0.25808329655E+02 -0.43500755279E+02  0.45914544886E+02  0.68473505983E+02  0.47000000000E+01 0. -1.
        -11    1    6    6    0    0 -0.37176119777E+02  0.30147099116E+02 -0.98707685846E+01  0.48870681796E+02  0.00000000000E+00 0.  1.
         12    1    6    6    0    0 -0.22247144720E+02  0.85178165347E+02  0.77659288789E+02  0.11739344290E+03  0.00000000000E+00 0. -1.
         -5    1    3    3    0  503  0.93809509354E+02 -0.10670713099E+01  0.44012733175E+02  0.10373318354E+03  0.47000000000E+01 0.  1.
         13    1    4    4    0    0 -0.15239363848E+02  0.58067638416E+01  0.27848908803E+02  0.32272564793E+02  0.00000000000E+00 0. -1.
        -14    1    4    4    0    0  0.66614486456E+01 -0.76564201715E+02 -0.61305142714E+01  0.77097568623E+02  0.00000000000E+00 0.  1.
</event>
<event>
12    1  0.8691829E-002  0.2498151E+03  0.7818608E-02  0.1113635E+00
         21   -1    0    0  501  502  0.00000000000E+00  0.00000000000E+00  0.16181169522E+03  0.16181169522E+03  0.00000000000E+00 0. -1.
         21   -1    0    0  502  503 -0.00000000000E+00 -0.00000000000E+00 -0.43486485809E+03  0.43486485809E+03  0.00000000000E+00 0.  1.
         -6    2    1    2    0  503 -0.69405028635E+01 -0.18143388761E+03 -0.23927638841E+03  0.34592018833E+03  0.17158426644E+03 0.  0.
        -24    2    3    3    0    0 -0.31144152770E+02 -0.25521473036E+02 -0.68751344012E+02  0.11355113176E+03  0.80906170232E+02 0.  0.
          6    2    1    2  501    0  0.69405028635E+01  0.18143388761E+03 -0.33776774464E+02  0.25075636498E+03  0.16962151376E+03 0.  0.
         24    2    5    5    0    0  0.13626015094E+02  0.66437933111E+02  0.41232728449E+02  0.11321625754E+03  0.80734848941E+02 0.  0.
          5    1    5    5  501    0 -0.66855122307E+01  0.11499595450E+03 -0.75009502913E+02  0.13754010743E+03  0.47000000000E+01 0. -1.
        -13    1    6    6    0    0  0.15776707872E+02 -0.14439013326E+02  0.20660305561E+02  0.29736136988E+02  0.00000000000E+00 0.  1.
         14    1    6    6    0    0 -0.21506927778E+01  0.80876946438E+02  0.20572422888E+02  0.83480120556E+02  0.00000000000E+00 0. -1.
         -5    1    3    3    0  503  0.24203649907E+02 -0.15591241458E+03 -0.17052504439E+03  0.23236905657E+03  0.47000000000E+01 0.  1.
         13    1    4    4    0    0  0.26416731435E+02 -0.18568397223E+02 -0.22016964146E+02  0.39081655356E+02  0.00000000000E+00 0. -1.
        -14    1    4    4    0    0 -0.57560884205E+02 -0.69530758126E+01 -0.46734379866E+02  0.74469476399E+02  0.00000000000E+00 0.  1.
</event>
<event>
12    1  0.8691829E-002  0.1773608E+03  0.7818608E-02  0.1170779E+00
         21   -1    0    0  501  502  0.00000000000E+00  0.00000000000E+00  0.11329218703E+03  0.11329218703E+03  0.00000000000E+00 0.  1.
         21   -1    0    0  502  503 -0.00000000000E+00 -0.00000000000E+00 -0.31137675187E+03  0.31137675187E+03  0.00000000000E+00 0.  1.
         -6    2    1    2    0  503  0.38780990682E+02 -0.15234478437E+01 -0.17185807935E+03  0.24696570509E+03  0.17306234115E+03 0.  0.
        -24    2    3    3    0    0  0.67447943245E+02 -0.52003134386E+02 -0.13353586002E+03  0.17724716081E+03  0.79568706602E+02 0.  0.
          6    2    1    2  501    0 -0.38780990682E+02  0.15234478437E+01 -0.26226485488E+02  0.17770323381E+03  0.17141856561E+03 0.  0.
         24    2    5    5    0    0  0.16099044051E+02  0.52738496414E+01  0.42637560757E+02  0.89440950865E+02  0.76777141096E+02 0.  0.
          5    1    5    5  501    0 -0.54880034733E+02 -0.37504017978E+01 -0.68864046244E+02  0.88262282947E+02  0.47000000000E+01 0. -1.
        -11    1    6    6    0    0 -0.98138835454E+01 -0.31771606793E+02  0.20921602443E+02  0.39286903127E+02  0.00000000000E+00 0.  1.
         12    1    6    6    0    0  0.25912927596E+02  0.37045456435E+02  0.21715958313E+02  0.50154047738E+02  0.00000000000E+00 0. -1.
         -5    1    3    3    0  503 -0.28666952562E+02  0.50479686542E+02 -0.38322219329E+02  0.69718544283E+02  0.47000000000E+01 0.  1.
         13    1    4    4    0    0  0.60648885924E+01 -0.50915571687E+02 -0.38559454634E+02  0.64156136538E+02  0.00000000000E+00 0. -1.
        -14    1    4    4    0    0  0.61383054652E+02 -0.10875626985E+01 -0.94976405382E+02  0.11309102427E+03  0.00000000000E+00 0.  1.
</event>
<event>
12    1  0.8691829E-002  0.2742434E+03  0.7818608E-02  0.1099380E+00
         21   -1    0    0  501  502  0.00000000000E+00  0.00000000000E+00  0.19153949057E+03  0.19153949057E+03  0.00000000000E+00 0.  1.
         21   -1    0    0  502  503 -0.00000000000E+00 -0.00000000000E+00 -0.38758317455E+03  0.38758317455E+03  0.00000000000E+00 0. -1.
         -6    2    1    2    0  503 -0.20928365304E+03 -0.29068579225E+01 -0.95102890918E+02  0.28689250118E+03  0.17162357100E+03 0.  0.
        -24    2    3    3    0    0 -0.15068438030E+03 -0.29037656768E+02 -0.12462519536E+03  0.21610867624E+03  0.87307231379E+02 0.  0.
          6    2    1    2  501    0  0.20928365304E+03  0.29068579225E+01 -0.10094079306E+03  0.29223016394E+03  0.17720419792E+03 0.  0.
         24    2    5    5    0    0  0.70501252073E+02  0.44504657089E+02 -0.78190286101E+01  0.11993772439E+03  0.85865181978E+02 0.  0.
          5    1    5    5  501    0  0.13878240096E+03 -0.41597799167E+02 -0.93121764446E+02  0.17229243955E+03  0.47000000000E+01 0. -1.
        -11    1    6    6    0    0 -0.79860712092E+01 -0.16502043601E+02 -0.92165802026E+01  0.20519262340E+02  0.00000000000E+00 0.  1.
         12    1    6    6    0    0  0.78487323283E+02  0.61006700690E+02  0.13975515925E+01  0.99418462046E+02  0.00000000000E+00 0. -1.
         -5    1    3    3    0  503 -0.58599272741E+02  0.26130798845E+02  0.29522304442E+02  0.70783824944E+02  0.47000000000E+01 0.  1.
         11    1    4    4    0    0 -0.14170658266E+03 -0.58656873837E+01 -0.74599164941E+02  0.16025042049E+03  0.00000000000E+00 0. -1.
        -12    1    4    4    0    0 -0.89777976348E+01 -0.23171969384E+02 -0.50026030419E+02  0.55858255746E+02  0.00000000000E+00 0.  1.
</event>
<event>
12    1  0.8691829E-002  0.2418739E+03  0.7818608E-02  0.1119248E+00
         21   -1    0    0  501  502  0.00000000000E+00  0.00000000000E+00  0.48464895767E+03  0.48464895767E+03  0.00000000000E+00 0. -1.
         21   -1    0    0  502  503 -0.00000000000E+00 -0.00000000000E+00 -0.13987751414E+03  0.13987751414E+03  0.00000000000E+00 0. -1.
         -6    2    1    2    0  503 -0.87858753489E+02 -0.14026057794E+03  0.29535904058E+03  0.38175903083E+03  0.17638255152E+03 0.  0.
        -24    2    3    3    0    0 -0.12883832146E+03 -0.12940422852E+03  0.24133178462E+03  0.31292430340E+03  0.79597876577E+02 0.  0.
          6    2    1    2  501    0  0.87858753489E+02  0.14026057794E+03  0.49412402961E+02  0.24276744098E+03  0.17059382915E+03 0.  0.
         24    2    5    5    0    0  0.49963446741E+02  0.98605873163E+01 -0.56792253100E+01  0.96147560561E+02  0.81354302955E+02 0.  0.
          5    1    5    5  501    0  0.37895306748E+02  0.13039999063E+03  0.55091628271E+02  0.14661988042E+03  0.47000000000E+01 0. -1.
        -13    1    6    6    0    0 -0.78791958757E+01  0.74855257600E+01 -0.31082535457E+02  0.32927782100E+02  0.00000000000E+00 0.  1.
         14    1    6    6    0    0  0.57842642616E+02  0.23750615563E+01  0.25403310147E+02  0.63219778461E+02  0.00000000000E+00 0. -1.
         -5    1    3    3    0  503  0.40979567972E+02 -0.10856349422E+02  0.54027255959E+02  0.68834727430E+02  0.47000000000E+01 0.  1.
         13    1    4    4    0    0 -0.17350934170E+02 -0.49370219476E+02  0.11519095132E+03  0.12652046773E+03  0.00000000000E+00 0. -1.
        -14    1    4    4    0    0 -0.11148738729E+03 -0.80034009045E+02  0.12614083330E+03  0.18640383567E+03  0.00000000000E+00 0.  1.
</event>
<event>
12    1  0.8691829E-002  0.2270674E+03  0.7818608E-02  0.1128755E+00
         21   -1    0    0  501  502  0.00000000000E+00  0.00000000000E+00  0.32376979991E+03  0.32376979991E+03  0.00000000000E+00 0.  1.
         21   -1    0    0  502  503 -0.00000000000E+00 -0.00000000000E+00 -0.19837904756E+03  0.19837904756E+03  0.00000000000E+00 0.  1.
         -6    2    1    2    0  503  0.14822524281E+03  0.19396450833E+02 -0.53477018903E+02  0.23309296060E+03  0.17066221556E+03 0.  0.
        -24    2    3    3    0    0  0.10650943982E+02  0.29525734858E+02 -0.10820390743E+00  0.85107790708E+02  0.79108234113E+02 0.  0.
          6    2    1    2  501    0 -0.14822524281E+03 -0.19396450833E+02  0.17886777125E+03  0.28905588687E+03  0.17091717652E+03 0.  0.
         24    2    5    5    0    0 -0.16192183281E+03  0.17570618388E+02  0.16646172337E+03  0.24746068512E+03  0.83665278121E+02 0.  0.
          5    1    5    5  501    0  0.13696589996E+02 -0.36967069221E+02  0.12406047880E+02  0.41595201746E+02  0.47000000000E+01 0. -1.
        -11    1    6    6    0    0 -0.87181712060E+01 -0.17816574888E+02  0.43650192730E+02  0.47945554280E+02  0.00000000000E+00 0.  1.
         12    1    6    6    0    0 -0.15320366160E+03  0.35387193276E+02  0.12281153064E+03  0.19951513084E+03  0.00000000000E+00 0. -1.
         -5    1    3    3    0  503  0.13757429883E+03 -0.10129284025E+02 -0.53368814995E+02  0.14798516989E+03  0.47000000000E+01 0.  1.
         11    1    4    4    0    0 -0.27074213506E+02  0.11894337900E+02 -0.23114153252E+02  0.37533350391E+02  0.00000000000E+00 0. -1.
        -12    1    4    4    0    0  0.37725157488E+02  0.17631396958E+02  0.23005949344E+02  0.47574440317E+02  0.00000000000E+00 0.  1.
</event>
<event>
12    1  0.8691829E-002  0.2067605E+03  0.7818608E-02  0.1144695E+00
         21   -1    0    0  501  502  0.00000000000E+00  0.00000000000E+00  0.21177998912E+03  0.21177998912E+03  0.00000000000E+00 0.  1.
         21   -1    0    0  502  503 -0.00000000000E+00 -0.00000000000E+00 -0.21572155262E+03  0.21572155262E+03  0.00000000000E+00 0. -1.
         -6    2    1    2    0  503 -0.11036930805E+03  0.35896982345E+02 -0.60959221133E+02  0.21302326619E+03  0.16790743818E+03 0.  0.
        -24    2    3    3    0    0 -0.11057753203E+03  0.72821457370E+02 -0.76679403060E+02  0.17261690119E+03  0.79915633506E+02 0.  0.
          6    2    1    2  501    0  0.11036930805E+03 -0.35896982345E+02  0.57017657633E+02  0.21447827555E+03  0.17111382148E+03 0.  0.
         24    2    5    5    0    0  0.11510375846E+03 -0.70067584592E+02  0.75955981655E+02  0.17484501685E+03  0.81505381083E+02 0.  0.
          5    1    5    5  501    0 -0.47344504086E+01  0.34170602247E+02 -0.18938324023E+02  0.39633258703E+02  0.47000000000E+01 0. -1.
        -11    1    6    6    0    0  0.37203730871E+02  0.13704397716E+02  0.36347386536E+02  0.53787178914E+02  0.00000000000E+00 0.  1.
         12    1    6    6    0    0  0.77900027590E+02 -0.83771982308E+02  0.39608595119E+02  0.12105783794E+03  0.00000000000E+00 0. -1.
         -5    1    3    3    0  503  0.20822397602E+00 -0.36924475025E+02  0.15720181927E+02  0.40406365005E+02  0.47000000000E+01 0.  1.
         13    1    4    4    0    0 -0.93401260809E+02  0.62469092369E+02 -0.93704283699E+02  0.14631020404E+03  0.00000000000E+00 0. -1.
        -14    1    4    4    0    0 -0.17176271220E+02  0.10352365002E+02  0.17024880639E+02  0.26306697149E+02  0.00000000000E+00 0.  1.
</event>
<event>
12    1  0.8691829E-002  0.3176450E+03  0.7818608E-02  0.1076759E+00
         21   -1    0    0  501  502  0.00000000000E+00  0.00000000000E+00  0.15997938427E+04  0.15997938427E+04  0.00000000000E+00 0. -1.
         21   -1    0    0  502  503 -0.00000000000E+00 -0.00000000000E+00 -0.11067150588E+03  0.11067150588E+03  0.00000000000E+00 0.  1.
         -6    2    1    2    0  503  0.34982239859E+02  0.26487056317E+03  0.18358037142E+03  0.36687883103E+03  0.17180847345E+03 0.  0.
        -24    2    3    3    0    0 -0.17543917850E+02  0.13318534838E+03  0.39309318600E+02  0.16455181919E+03  0.86521399629E+02 0.  0.
          6    2    1    2  501    0 -0.34982239859E+02 -0.26487056317E+03  0.13055419654E+04  0.13435865175E+04  0.17147808712E+03 0.  0.
         24    2    5    5    0    0  0.21311893791E+02 -0.21081434060E+03  0.78046180986E+03  0.81271707556E+03  0.80570002159E+02 0.  0.
          5    1    5    5  501    0 -0.56294133650E+02 -0.54056222563E+02  0.52508015551E+03  0.53086944195E+03  0.47000000000E+01 0. -1.
        -11    1    6    6    0    0  0.15192021163E+01 -0.20233753666E+03  0.73612840238E+03  0.76343160238E+03  0.00000000000E+00 0.  1.
         12    1    6    6    0    0  0.19792691675E+02 -0.84768039435E+01  0.44333407477E+02  0.49285473188E+02  0.00000000000E+00 0. -1.
         -5    1    3    3    0  503  0.52526157709E+02  0.13168521478E+03  0.14427105282E+03  0.20232701183E+03  0.47000000000E+01 0.  1.
         11    1    4    4    0    0  0.33885242980E+02  0.36697850237E+02  0.63332896640E+01  0.50349304482E+02  0.00000000000E+00 0. -1.
        -12    1    4    4    0    0 -0.51429160830E+02  0.96487498145E+02  0.32976028936E+02  0.11420251471E+03  0.00000000000E+00 0.  1.
</event>
<event>
12    1  0.8691829E-002  0.2120766E+03  0.7818608E-02  0.1140073E+00
         21   -1    0    0  503  502  0.00000000000E+00  0.00000000000E+00  0.83055807305E+02  0.83055807305E+02  0.00000000000E+00 0. -1.
         21   -1    0    0  501  503 -0.00000000000E+00 -0.00000000000E+00 -0.61683482818E+03  0.61683482818E+03  0.00000000000E+00 0. -1.
          6    2    1    2  501    0 -0.22828560869E+02 -0.12097887589E+03 -0.14352836766E+03  0.25607981368E+03  0.17268308270E+03 0.  0.
         24    2    3    3    0    0 -0.31796118486E+02 -0.12429236755E+02 -0.11351443571E+03  0.14300299308E+03  0.79992811168E+02 0.  0.
         -6    2    1    2    0  502  0.22828560869E+02  0.12097887589E+03 -0.39025065322E+03  0.44381082180E+03  0.17180058676E+03 0.  0.
        -24    2    5    5    0    0  0.84069853314E+02  0.51262220709E+02 -0.26259616858E+03  0.28592267989E+03  0.55672934292E+02 0.  0.
          5    1    3    3  501    0  0.89675576168E+01 -0.10854963914E+03 -0.30013931948E+02  0.11307682060E+03  0.47000000000E+01 0. -1.
        -13    1    4    4    0    0 -0.64657239026E+01 -0.29010179721E+02 -0.10827241648E+03  0.11227783523E+03  0.00000000000E+00 0.  1.
         14    1    4    4    0    0 -0.25330394584E+02  0.16580942967E+02 -0.52420192293E+01  0.30725157852E+02  0.00000000000E+00 0. -1.
         -5    1    5    5    0  502 -0.61241292444E+02  0.69716655181E+02 -0.12765448463E+03  0.15788814191E+03  0.47000000000E+01 0.  1.
         11    1    6    6    0    0  0.22871007635E+02  0.42840136094E+02 -0.14760302074E+03  0.15538665317E+03  0.00000000000E+00 0. -1.
        -12    1    6    6    0    0  0.61198845679E+02  0.84220846149E+01 -0.11499314784E+03  0.13053602672E+03  0.00000000000E+00 0.  1.
</event>
<event>
12    1  0.8691829E-002  0.1901991E+03  0.7818608E-02  0.1160120E+00
         21   -1    0    0  501  502  0.00000000000E+00  0.00000000000E+00  0.74271299848E+03  0.74271299848E+03  0.00000000000E+00 0.  1.
         21   -1    0    0  502  503 -0.00000000000E+00 -0.00000000000E+00 -0.53947547052E+02  0.53947547052E+02  0.00000000000E+00 0.  1.
         -6    2    1    2    0  503  0.47396082726E+02 -0.53215087392E+02  0.49688508721E+03  0.53204368895E+03  0.17634472736E+03 0.  0.
        -24    2    3    3    0    0 -0.33470383979E+02 -0.25465189674E+02  0.15436344557E+03  0.17898192770E+03  0.80235370164E+02 0.  0.
          6    2    1    2  501    0 -0.47396082726E+02  0.53215087392E+02  0.19188036422E+03  0.26461685659E+03  0.16770740126E+03 0.  0.
         24    2    5    5    0    0  0.55327576218E+01 -0.18357686814E+02  0.55692502405E+02  0.10184908382E+03  0.83090101568E+02 0.  0.
          5    1    5    5  501    0 -0.52928840347E+02  0.71572774206E+02  0.13618786181E+03  0.16276777277E+03  0.47000000000E+01 0. -1.
        -11    1    6    6    0    0 -0.14538830186E+02 -0.17407776463E+02 -0.15764115818E+02  0.27620927068E+02  0.00000000000E+00 0.  1.
         12    1    6    6    0    0  0.20071587808E+02 -0.94991035109E+00  0.71456618223E+02  0.74228156751E+02  0.00000000000E+00 0. -1.
         -5    1    3    3    0  503  0.80866466704E+02 -0.27749897718E+02  0.34252164164E+03  0.35306176125E+03  0.47000000000E+01 0.  1.
         13    1    4    4    0    0 -0.43203904611E+02 -0.15120317801E+02  0.15785282850E+03  0.16435545884E+03  0.00000000000E+00 0. -1.
        -14    1    4    4    0    0  0.97335206327E+01 -0.10344871872E+02 -0.34893829340E+01  0.14626468857E+02  0.00000000000E+00 0.  1.
</event>
<event>
12    1  0.8691829E-002  0.2406338E+03  0.7818608E-02  0.1119812E+00
         21   -1    0    0  503  502  0.00000000000E+00  0.00000000000E+00  0.37738205987E+02  0.37738205987E+02  0.00000000000E+00 0. -1.
         21   -1    0    0  501  503 -0.00000000000E+00 -0.00000000000E+00 -0.15376695678E+04  0.15376695678E+04  0.00000000000E+00 0.  1.
          6    2    1    2  501    0  0.13777879232E+03  0.95344847643E+02 -0.65586138274E+03  0.69770694478E+03  0.16901831806E+03 0.  0.
         24    2    3    3    0    0  0.15582627657E+03  0.50452806883E+02 -0.43695772537E+03  0.47347066712E+03  0.80094348516E+02 0.  0.
         -6    2    1    2    0  502 -0.13777879232E+03 -0.95344847643E+02 -0.84406997902E+03  0.87770082896E+03  0.17271647310E+03 0.  0.
        -24    2    5    5    0    0 -0.13203361189E+03 -0.46228093205E+02 -0.78037185017E+03  0.79692333033E+03  0.80849604942E+02 0.  0.
          5    1    3    3  501    0 -0.18047484255E+02  0.44892040760E+02 -0.21890365737E+03  0.22423627766E+03  0.47000000000E+01 0. -1.
        -13    1    4    4    0    0  0.14757242586E+02 -0.19764113168E+02 -0.54447288816E+02  0.59773770481E+02  0.00000000000E+00 0.  1.
         14    1    4    4    0    0  0.14106903399E+03  0.70216920051E+02 -0.38251043656E+03  0.41369689664E+03  0.00000000000E+00 0. -1.
         -5    1    5    5    0  502 -0.57451804265E+01 -0.49116754438E+02 -0.63698128851E+02  0.80777498623E+02  0.47000000000E+01 0.  1.
         11    1    6    6    0    0 -0.57141613985E+02 -0.61558147548E+01 -0.14623593895E+03  0.15712418002E+03  0.00000000000E+00 0. -1.
        -12    1    6    6    0    0 -0.74891997905E+02 -0.40072278450E+02 -0.63413591122E+03  0.63979915032E+03  0.00000000000E+00 0.  1.
</event>
<event>
12    1  0.8691829E-002  0.1941330E+03  0.7818608E-02  0.1154852E+00
         21   -1    0    0  503  502  0.00000000000E+00  0.00000000000E+00  0.21235757970E+02  0.21235757970E+02  0.00000000000E+00 0.  1.
         21   -1    0    0  501  503 -0.00000000000E+00 -0.00000000000E+00 -0.19920369789E+04  0.19920369789E+04  0.00000000000E+00 0.  1.
          6    2    1    2  501    0 -0.21636240556E+02  0.89051250514E+02 -0.13193034993E+04  0.13334662303E+04  0.17079874653E+03 0.  0.
         24    2    3    3    0    0  0.15041567349E+02  0.30584284093E+02 -0.31564293700E+03  0.32742435136E+03  0.80091166825E+02 0.  0.
         -6    2    1    2    0  502  0.21636240556E+02 -0.89051250514E+02 -0.65149772167E+03  0.67980650666E+03  0.17114132476E+03 0.  0.
        -24    2    5    5    0    0  0.41389143848E+02 -0.84207333970E+02 -0.64682885910E+03  0.65841657928E+03  0.79503978385E+02 0.  0.
          5    1    3    3  501    0 -0.36677807905E+02  0.58466966421E+02 -0.10036605623E+04  0.10060418789E+04  0.47000000000E+01 0. -1.
        -13    1    4    4    0    0  0.30929422333E+02 -0.15881154709E+02 -0.17592834167E+03  0.17933103927E+03  0.00000000000E+00 0.  1.
         14    1    4    4    0    0 -0.15887854984E+02  0.46465438803E+02 -0.13971459533E+03  0.14809331209E+03  0.00000000000E+00 0. -1.
         -5    1    5    5    0  502 -0.19752903292E+02 -0.48439165441E+01 -0.46688625695E+01  0.21389927388E+02  0.47000000000E+01 0.  1.
         11    1    6    6    0    0 -0.10625883327E+02 -0.38320432580E+02 -0.40168698771E+03  0.40365059277E+03  0.00000000000E+00 0. -1.
        -12    1    6    6    0    0  0.52015027175E+02 -0.45886901390E+02 -0.24514187139E+03  0.25476598651E+03  0.00000000000E+00 0.  1.
</event>
<event>
12    1  0.8691829E-002  0.1945450E+03  0.7818608E-02  0.1155466E+00
         21   -1    0    0  501  502  0.00000000000E+00  0.00000000000E+00  0.17562968892E+03  0.17562968892E+03  0.00000000000E+00 0.  1.
         21   -1    0    0  502  503 -0.00000000000E+00 -0.00000000000E+00 -0.59130497020E+03  0.59130497020E+03  0.00000000000E+00 0.  1.
         -6    2    1    2    0  503 -0.63358593135E+02 -0.49969602786E+02 -0.51653709539E+03  0.55195863014E+03  0.17702114548E+03 0.  0.
        -24    2    3    3    0    0 -0.32477137742E+02  0.40214766333E+02 -0.20731444978E+03  0.22834216072E+03  0.80553518661E+02 0.  0.
          6    2    1    2  501    0  0.63358593135E+02  0.49969602786E+02  0.10086181412E+03  0.21497602897E+03  0.17184386797E+03 0.  0.
         24    2    5    5    0    0  0.56236235759E+02  0.48631373555E+02 -0.44977492613E+01  0.10926299086E+03  0.79941520602E+02 0.  0.
          5    1    5    5  501    0  0.71223573757E+01  0.13382292314E+01  0.10535956338E+03  0.10571303812E+03  0.47000000000E+01 0. -1.
        -13    1    6    6    0    0  0.24857454989E+02  0.67155346157E+02  0.44354428839E+01  0.71745430095E+02  0.00000000000E+00 0.  1.
         14    1    6    6    0    0  0.31378780770E+02 -0.18523972602E+02 -0.89331921451E+01  0.37517560761E+02  0.00000000000E+00 0. -1.
         -5    1    3    3    0  503 -0.30881455393E+02 -0.90184369120E+02 -0.30922264561E+03  0.32361646942E+03  0.47000000000E+01 0.  1.
         11    1    4    4    0    0 -0.33547825708E+02  0.18962457554E+02 -0.20300583955E+03  0.20663107776E+03  0.00000000000E+00 0. -1.
        -12    1    4    4    0    0  0.10706879659E+01  0.21252308779E+02 -0.43086102302E+01  0.21711082959E+02  0.00000000000E+00 0.  1.
</event>
<event>
12    1  0.8691829E-002  0.1995311E+03  0.7818608E-02  0.1150229E+00
         21   -1    0    0  503  502  0.00000000000E+00  0.00000000000E+00  0.73722596863E+02  0.73722596863E+02  0.00000000000E+00 0.  1.
         21   -1    0    0  501  503 -0.00000000000E+00 -0.00000000000E+00 -0.60805436434E+03  0.60805436434E+03  0.00000000000E+00 0.  1.
          6    2    1    2  501    0 -0.55031553352E+02 -0.86122667990E+02 -0.38191692097E+03  0.43069340144E+03  0.17085281886E+03 0.  0.
         24    2    3    3    0    0 -0.74926156061E+01 -0.59164058901E+02 -0.35730389421E+03  0.37057178891E+03  0.78107955860E+02 0.  0.
         -6    2    1    2    0  502  0.55031553352E+02  0.86122667990E+02 -0.15241484650E+03  0.25108355976E+03  0.17136826644E+03 0.  0.
        -24    2    5    5    0    0  0.32420487942E+02 -0.70816936816E+01 -0.12666822781E+03  0.15166881394E+03  0.76533331036E+02 0.  0.
          5    1    3    3  501    0 -0.47538937746E+02 -0.26958609089E+02 -0.24613026765E+02  0.60121612525E+02  0.47000000000E+01 0. -1.
        -13    1    4    4    0    0  0.29037330202E+02 -0.51308525372E+02 -0.18127737770E+03  0.19062323832E+03  0.00000000000E+00 0.  1.
         14    1    4    4    0    0 -0.36529945808E+02 -0.78555335295E+01 -0.17602651651E+03  0.17994855059E+03  0.00000000000E+00 0. -1.
         -5    1    5    5    0  502  0.22611065410E+02  0.93204361672E+02 -0.25746618688E+02  0.99414745826E+02  0.47000000000E+01 0.  1.
         13    1    6    6    0    0  0.10832315601E+02  0.23313240070E+02 -0.10593619187E+03  0.10901065531E+03  0.00000000000E+00 0. -1.
        -14    1    6    6    0    0  0.21588172341E+02 -0.30394933751E+02 -0.20732035945E+02  0.42658158624E+02  0.00000000000E+00 0.  1.
</event>
<event>
12    1  0.8691829E-002  0.2223265E+03  0.7818608E-02  0.1132378E+00
         21   -1    0    0  503  502  0.00000000000E+00  0.00000000000E+00  0.23908181785E+03  0.23908181785E+03  0.00000000000E+00 0.  1.
         21   -1    0    0  501  503 -0.00000000000E+00 -0.00000000000E+00 -0.21611844371E+03  0.21611844371E+03  0.00000000000E+00 0. -1.
          6    2    1    2  501    0 -0.12699980349E+03  0.56114952654E+02  0.61605511174E+02  0.23070395842E+03  0.17364112250E+03 0.  0.
         24    2    3    3    0    0 -0.13636807537E+03  0.73608908243E+02  0.89687602641E+02  0.19599809636E+03  0.79729946413E+02 0.  0.
         -6    2    1    2    0  502  0.12699980349E+03 -0.56114952654E+02 -0.38642137040E+02  0.22449630314E+03  0.17212651560E+03 0.  0.
        -24    2    5    5    0    0  0.90390751411E+02 -0.86416328433E+02  0.26085218325E+02  0.14405926814E+03  0.66591023120E+02 0.  0.
          5    1    3    3  501    0  0.93682718816E+01 -0.17493955589E+02 -0.28082091467E+02  0.34705862061E+02  0.47000000000E+01 0. -1.
        -11    1    4    4    0    0 -0.16287800716E+02  0.49051918150E+02  0.25156295053E+02  0.57482365184E+02  0.00000000000E+00 0.  1.
         12    1    4    4    0    0 -0.12008027465E+03  0.24556990093E+02  0.64531307588E+02  0.13851573117E+03  0.00000000000E+00 0. -1.
         -5    1    5    5    0  502  0.36609052076E+02  0.30301375779E+02 -0.64727355365E+02  0.80437035006E+02  0.47000000000E+01 0.  1.
         11    1    6    6    0    0  0.42211787702E+02 -0.24988861870E+01 -0.46265310205E+01  0.42538032893E+02  0.00000000000E+00 0. -1.
        -12    1    6    6    0    0  0.48178963709E+02 -0.83917442246E+02  0.30711749346E+02  0.10152123524E+03  0.00000000000E+00 0.  1.
</event>
<event>
12    1  0.8691829E-002  0.2287309E+03  0.7818608E-02  0.1127900E+00
         21   -1    0    0  501  502  0.00000000000E+00  0.00000000000E+00  0.15982778788E+03  0.15982778788E+03  0.00000000000E+00 0.  1.
         21   -1    0    0  502  503 -0.00000000000E+00 -0.00000000000E+00 -0.48173562074E+03  0.48173562074E+03  0.00000000000E+00 0. -1.
         -6    2    1    2    0  503 -0.29859232609E+02  0.14687627684E+03 -0.34475144984E+03  0.41372863198E+03  0.17278195589E+03 0.  0.
        -24    2    3    3    0    0 -0.86568868055E+02  0.77585894363E+02 -0.20687420068E+03  0.24926171831E+03  0.76293704764E+02 0.  0.
          6    2    1    2  501    0  0.29859232609E+02 -0.14687627684E+03  0.22843616982E+02  0.22783477664E+03  0.17006657561E+03 0.  0.
         24    2    5    5    0    0  0.71559474323E+02 -0.10290996591E+03  0.55572215914E+02  0.15880436419E+03  0.80120755452E+02 0.  0.
          5    1    5    5  501    0 -0.41700241714E+02 -0.43966310932E+02 -0.32728598931E+02  0.69030412457E+02  0.47000000000E+01 0. -1.
        -13    1    6    6    0    0 -0.10195604627E+02 -0.21386088873E+02  0.33858505187E+02  0.41324490614E+02  0.00000000000E+00 0.  1.
         14    1    6    6    0    0  0.81755078950E+02 -0.81523877037E+02  0.21713710727E+02  0.11747987357E+03  0.00000000000E+00 0. -1.
         -5    1    3    3    0  503  0.56709635446E+02  0.69290382480E+02 -0.13787724915E+03  0.16446691367E+03  0.47000000000E+01 0.  1.
         13    1    4    4    0    0 -0.11167483549E+01 -0.11543232729E+02 -0.50196601824E+01  0.12636864210E+02  0.00000000000E+00 0. -1.
        -14    1    4    4    0    0 -0.85452119700E+02  0.89129127091E+02 -0.20185454050E+03  0.23662485410E+03  0.00000000000E+00 0.  1.
</event>
<event>
12    1  0.8691829E-002  0.1852535E+03  0.7818608E-02  0.1162815E+00
         21   -1    0    0  501  502  0.00000000000E+00  0.00000000000E+00  0.36102868174E+03  0.36102868174E+03  0.00000000000E+00 0.  1.
         21   -1    0    0  502  503 -0.00000000000E+00 -0.00000000000E+00 -0.12915485758E+03  0.12915485758E+03  0.00000000000E+00 0.  1.
         -6    2    1    2    0  503  0.53464680628E+02  0.42437475672E+02 -0.99976964651E+01  0.18552305667E+03  0.17221916039E+03 0.  0.
        -24    2    3    3    0    0  0.16386208489E+01  0.83429029196E+02 -0.32352991778E+01  0.11893425919E+03  0.84686497496E+02 0.  0.
          6    2    1    2  501    0 -0.53464680628E+02 -0.42437475672E+02  0.24187152063E+03  0.30466048264E+03  0.17221139851E+03 0.  0.
         24    2    5    5    0    0  0.22728195015E+02 -0.36816111411E+02  0.18924853368E+03  0.21177225524E+03  0.84619641217E+02 0.  0.
          5    1    5    5  501    0 -0.76192875644E+02 -0.56213642611E+01  0.52622986945E+02  0.92888227403E+02  0.47000000000E+01 0. -1.
        -11    1    6    6    0    0 -0.22456942211E+02  0.76246656270E+01  0.19920462689E+02  0.30972158678E+02  0.00000000000E+00 0.  1.
         12    1    6    6    0    0  0.45185137227E+02 -0.44440777038E+02  0.16932807100E+03  0.18080009656E+03  0.00000000000E+00 0. -1.
         -5    1    3    3    0  503  0.51826059780E+02 -0.40991553525E+02 -0.67623972873E+01  0.66588797479E+02  0.47000000000E+01 0.  1.
         13    1    4    4    0    0 -0.31035318755E+01  0.98262344040E+01  0.34556624261E+02  0.36060325469E+02  0.00000000000E+00 0. -1.
        -14    1    4    4    0    0  0.47421527244E+01  0.73602794793E+02 -0.37791923438E+02  0.82873933724E+02  0.00000000000E+00 0.  1.
</event>
<event>
12    1  0.8691829E-002  0.1754480E+03  0.7818608E-02  0.1173201E+00
         21   -1    0    0  501  502  0.00000000000E+00  0.00000000000E+00  0.75878676085E+02  0.75878676085E+02  0.00000000000E+00 0. -1.
         21   -1    0    0  502  503 -0.00000000000E+00 -0.00000000000E+00 -0.55550769592E+03  0.55550769592E+03  0.00000000000E+00 0. -1.
         -6    2    1    2    0  503 -0.34813038993E+02 -0.95666032893E+01 -0.40647570386E+03  0.44129848293E+03  0.16798328973E+03 0.  0.
        -24    2    3    3    0    0  0.12791073514E+01 -0.16173654998E+02 -0.39356421769E+03  0.40211822470E+03  0.80889121375E+02 0.  0.
          6    2    1    2  501    0  0.34813038993E+02  0.95666032893E+01 -0.73153315976E+02  0.19008788907E+03  0.17169312843E+03 0.  0.
         24    2    5    5    0    0  0.49591039173E+02 -0.50514392816E+02 -0.69885954463E+02  0.12795190084E+03  0.80477743814E+02 0.  0.
          5    1    5    5  501    0 -0.14778000181E+02  0.60080996106E+02 -0.32673615125E+01  0.62135988233E+02  0.47000000000E+01 0. -1.
        -13    1    6    6    0    0  0.36433379250E+02  0.71279176880E+01 -0.95332392007E+00  0.37136332084E+02  0.00000000000E+00 0.  1.
         14    1    6    6    0    0  0.13157659924E+02 -0.57642310504E+02 -0.68932630543E+02  0.90815568756E+02  0.00000000000E+00 0. -1.
         -5    1    3    3    0  503 -0.36092146344E+02  0.66070517085E+01 -0.12911486164E+02  0.39180258230E+02  0.47000000000E+01 0.  1.
         13    1    4    4    0    0  0.13081559693E+02  0.30723775929E+02 -0.18796364928E+03  0.19090681251E+03  0.00000000000E+00 0. -1.
        -14    1    4    4    0    0 -0.11802452341E+02 -0.46897430927E+02 -0.20560056841E+03  0.21121141219E+03  0.00000000000E+00 0.  1.
</event>
<event>
12    1  0.8691829E-002  0.2131986E+03  0.7818608E-02  0.1139484E+00
         21   -1    0    0  501  502  0.00000000000E+00  0.00000000000E+00  0.17185034632E+04  0.17185034632E+04  0.00000000000E+00 0.  1.
         21   -1    0    0  502  503 -0.00000000000E+00 -0.00000000000E+00 -0.28993895143E+02  0.28993895143E+02  0.00000000000E+00 0. -1.
         -6    2    1    2    0  503 -0.46123013902E+02 -0.11641703984E+03  0.56859299462E+03  0.60648570112E+03  0.16984302327E+03 0.  0.
        -24    2    3    3    0    0  0.20667688393E+02 -0.61664177670E+02  0.43757611189E+03  0.44949402176E+03  0.79639172177E+02 0.  0.
          6    2    1    2  501    0  0.46123013902E+02  0.11641703984E+03  0.11209165734E+04  0.11410116572E+04  0.17254963849E+03 0.  0.
         24    2    5    5    0    0 -0.93493788621E+01  0.12853904552E+03  0.70561173102E+03  0.72181679619E+03  0.80758127816E+02 0.  0.
          5    1    5    5  501    0  0.55472392764E+02 -0.12122005677E+02  0.41530484241E+03  0.41919486103E+03  0.47000000000E+01 0. -1.
        -11    1    6    6    0    0 -0.13786350510E+01 -0.61377956358E+01  0.42373149705E+01  0.75847220140E+01  0.00000000000E+00 0.  1.
         12    1    6    6    0    0 -0.79707438111E+01  0.13467684115E+03  0.70137441605E+03  0.71423207418E+03  0.00000000000E+00 0. -1.
         -5    1    3    3    0  503 -0.66790702295E+02 -0.54752862168E+02  0.13101688273E+03  0.15699167936E+03  0.47000000000E+01 0.  1.
         13    1    4    4    0    0  0.39554062850E+02 -0.70889368875E+02  0.32597874002E+03  0.33593446601E+03  0.00000000000E+00 0. -1.
        -14    1    4    4    0    0 -0.18886374457E+02  0.92251912051E+01  0.11159737188E+03  0.11355955575E+03  0.00000000000E+00 0.  1.
</event>
<event>
12    1  0.8691829E-002  0.1790601E+03  0.7818608E-02  0.1169427E+00
         21   -1    0    0  503  502  0.00000000000E+00  0.00000000000E+00  0.15742122972E+04  0.15742122972E+04  0.00000000000E+00 0. -1.
         21   -1    0    0  501  503 -0.00000000000E+00 -0.00000000000E+00 -0.21752035869E+02  0.21752035869E+02  0.00000000000E+00 0. -1.
          6    2    1    2  501    0  0.10816330088E+02 -0.40345836085E+02  0.99430958185E+03  0.10097948188E+04  0.17114102995E+03 0.  0.
         24    2    3    3    0    0  0.47578200956E+02 -0.42203140572E+02  0.93080110854E+03  0.93624007113E+03  0.78166340914E+02 0.  0.
         -6    2    1    2    0  502 -0.10816330088E+02  0.40345836085E+02  0.55815067944E+03  0.58616951418E+03  0.17411989808E+03 0.  0.
        -24    2    5    5    0    0 -0.72496744047E+02  0.41954885385E+02  0.35182439904E+03  0.37076364962E+03  0.81665695423E+02 0.  0.
          5    1    3    3  501    0 -0.36761870869E+02  0.18573044875E+01  0.63508473305E+02  0.73554747714E+02  0.47000000000E+01 0. -1.
        -13    1    4    4    0    0 -0.17249366434E+02  0.76107146123E+01  0.19603424999E+03  0.19693879960E+03  0.00000000000E+00 0.  1.
         14    1    4    4    0    0  0.64827567390E+02 -0.49813855184E+02  0.73476685855E+03  0.73930127153E+03  0.00000000000E+00 0. -1.
         -5    1    5    5    0  502  0.61680413959E+02 -0.16090493002E+01  0.20632628040E+03  0.21540586457E+03  0.47000000000E+01 0.  1.
         13    1    6    6    0    0 -0.86528690630E+01 -0.23258579200E+02  0.57820100082E+02  0.62920565978E+02  0.00000000000E+00 0. -1.
        -14    1    6    6    0    0 -0.63843874984E+02  0.65213464585E+02  0.29400429896E+03  0.30784308364E+03  0.00000000000E+00 0.  1.
</event>
<event>
12    1  0.8691829E-002  0.1971565E+03  0.7818608E-02  0.1152315E+00
         21   -1    0    0  503  502  0.00000000000E+00  0.00000000000E+00  0.20551242388E+03  0.20551242388E+03  0.00000000000E+00 0. -1.
         21   -1    0    0  501  503 -0.00000000000E+00 -0.00000000000E+00 -0.43067255509E+03  0.43067255509E+03  0.00000000000E+00 0. -1.
          6    2    1    2  501    0  0.91353191175E+02 -0.29861718419E+02 -0.35122176207E+03  0.40277465744E+03  0.17214404072E+03 0.  0.
         24    2    3    3    0    0  0.91998919480E+02  0.38274164522E+02 -0.20688265097E+03  0.24309126913E+03  0.79776067822E+02 0.  0.
         -6    2    1    2    0  502 -0.91353191175E+02  0.29861718419E+02  0.12606163087E+03  0.23341032153E+03  0.17132342412E+03 0.  0.
        -24    2    5    5    0    0 -0.11348960946E+03  0.13500520841E+02  0.13082415844E+03  0.20508221765E+03  0.10900275248E+03 0.  0.
          5    1    3    3  501    0 -0.64572830518E+00 -0.68135882941E+02 -0.14433911110E+03  0.15968338831E+03  0.47000000000E+01 0. -1.
        -11    1    4    4    0    0  0.55618240342E+01  0.10737571095E+02  0.46272966055E+01  0.12947632737E+02  0.00000000000E+00 0.  1.
         12    1    4    4    0    0  0.86437095446E+02  0.27536593427E+02 -0.21150994758E+03  0.23014363639E+03  0.00000000000E+00 0. -1.
         -5    1    5    5    0  502  0.22136418281E+02  0.16361197578E+02 -0.47625275687E+01  0.28328103878E+02  0.47000000000E+01 0.  1.
         13    1    6    6    0    0  0.55265558925E+01  0.35622026683E+02  0.39256032911E+02  0.53296413810E+02  0.00000000000E+00 0. -1.
        -14    1    6    6    0    0 -0.11901616535E+03 -0.22121505842E+02  0.91568125525E+02  0.15178580384E+03  0.00000000000E+00 0.  1.
</event>
<event>
12    1  0.8691829E-002  0.2222354E+03  0.7818608E-02  0.1132335E+00
         21   -1    0    0  503  502  0.00000000000E+00  0.00000000000E+00  0.67479433832E+02  0.67479433832E+02  0.00000000000E+00 0. -1.
         21   -1    0    0  501  503 -0.00000000000E+00 -0.00000000000E+00 -0.77267715087E+03  0.77267715087E+03  0.00000000000E+00 0.  1.
          6    2    1    2  501    0 -0.13507595873E+03  0.39326256138E+02 -0.25341267790E+03  0.33667043848E+03  0.17128026676E+03 0.  0.
         24    2    3    3    0    0 -0.25486558802E+02  0.23577880147E+02 -0.19031896830E+03  0.20915277652E+03  0.79486433546E+02 0.  0.
         -6    2    1    2    0  502  0.13507595873E+03 -0.39326256138E+02 -0.45178503914E+03  0.50348614622E+03  0.17203635894E+03 0.  0.
        -24    2    5    5    0    0  0.25612833808E+02 -0.12518076862E+02 -0.31546123392E+03  0.32654795345E+03  0.79404384568E+02 0.  0.
          5    1    3    3  501    0 -0.10958939992E+03  0.15748375991E+02 -0.63093709597E+02  0.12751766196E+03  0.47000000000E+01 0. -1.
        -13    1    4    4    0    0 -0.32792131086E+02 -0.22363451972E+02 -0.99201743055E+02  0.10684771252E+03  0.00000000000E+00 0.  1.
         14    1    4    4    0    0  0.73055722841E+01  0.45941332119E+02 -0.91117225247E+02  0.10230506400E+03  0.00000000000E+00 0. -1.
         -5    1    5    5    0  502  0.10946312492E+03 -0.26808179276E+02 -0.13632380521E+03  0.17693819277E+03  0.47000000000E+01 0.  1.
         13    1    6    6    0    0  0.13926729166E+02 -0.42696418692E+02 -0.11441054975E+03  0.12290936436E+03  0.00000000000E+00 0. -1.
        -14    1    6    6    0    0  0.11686104642E+02  0.30178341830E+02 -0.20105068418E+03  0.20363858909E+03  0.00000000000E+00 0.  1.
</event>
<event>
12    1  0.8691829E-002  0.1750245E+03  0.7818608E-02  0.1173224E+00
         21   -1    0    0  501  502  0.00000000000E+00  0.00000000000E+00  0.15891416936E+03  0.15891416936E+03  0.00000000000E+00 0.  1.
         21   -1    0    0  502  503 -0.00000000000E+00 -0.00000000000E+00 -0.31433517922E+03  0.31433517922E+03  0.00000000000E+00 0.  1.
         -6    2    1    2    0  503 -0.23666717155E+02 -0.21905342155E+02 -0.22593928576E+03  0.28455271467E+03  0.16994625344E+03 0.  0.
        -24    2    3    3    0    0  0.21729056089E+02  0.91626537652E+01 -0.21737075517E+03  0.22868227243E+03  0.67003212002E+02 0.  0.
          6    2    1    2  501    0  0.23666717155E+02  0.21905342155E+02  0.70518275899E+02  0.18869663391E+03  0.17202800614E+03 0.  0.
         24    2    5    5    0    0  0.37181212268E+02  0.16834357195E+02  0.11280077609E+03  0.14377162652E+03  0.79249147499E+02 0.  0.
          5    1    5    5  501    0 -0.13514495113E+02  0.50709849597E+01 -0.42282500188E+02  0.44925007388E+02  0.47000000000E+01 0. -1.
        -13    1    6    6    0    0  0.12918214631E+02  0.35738128127E+02  0.14337301041E+02  0.40615911567E+02  0.00000000000E+00 0.  1.
         14    1    6    6    0    0  0.24262997637E+02 -0.18903770932E+02  0.98463475046E+02  0.10315571496E+03  0.00000000000E+00 0. -1.
         -5    1    3    3    0  503 -0.45395773244E+02 -0.31067995920E+02 -0.85685305861E+01  0.55870442233E+02  0.47000000000E+01 0.  1.
         13    1    4    4    0    0  0.42320315865E+02  0.16164091183E+02 -0.10709939835E+03  0.11628657749E+03  0.00000000000E+00 0. -1.
        -14    1    4    4    0    0 -0.20591259776E+02 -0.70014374182E+01 -0.11027135683E+03  0.11239569494E+03  0.00000000000E+00 0.  1.
</event>
<event>
12    1  0.8691829E-002  0.1783199E+03  0.7818608E-02  0.1169551E+00
         21   -1    0    0  501  502  0.00000000000E+00  0.00000000000E+00  0.20398861747E+03  0.20398861747E+03  0.00000000000E+00 0.  1.
         21   -1    0    0  502  503 -0.00000000000E+00 -0.00000000000E+00 -0.18394263927E+03  0.18394263927E+03  0.00000000000E+00 0.  1.
         -6    2    1    2    0  503  0.45034553756E+02 -0.11755133199E+02 -0.66286043740E+02  0.18981213349E+03  0.17166395148E+03 0.  0.
        -24    2    3    3    0    0 -0.35192756707E+01 -0.63975494454E+02 -0.19308764361E+02  0.10429374214E+03  0.79994419031E+02 0.  0.
          6    2    1    2  501    0 -0.45034553756E+02  0.11755133199E+02  0.86332021944E+02  0.19811912325E+03  0.17213853373E+03 0.  0.
         24    2    5    5    0    0 -0.55414199556E+02  0.52637258285E+02  0.10480938197E+03  0.15183102508E+03  0.78906521616E+02 0.  0.
          5    1    5    5  501    0  0.10379645801E+02 -0.40882125086E+02 -0.18477360031E+02  0.46288098170E+02  0.47000000000E+01 0. -1.
        -11    1    6    6    0    0 -0.44185365304E+01  0.57891409621E+02  0.48214016571E+02  0.75468736354E+02  0.00000000000E+00 0.  1.
         12    1    6    6    0    0 -0.50995663026E+02 -0.52541513359E+01  0.56595365404E+02  0.76362288722E+02  0.00000000000E+00 0. -1.
         -5    1    3    3    0  503  0.48553829426E+02  0.52220361256E+02 -0.46977279379E+02  0.85518391353E+02  0.47000000000E+01 0.  1.
         13    1    4    4    0    0 -0.98568589487E+01  0.50898677585E+01  0.21234250082E+02  0.23957416360E+02  0.00000000000E+00 0. -1.
        -14    1    4    4    0    0  0.63375832780E+01 -0.69065362213E+02 -0.40543014443E+02  0.80336325778E+02  0.00000000000E+00 0.  1.
</event>
<event>
12    1  0.8691829E-002  0.2463765E+03  0.7818608E-02  0.1115701E+00
         21   -1    0    0  501  502  0.00000000000E+00  0.00000000000E+00  0.19394256622E+04  0.19394256622E+04  0.00000000000E+00 0. -1.
         21   -1    0    0  502  503 -0.00000000000E+00 -0.00000000000E+00 -0.14542848052E+03  0.14542848052E+03  0.00000000000E+00 0. -1.
         -6    2    1    2    0  503 -0.22661200051E+02  0.17528750978E+03 -0.26941395310E+02  0.24732355536E+03  0.17089137246E+03 0.  0.
        -24    2    3    3    0    0 -0.49941307257E+02  0.46381442485E+02 -0.34846022219E+02  0.11524194589E+03  0.86145739593E+02 0.  0.
          6    2    1    2  501    0  0.22661200051E+02 -0.17528750978E+03  0.18209385770E+04  0.18375305874E+04  0.17164532396E+03 0.  0.
         24    2    5    5    0    0  0.12019473367E+02 -0.12717497780E+02  0.54882701996E+03  0.55502048655E+03  0.80811138853E+02 0.  0.
          5    1    5    5  501    0  0.10641726684E+02 -0.16257001200E+03  0.12721115571E+04  0.12825101009E+04  0.47000000000E+01 0. -1.
        -11    1    6    6    0    0 -0.16007246998E+02 -0.35875998825E+02  0.17130567509E+03  0.17575253502E+03  0.00000000000E+00 0.  1.
         12    1    6    6    0    0  0.28026720365E+02  0.23158501045E+02  0.37752134487E+03  0.37926795153E+03  0.00000000000E+00 0. -1.
         -5    1    3    3    0  503  0.27280107206E+02  0.12890606729E+03  0.79046269091E+01  0.13208160947E+03  0.47000000000E+01 0.  1.
         13    1    4    4    0    0  0.45232482730E+01  0.54015582671E+02 -0.23536958319E+02  0.59094258208E+02  0.00000000000E+00 0. -1.
        -14    1    4    4    0    0 -0.54464555530E+02 -0.76341401865E+01 -0.11309063899E+02  0.56147687679E+02  0.00000000000E+00 0.  1.
</event>
<event>
12    1  0.8691829E-002  0.2032032E+03  0.7818608E-02  0.1147789E+00
         21   -1    0    0  501  502  0.00000000000E+00  0.00000000000E+00  0.88578437277E+03  0.88578437277E+03  0.00000000000E+00 0. -1.
         21   -1    0    0  502  503 -0.00000000000E+00 -0.00000000000E+00 -0.51951089431E+02  0.51951089431E+02  0.00000000000E+00 0. -1.
         -6    2    1    2    0  503 -0.62462384569E+02 -0.88974811343E+02  0.25904489704E+03  0.32923520258E+03  0.17167845932E+03 0.  0.
        -24    2    3    3    0    0 -0.10837876764E+03 -0.74954208747E+02  0.18534460162E+03  0.24115163387E+03  0.80233400055E+02 0.  0.
          6    2    1    2  501    0  0.62462384569E+02  0.88974811343E+02  0.57478838630E+03  0.60850025962E+03  0.16754942672E+03 0.  0.
         24    2    5    5    0    0  0.76117737655E+02  0.75307702244E+02  0.25268527158E+03  0.28578402970E+03  0.79733964895E+02 0.  0.
          5    1    5    5  501    0 -0.13655353086E+02  0.13667109100E+02  0.32210311472E+03  0.32271622992E+03  0.47000000000E+01 0. -1.
        -11    1    6    6    0    0  0.39248631800E+02 -0.99319945746E+01  0.82925440741E+02  0.92280704031E+02  0.00000000000E+00 0.  1.
         12    1    6    6    0    0  0.36869105855E+02  0.85239696818E+02  0.16975983084E+03  0.19350332567E+03  0.00000000000E+00 0. -1.
         -5    1    3    3    0  503  0.45916383073E+02 -0.14020602596E+02  0.73700295419E+02  0.88083568709E+02  0.47000000000E+01 0.  1.
         11    1    4    4    0    0 -0.64716826693E+01 -0.36617616113E+02  0.17529029260E+02  0.41109601715E+02  0.00000000000E+00 0. -1.
        -12    1    4    4    0    0 -0.10190708497E+03 -0.38336592634E+02  0.16781557236E+03  0.20004203216E+03  0.00000000000E+00 0.  1.
</event>
<event>
12    1  0.8691829E-002  0.2276049E+03  0.7818608E-02  0.1128474E+00
         21   -1    0    0  503  502  0.00000000000E+00  0.00000000000E+00  0.76542368548E+02  0.76542368548E+02  0.00000000000E+00 0. -1.
         21   -1    0    0  501  503 -0.00000000000E+00 -0.00000000000E+00 -0.11300847415E+04  0.11300847415E+04  0.00000000000E+00 0.  1.
          6    2    1    2  501    0  0.10969598715E+03 -0.98751931828E+02 -0.91035364130E+03  0.93837504401E+03  0.17325939322E+03 0.  0.
         24    2    3    3    0    0 -0.15118558230E+02 -0.38757768932E+02 -0.41696413561E+03  0.42589746923E+03  0.76150039093E+02 0.  0.
         -6    2    1    2    0  502 -0.10969598715E+03  0.98751931828E+02 -0.14318873165E+03  0.26825206605E+03  0.17225273417E+03 0.  0.
        -24    2    5    5    0    0 -0.92893547602E+02  0.80304420145E+02 -0.30537946134E+02  0.15277513268E+03  0.85613456480E+02 0.  0.
          5    1    3    3  501    0  0.12481454538E+03 -0.59994162897E+02 -0.49338950569E+03  0.51247757478E+03  0.47000000000E+01 0. -1.
        -13    1    4    4    0    0  0.25997234429E+02 -0.27712068231E+02 -0.27722313219E+03  0.27981508169E+03  0.00000000000E+00 0.  1.
         14    1    4    4    0    0 -0.41115792659E+02 -0.11045700700E+02 -0.13974100342E+03  0.14608238754E+03  0.00000000000E+00 0. -1.
         -5    1    5    5    0  502 -0.16802439551E+02  0.18447511683E+02 -0.11265078552E+03  0.11547693337E+03  0.47000000000E+01 0.  1.
         13    1    6    6    0    0 -0.66460315326E+02  0.11963234750E+02 -0.40628722890E+02  0.78808537752E+02  0.00000000000E+00 0. -1.
        -14    1    6    6    0    0 -0.26433232276E+02  0.68341185395E+02  0.10090776756E+02  0.73966594929E+02  0.00000000000E+00 0.  1.
</event>
<event>
12    1  0.8691829E-002  0.2080304E+03  0.7818608E-02  0.1143316E+00
         21   -1    0    0  503  502  0.00000000000E+00  0.00000000000E+00  0.37750941960E+02  0.37750941960E+02  0.00000000000E+00 0.  1.
         21   -1    0    0  501  503 -0.00000000000E+00 -0.00000000000E+00 -0.13093651057E+04  0.13093651057E+04  0.00000000000E+00 0.  1.
          6    2    1    2  501    0  0.11555701396E+03  0.31005430940E+01 -0.87823193678E+03  0.90253420241E+03  0.17295552865E+03 0.  0.
         24    2    3    3    0    0  0.65649900190E+02 -0.31797426201E+02 -0.26101072499E+03  0.28229819688E+03  0.79023336396E+02 0.  0.
         -6    2    1    2    0  502 -0.11555701396E+03 -0.31005430940E+01 -0.39338222692E+03  0.44458184521E+03  0.17187322011E+03 0.  0.
        -24    2    5    5    0    0 -0.14911324099E+03  0.14692236036E+02 -0.33639351642E+03  0.37593487525E+03  0.75602990005E+02 0.  0.
          5    1    3    3  501    0  0.49907113773E+02  0.34897969295E+02 -0.61722121180E+03  0.62023600553E+03  0.47000000000E+01 0. -1.
        -11    1    4    4    0    0  0.52326829983E+02  0.15616244821E+02 -0.17337797082E+03  0.18177426937E+03  0.00000000000E+00 0.  1.
         12    1    4    4    0    0  0.13323070207E+02 -0.47413671022E+02 -0.87632754167E+02  0.10052392751E+03  0.00000000000E+00 0. -1.
         -5    1    5    5    0  502  0.33556227025E+02 -0.17792779130E+02 -0.56988710494E+02  0.68646969963E+02  0.47000000000E+01 0.  1.
         13    1    6    6    0    0 -0.13831254376E+02  0.23323606989E+02 -0.98140270216E+02  0.10181751754E+03  0.00000000000E+00 0. -1.
        -14    1    6    6    0    0 -0.13528198661E+03 -0.86313709531E+01 -0.23825324621E+03  0.27411735770E+03  0.00000000000E+00 0.  1.
</event>
<event>
12    1  0.8691829E-002  0.1971654E+03  0.7818608E-02  0.1152282E+00
         21   -1    0    0  501  502  0.00000000000E+00  0.00000000000E+00  0.57109178124E+03  0.57109178124E+03  0.00000000000E+00 0. -1.
         21   -1    0    0  502  503 -0.00000000000E+00 -0.00000000000E+00 -0.30873918965E+03  0.30873918965E+03  0.00000000000E+00 0. -1.
         -6    2    1    2    0  503  0.90179706772E+02  0.31052397576E+02 -0.25735075339E+03  0.32419686360E+03  0.17256177210E+03 0.  0.
        -24    2    3    3    0    0 -0.94081748445E+01  0.50982299403E+01 -0.17381150926E+03  0.19156104532E+03  0.79816587425E+02 0.  0.
          6    2    1    2  501    0 -0.90179706772E+02 -0.31052397576E+02  0.51970334498E+03  0.55563410729E+03  0.17187513926E+03 0.  0.
         24    2    5    5    0    0 -0.58467697875E+02 -0.85374299415E+02  0.38219867566E+03  0.40435243420E+03  0.81962312537E+02 0.  0.
          5    1    5    5  501    0 -0.31712008898E+02  0.54321901840E+02  0.13750466932E+03  0.15128167309E+03  0.47000000000E+01 0. -1.
        -13    1    6    6    0    0 -0.54966492882E+02 -0.45205912231E+02  0.12356396012E+03  0.14259362567E+03  0.00000000000E+00 0.  1.
         14    1    6    6    0    0 -0.35012049932E+01 -0.40168387184E+02  0.25863471553E+03  0.26175880853E+03  0.00000000000E+00 0. -1.
         -5    1    3    3    0  503  0.99587881617E+02  0.25954167635E+02 -0.83539244123E+02  0.13263581828E+03  0.47000000000E+01 0.  1.
         11    1    4    4    0    0  0.22952991008E+02 -0.25706055304E+02 -0.93648507624E+02  0.99788195974E+02  0.00000000000E+00 0. -1.
        -12    1    4    4    0    0 -0.32361165852E+02  0.30804285244E+02 -0.80163001640E+02  0.91772849344E+02  0.00000000000E+00 0.  1.
</event>
<event>
12    1  0.8691829E-002  0.2042329E+03  0.7818608E-02  0.1146574E+00
         21   -1    0    0  501  502  0.00000000000E+00  0.00000000000E+00  0.96658783331E+02  0.96658783331E+02  0.00000000000E+00 0.  1.
         21   -1    0    0  502  503 -0.00000000000E+00 -0.00000000000E+00 -0.54991367940E+03  0.54991367940E+03  0.00000000000E+00 0.  1.
         -6    2    1    2    0  503 -0.72313764546E+02  0.83610896841E+02 -0.37817422006E+03  0.42897604772E+03  0.16966038485E+03 0.  0.
        -24    2    3    3    0    0 -0.19900585719E+01 -0.10563973264E+02 -0.20552923396E+03  0.22006766826E+03  0.77922748535E+02 0.  0.
          6    2    1    2  501    0  0.72313764546E+02 -0.83610896841E+02 -0.75080676013E+02  0.21759641501E+03  0.17172952368E+03 0.  0.
         24    2    5    5    0    0  0.30576542365E+02 -0.11946446180E+03 -0.71110226443E+02  0.16223100790E+03  0.77817434052E+02 0.  0.
          5    1    5    5  501    0  0.41737222181E+02  0.35853564957E+02 -0.39704495698E+01  0.55365407117E+02  0.47000000000E+01 0. -1.
        -13    1    6    6    0    0  0.12143857399E+02 -0.42226884591E+02  0.13723962630E+02  0.46031839037E+02  0.00000000000E+00 0.  1.
         14    1    6    6    0    0  0.18432684966E+02 -0.77237577207E+02 -0.84834189074E+02  0.11619916886E+03  0.00000000000E+00 0. -1.
         -5    1    3    3    0  503 -0.70323705974E+02  0.94174870105E+02 -0.17264498610E+03  0.20890837945E+03  0.47000000000E+01 0.  1.
         11    1    4    4    0    0 -0.33703757090E+02  0.15582689077E+02 -0.10903551892E+03  0.11518466837E+03  0.00000000000E+00 0. -1.
        -12    1    4    4    0    0  0.31713698519E+02 -0.26146662341E+02 -0.96493715042E+02  0.10488299990E+03  0.00000000000E+00 0.  1.
</event>
<event>
12    1  0.8691829E-002  0.1785244E+03  0.7818608E-02  0.1169663E+00
         21   -1    0    0  501  502  0.00000000000E+00  0.00000000000E+00  0.99667585903E+03  0.99667585903E+03  0.00000000000E+00 0.  1.
         21   -1    0    0  502  503 -0.00000000000E+00 -0.00000000000E+00 -0.94450770579E+02  0.94450770579E+02  0.00000000000E+00 0.  1.
         -6    2    1    2    0  503 -0.87444701867E+01 -0.46100037829E+02  0.70547333923E+01  0.17866375331E+03  0.17224775249E+03 0.  0.
        -24    2    3    3    0    0 -0.41712114020E+02 -0.64748288960E+02  0.49860042568E+02  0.12131388580E+03  0.79364939767E+02 0.  0.
          6    2    1    2  501    0  0.87444701867E+01  0.46100037829E+02  0.89517035506E+03  0.91246287629E+03  0.17046071920E+03 0.  0.
         24    2    5    5    0    0 -0.49962363255E+02  0.49920931462E+02  0.38785114409E+03  0.40172227350E+03  0.77226536349E+02 0.  0.
          5    1    5    5  501    0  0.58706833442E+02 -0.38208936323E+01  0.50731921097E+03  0.51074060279E+03  0.47000000000E+01 0. -1.
        -11    1    6    6    0    0 -0.15662730512E+02  0.12904226949E+02  0.29783299985E+03  0.29852359370E+03  0.00000000000E+00 0.  1.
         12    1    6    6    0    0 -0.34299632743E+02  0.37016704513E+02  0.90018144246E+02  0.10319867980E+03  0.00000000000E+00 0. -1.
         -5    1    3    3    0  503  0.32967643833E+02  0.18648251130E+02 -0.42805309175E+02  0.57349867513E+02  0.47000000000E+01 0.  1.
         13    1    4    4    0    0 -0.10517268198E+02  0.15750699615E+02  0.25210311169E+02  0.31531845140E+02  0.00000000000E+00 0. -1.
        -14    1    4    4    0    0 -0.31194845822E+02 -0.80498988574E+02  0.24649731398E+02  0.89782040662E+02  0.00000000000E+00 0.  1.
</event>
<event>
12    1  0.8691829E-002  0.1940453E+03  0.7818608E-02  0.1155169E+00
         21   -1    0    0  501  502  0.00000000000E+00  0.00000000000E+00  0.14204171902E+03  0.14204171902E+03  0.00000000000E+00 0. -1.
         21   -1    0    0  502  503 -0.00000000000E+00 -0.00000000000E+00 -0.70052381054E+03  0.70052381054E+03  0.00000000000E+00 0. -1.
         -6    2    1    2    0  503 -0.37387591623E+02  0.77233526502E+02 -0.61172827654E+03  0.64134742731E+03  0.17248822737E+03 0.  0.
        -24    2    3    3    0    0 -0.71513079157E+02  0.43843868050E+01 -0.27522228391E+03  0.29532731355E+03  0.79608876574E+02 0.  0.
          6    2    1    2  501    0  0.37387591623E+02 -0.77233526502E+02  0.53246185022E+02  0.20121810225E+03  0.17404229035E+03 0.  0.
         24    2    5    5    0    0  0.12898274694E+02  0.27344739679E+02  0.10654691136E+02  0.85578724210E+02  0.79347938322E+02 0.  0.
          5    1    5    5  501    0  0.24489316929E+02 -0.10457826618E+03  0.42591493885E+02  0.11563937804E+03  0.47000000000E+01 0. -1.
        -11    1    6    6    0    0  0.33103347562E+02 -0.65684304453E+01 -0.16597954377E+02  0.37609413553E+02  0.00000000000E+00 0.  1.
         12    1    6    6    0    0 -0.20205072868E+02  0.33913170124E+02  0.27252645513E+02  0.47969310657E+02  0.00000000000E+00 0. -1.
         -5    1    3    3    0  503  0.34125487534E+02  0.72849139697E+02 -0.33650599263E+03  0.34602011376E+03  0.47000000000E+01 0.  1.
         13    1    4    4    0    0 -0.25286180067E+02  0.40850682731E+02 -0.11519617858E+03  0.12481317535E+03  0.00000000000E+00 0. -1.
        -14    1    4    4    0    0 -0.46226899090E+02 -0.36466295926E+02 -0.16002610533E+03  0.17051413820E+03  0.00000000000E+00 0.  1.
</event>
<event>
12    1  0.8691829E-002  0.1721157E+03  0.7818608E-02  0.1175731E+00
         21   -1    0    0  501  502  0.00000000000E+00  0.00000000000E+00  0.52529714312E+03  0.52529714312E+03  0.00000000000E+00 0. -1.
         21   -1    0    0  502  503 -0.00000000000E+00 -0.00000000000E+00 -0.59689090525E+02  0.59689090525E+02  0.00000000000E+00 0. -1.
         -6    2    1    2    0  503 -0.58944819933E+01  0.30073213362E+01  0.30229139657E+03  0.34771815853E+03  0.17170917398E+03 0.  0.
        -24    2    3    3    0    0 -0.43027996223E+02  0.55416668386E+02  0.18561971448E+03  0.21445147500E+03  0.81316302986E+02 0.  0.
          6    2    1    2  501    0  0.58944819933E+01 -0.30073213362E+01  0.16331665603E+03  0.23726807512E+03  0.17198843111E+03 0.  0.
         24    2    5    5    0    0  0.42869595088E+02  0.36579694279E+02  0.48864873865E+02  0.11055741561E+03  0.81604473110E+02 0.  0.
          5    1    5    5  501    0 -0.36975113095E+02 -0.39587015615E+02  0.11445178216E+03  0.12671065951E+03  0.47000000000E+01 0. -1.
        -13    1    6    6    0    0 -0.18435388489E+02  0.27581332097E+01  0.34307256846E+02  0.39044317382E+02  0.00000000000E+00 0.  1.
         14    1    6    6    0    0  0.61304983577E+02  0.33821561069E+02  0.14557617019E+02  0.71513098226E+02  0.00000000000E+00 0. -1.
         -5    1    3    3    0  503  0.37133514229E+02 -0.52409347050E+02  0.11667168209E+03  0.13326668353E+03  0.47000000000E+01 0.  1.
         11    1    4    4    0    0 -0.22584382898E+02  0.75002485101E+02  0.12446260500E+03  0.14705906013E+03  0.00000000000E+00 0. -1.
        -12    1    4    4    0    0 -0.20443613325E+02 -0.19585816715E+02  0.61157109479E+02  0.67392414870E+02  0.00000000000E+00 0.  1.
</event>
<event>
12    1  0.8691829E-002  0.3429494E+03  0.7818608E-02  0.1065658E+00
         21   -1    0    0  503  502  0.00000000000E+00  0.00000000000E+00  0.26107587925E+03  0.26107587925E+03  0.00000000000E+00 0.  1.
         21   -1    0    0  501  503 -0.00000000000E+00 -0.00000000000E+00 -0.71236691580E+03  0.71236691580E+03  0.00000000000E+00 0. -1.
          6    2    1    2  501    0  0.13024950144E+03 -0.26695157614E+03 -0.52130504769E+03  0.62341959172E+03  0.16930728858E+03 0.  0.
         24    2    3    3    0    0  0.16117193362E+03 -0.19392402937E+03 -0.40146244452E+03  0.47963656445E+03  0.72775121003E+02 0.  0.
         -6    2    1    2    0  502 -0.13024950144E+03  0.26695157614E+03  0.70014011132E+02  0.35002320333E+03  0.17142404875E+03 0.  0.
        -24    2    5    5    0    0 -0.27573864837E+02  0.80262178919E+02 -0.21064489635E+02  0.11826341241E+03  0.79625288727E+02 0.  0.
          5    1    3    3  501    0 -0.30922432179E+02 -0.73027546761E+02 -0.11984260317E+03  0.14378302727E+03  0.47000000000E+01 0. -1.
        -13    1    4    4    0    0  0.15396876789E+02 -0.24000313036E+02 -0.13138945911E+02  0.31396030646E+02  0.00000000000E+00 0.  1.
         14    1    4    4    0    0  0.14577505683E+03 -0.16992371634E+03 -0.38832349861E+03  0.44824053380E+03  0.00000000000E+00 0. -1.
         -5    1    5    5    0  502 -0.10267563660E+03  0.18668939722E+03  0.91078500768E+02  0.23175979092E+03  0.47000000000E+01 0.  1.
         13    1    6    6    0    0 -0.18791199489E+02 -0.20560879325E+01  0.18552851509E+02  0.26486694300E+02  0.00000000000E+00 0. -1.
        -14    1    6    6    0    0 -0.87826653476E+01  0.82318266851E+02 -0.39617341144E+02  0.91776718112E+02  0.00000000000E+00 0.  1.
</event>
<event>
12    1  0.8691829E-002  0.2111044E+03  0.7818608E-02  0.1140877E+00
         21   -1    0    0  501  502  0.00000000000E+00  0.00000000000E+00  0.46604876925E+02  0.46604876925E+02  0.00000000000E+00 0. -1.
         21   -1    0    0  502  503 -0.00000000000E+00 -0.00000000000E+00 -0.96139097982E+03  0.96139097982E+03  0.00000000000E+00 0. -1.
         -6    2    1    2    0  503 -0.11130934956E+03  0.48389866416E+02 -0.40867118007E+03  0.45997523167E+03  0.17272443329E+03 0.  0.
        -24    2    3    3    0    0 -0.38628789165E+02 -0.40478864255E+02 -0.22174830851E+03  0.24056154691E+03  0.74611150085E+02 0.  0.
          6    2    1    2  501    0  0.11130934956E+03 -0.48389866416E+02 -0.50611492283E+03  0.54802062508E+03  0.17158945170E+03 0.  0.
         24    2    5    5    0    0  0.18360528483E+02  0.23704866403E+02 -0.28381399477E+03  0.29647157131E+03  0.80286856135E+02 0.  0.
          5    1    5    5  501    0  0.92948821073E+02 -0.72094732820E+02 -0.22230092805E+03  0.25154905377E+03  0.47000000000E+01 0. -1.
        -13    1    6    6    0    0  0.37033009625E+02  0.16434791831E+02 -0.26772638899E+03  0.27077475057E+03  0.00000000000E+00 0.  1.
         14    1    6    6    0    0 -0.18672481142E+02  0.72700745728E+01 -0.16087605784E+02  0.25696820740E+02  0.00000000000E+00 0. -1.
         -5    1    3    3    0  503 -0.72680560391E+02  0.88868730671E+02 -0.18692287156E+03  0.21941368476E+03  0.47000000000E+01 0.  1.
         11    1    4    4    0    0 -0.56118966943E+02 -0.41448121840E+02 -0.20410543949E+03  0.21569959593E+03  0.00000000000E+00 0. -1.
        -12    1    4    4    0    0  0.17490177778E+02  0.96925758552E+00 -0.17642869029E+02  0.24861950980E+02  0.00000000000E+00 0.  1.
</event>
<event>
12    1  0.8691829E-002  0.1875068E+03  0.7818608E-02  0.1160921E+00
         21   -1    0    0  501  502  0.00000000000E+00  0.00000000000E+00  0.81373841096E+02  0.81373841096E+02  0.00000000000E+00 0. -1.
         21   -1    0    0  502  503 -0.00000000000E+00 -0.00000000000E+00 -0.43470730057E+03  0.43470730057E+03  0.00000000000E+00 0. -1.
         -6    2    1    2    0  503 -0.45655439740E+02  0.58381378489E+02 -0.20270979037E+03  0.27556860547E+03  0.17133006938E+03 0.  0.
        -24    2    3    3    0    0  0.29544272871E+02  0.41620571143E+02 -0.16669756096E+03  0.19039295104E+03  0.76526224105E+02 0.  0.
          6    2    1    2  501    0  0.45655439740E+02 -0.58381378489E+02 -0.15062366910E+03  0.24051253620E+03  0.17223816604E+03 0.  0.
         24    2    5    5    0    0 -0.36715661993E+02 -0.15335014950E+02 -0.46054907952E+02  0.10053145311E+03  0.80014473679E+02 0.  0.
          5    1    5    5  501    0  0.82371101734E+02 -0.43046363539E+02 -0.10456876115E+03  0.13998108309E+03  0.47000000000E+01 0. -1.
        -13    1    6    6    0    0  0.20502779820E+01  0.20851487645E+02  0.10129748124E+02  0.23272300571E+02  0.00000000000E+00 0.  1.
         14    1    6    6    0    0 -0.38765939975E+02 -0.36186502594E+02 -0.56184656076E+02  0.77259152536E+02  0.00000000000E+00 0. -1.
         -5    1    3    3    0  503 -0.75199712611E+02  0.16760807346E+02 -0.36012229416E+02  0.85175654428E+02  0.47000000000E+01 0.  1.
         13    1    4    4    0    0 -0.65850323241E+00  0.26529328388E+02 -0.15072301317E+03  0.15304138522E+03  0.00000000000E+00 0. -1.
        -14    1    4    4    0    0  0.30202776103E+02  0.15091242754E+02 -0.15974547785E+02  0.37351565819E+02  0.00000000000E+00 0.  1.
</event>
<event>
12    1  0.8691829E-002  0.1939285E+03  0.7818608E-02  0.1155143E+00
         21   -1    0    0  503  502  0.00000000000E+00  0.00000000000E+00  0.74669444387E+02  0.74669444387E+02  0.00000000000E+00 0.  1.
         21   -1    0    0  501  503 -0.00000000000E+00 -0.00000000000E+00 -0.10042381468E+04  0.10042381468E+04  0.00000000000E+00 0. -1.
          6    2    1    2  501    0 -0.82727439860E+02  0.34247045366E+02 -0.84692749771E+03  0.86884661509E+03  0.17202198919E+03 0.  0.
         24    2    3    3    0    0 -0.31711087767E+02 -0.12605271924E+00 -0.18364116308E+03  0.20269721011E+03  0.79727493585E+02 0.  0.
         -6    2    1    2    0  502  0.82727439860E+02 -0.34247045366E+02 -0.82641204747E+02  0.21006097613E+03  0.17111211398E+03 0.  0.
        -24    2    5    5    0    0  0.71122651160E+02 -0.33799926098E+02 -0.12339668335E+03  0.16742331587E+03  0.81258591682E+02 0.  0.
          5    1    3    3  501    0 -0.51016352094E+02  0.34373098085E+02 -0.66328633463E+03  0.66614940498E+03  0.47000000000E+01 0. -1.
        -11    1    4    4    0    0  0.13588880751E+02  0.45908498103E+01 -0.90626871239E+00  0.14372018126E+02  0.00000000000E+00 0.  1.
         12    1    4    4    0    0 -0.45299968518E+02 -0.47169025295E+01 -0.18273489436E+03  0.18832519198E+03  0.00000000000E+00 0. -1.
         -5    1    5    5    0  502  0.11604788700E+02 -0.44711926800E+00  0.40755478606E+02  0.42637660265E+02  0.47000000000E+01 0.  1.
         11    1    6    6    0    0  0.75556238260E+02  0.34450786718E+01 -0.81371913171E+02  0.11109456314E+03  0.00000000000E+00 0. -1.
        -12    1    6    6    0    0 -0.44335870997E+01 -0.37245004770E+02 -0.42024770183E+02  0.56328752727E+02  0.00000000000E+00 0.  1.
</event>
<event>
12    1  0.8691829E-002  0.2835819E+03  0.7818608E-02  0.1093886E+00
         21   -1    0    0  503  502  0.00000000000E+00  0.00000000000E+00  0.15798309749E+03  0.15798309749E+03  0.00000000000E+00 0. -1.
         21   -1    0    0  501  503 -0.00000000000E+00 -0.00000000000E+00 -0.50719622492E+03  0.50719622492E+03  0.00000000000E+00 0. -1.
          6    2    1    2  501    0 -0.81211224100E+02 -0.20984645917E+03 -0.17515403368E+03  0.33331312440E+03  0.17259172643E+03 0.  0.
         24    2    3    3    0    0 -0.19694712089E+02 -0.47600468362E+02 -0.14549894758E+02  0.96830942778E+02  0.80689812054E+02 0.  0.
         -6    2    1    2    0  502  0.81211224100E+02  0.20984645917E+03 -0.17405909374E+03  0.33186619801E+03  0.17090291373E+03 0.  0.
        -24    2    5    5    0    0  0.50483555197E+02  0.22788013099E+03 -0.14754044318E+03  0.28720377776E+03  0.78992937288E+02 0.  0.
          5    1    3    3  501    0 -0.61516512011E+02 -0.16224599081E+03 -0.16060413892E+03  0.23648218162E+03  0.47000000000E+01 0. -1.
        -13    1    4    4    0    0  0.92553377940E+01 -0.38433324357E+02 -0.40712964932E+02  0.56747926943E+02  0.00000000000E+00 0.  1.
         14    1    4    4    0    0 -0.28950049883E+02 -0.91671440054E+01  0.26163070175E+02  0.40083015835E+02  0.00000000000E+00 0. -1.
         -5    1    5    5    0  502  0.30727668903E+02 -0.18033671815E+02 -0.26518650558E+02  0.44662420252E+02  0.47000000000E+01 0.  1.
         11    1    6    6    0    0  0.48500732408E+02  0.54334673959E+02 -0.45310880456E+02  0.85776766819E+02  0.00000000000E+00 0. -1.
        -12    1    6    6    0    0  0.19828227892E+01  0.17354545703E+03 -0.10222956273E+03  0.20142701094E+03  0.00000000000E+00 0.  1.
</event>
<event>
12    1  0.8691829E-002  0.1905508E+03  0.7818608E-02  0.1158021E+00
         21   -1    0    0  501  502  0.00000000000E+00  0.00000000000E+00  0.11577891442E+04  0.11577891442E+04  0.00000000000E+00 0.  1.
         21   -1    0    0  502  503 -0.00000000000E+00 -0.00000000000E+00 -0.38122504662E+02  0.38122504662E+02  0.00000000000E+00 0. -1.
         -6    2    1    2    0  503  0.58039174851E+02 -0.56742713154E+02  0.30754926593E+03  0.36179573854E+03  0.17239873588E+03 0.  0.
        -24    2    3    3    0    0 -0.29504285084E+02 -0.14483451824E+01  0.10159972686E+03  0.13123419111E+03  0.77635738399E+02 0.  0.
          6    2    1    2  501    0 -0.58039174851E+02  0.56742713154E+02  0.81211737364E+03  0.83411591036E+03  0.17212333378E+03 0.  0.
         24    2    5    5    0    0 -0.18271943597E+02  0.96456795233E+02  0.65699846298E+03  0.66906256310E+03  0.79749330493E+02 0.  0.
          5    1    5    5  501    0 -0.39767231254E+02 -0.39714082079E+02  0.15511891066E+03  0.16505334726E+03  0.47000000000E+01 0. -1.
        -13    1    6    6    0    0  0.13772387421E+02  0.74456502819E+02  0.27973024661E+03  0.28979727455E+03  0.00000000000E+00 0.  1.
         14    1    6    6    0    0 -0.32044331018E+02  0.22000292414E+02  0.37726821638E+03  0.37926528856E+03  0.00000000000E+00 0. -1.
         -5    1    3    3    0  503  0.87543459936E+02 -0.55294367971E+02  0.20594953907E+03  0.23056154742E+03  0.47000000000E+01 0.  1.
         11    1    4    4    0    0 -0.79571824225E+01 -0.35288230645E+02  0.22660384610E+02  0.42685700238E+02  0.00000000000E+00 0. -1.
        -12    1    4    4    0    0 -0.21547102662E+02  0.33839885462E+02  0.78939342251E+02  0.88548490875E+02  0.00000000000E+00 0.  1.
</event>
<event>
12    1  0.8691829E-002  0.4249674E+03  0.7818608E-02  0.1035506E+00
         21   -1    0    0  501  502  0.00000000000E+00  0.00000000000E+00  0.55150734259E+03  0.55150734259E+03  0.00000000000E+00 0. -1.
         21   -1    0    0  502  503 -0.00000000000E+00 -0.00000000000E+00 -0.12500761798E+04  0.12500761798E+04  0.00000000000E+00 0.  1.
         -6    2    1    2    0  503  0.38392525704E+03 -0.56576113513E+02 -0.11232699437E+04  0.12007771139E+04  0.17184542812E+03 0.  0.
        -24    2    3    3    0    0  0.25704562511E+03 -0.34694966326E+02 -0.92974125398E+03  0.96828481433E+03  0.76684341506E+02 0.  0.
          6    2    1    2  501    0 -0.38392525704E+03  0.56576113513E+02  0.42470110649E+03  0.60080640851E+03  0.17319887715E+03 0.  0.
         24    2    5    5    0    0 -0.19329751157E+03  0.66284653595E+02  0.14835808718E+03  0.26491841020E+03  0.80087818968E+02 0.  0.
          5    1    5    5  501    0 -0.19062774546E+03 -0.97085400815E+01  0.27634301931E+03  0.33588799832E+03  0.47000000000E+01 0. -1.
        -11    1    6    6    0    0 -0.12863119473E+03  0.77668857852E+02  0.12422801196E+03  0.19496418823E+03  0.00000000000E+00 0.  1.
         12    1    6    6    0    0 -0.64666316841E+02 -0.11384204257E+02  0.24130075221E+02  0.69954221964E+02  0.00000000000E+00 0. -1.
         -5    1    3    3    0  503  0.12687963193E+03 -0.21881147188E+02 -0.19352868970E+03  0.23249229952E+03  0.47000000000E+01 0.  1.
         11    1    4    4    0    0  0.21825008323E+01  0.83359118849E+01 -0.11567029756E+02  0.14423831467E+02  0.00000000000E+00 0. -1.
        -12    1    4    4    0    0  0.25486312427E+03 -0.43030878211E+02 -0.91817422423E+03  0.95386098286E+03  0.00000000000E+00 0.  1.
</event>
<event>
12    1  0.8691829E-002  0.2169821E+03  0.7818608E-02  0.1136703E+00
         21   -1    0    0  501  502  0.00000000000E+00  0.00000000000E+00  0.28382664042E+03  0.28382664042E+03  0.00000000000E+00 0.  1.
         21   -1    0    0  502  503 -0.00000000000E+00 -0.00000000000E+00 -0.20127383299E+03  0.20127383299E+03  0.00000000000E+00 0. -1.
         -6    2    1    2    0  503 -0.10630304735E+03 -0.73771541222E+02 -0.63313275222E+02  0.22603051983E+03  0.17417992681E+03 0.  0.
        -24    2    3    3    0    0 -0.11727425274E+02 -0.77386131524E+02 -0.68482643989E+02  0.13112832845E+03  0.79866264086E+02 0.  0.
          6    2    1    2  501    0  0.10630304735E+03  0.73771541222E+02  0.14586608265E+03  0.25906995358E+03  0.17058062203E+03 0.  0.
         24    2    5    5    0    0  0.39181545342E+02 -0.21384186986E+02  0.32954622924E+02  0.96801668387E+02  0.79322625284E+02 0.  0.
          5    1    5    5  501    0  0.67121502012E+02  0.95155728208E+02  0.11291145973E+03  0.16226828520E+03  0.47000000000E+01 0. -1.
        -11    1    6    6    0    0  0.16498374907E+02 -0.25928099223E+02  0.56170129588E+02  0.64027698395E+02  0.00000000000E+00 0.  1.
         12    1    6    6    0    0  0.22683170435E+02  0.45439122365E+01 -0.23215506663E+02  0.32773969992E+02  0.00000000000E+00 0. -1.
         -5    1    3    3    0  503 -0.94575622079E+02  0.36145903023E+01  0.51693687665E+01  0.94902191377E+02  0.47000000000E+01 0.  1.
         13    1    4    4    0    0 -0.25217208546E+02 -0.72067596381E+01 -0.51318518720E+02  0.57631895291E+02  0.00000000000E+00 0. -1.
        -14    1    4    4    0    0  0.13489783271E+02 -0.70179371886E+02 -0.17164125269E+02  0.73496433160E+02  0.00000000000E+00 0.  1.
</event>
<event>
12    1  0.8691829E-002  0.1816923E+03  0.7818608E-02  0.1166189E+00
         21   -1    0    0  503  502  0.00000000000E+00  0.00000000000E+00  0.77696676982E+02  0.77696676982E+02  0.00000000000E+00 0.  1.
         21   -1    0    0  501  503 -0.00000000000E+00 -0.00000000000E+00 -0.43727688264E+03  0.43727688264E+03  0.00000000000E+00 0.  1.
          6    2    1    2  501    0  0.39198037553E+02  0.43652244066E+02 -0.22339699609E+03  0.28795537638E+03  0.17195951955E+03 0.  0.
         24    2    3    3    0    0  0.50587793457E+02 -0.34456076581E+02 -0.98011084820E+02  0.13971788774E+03  0.78540240302E+02 0.  0.
         -6    2    1    2    0  502 -0.39198037553E+02 -0.43652244066E+02 -0.13618320958E+03  0.22701818325E+03  0.17189934379E+03 0.  0.
        -24    2    5    5    0    0  0.27119713127E+02  0.12452349876E+02 -0.10302430979E+03  0.13391946064E+03  0.80186493075E+02 0.  0.
          5    1    3    3  501    0 -0.11389755905E+02  0.78108320648E+02 -0.12538591126E+03  0.14823748864E+03  0.47000000000E+01 0. -1.
        -13    1    4    4    0    0 -0.68922259341E+01  0.19322723428E+02 -0.25162646620E+02  0.32465815929E+02  0.00000000000E+00 0.  1.
         14    1    4    4    0    0  0.57480019391E+02 -0.53778800009E+02 -0.72848438201E+02  0.10725207181E+03  0.00000000000E+00 0. -1.
         -5    1    5    5    0  502 -0.66317750679E+02 -0.56104593942E+02 -0.33158899783E+02  0.93098722609E+02  0.47000000000E+01 0.  1.
         11    1    6    6    0    0 -0.25423656517E+02 -0.51682660940E+01 -0.15191147755E+02  0.30064002648E+02  0.00000000000E+00 0. -1.
        -12    1    6    6    0    0  0.52543369644E+02  0.17620615970E+02 -0.87833162039E+02  0.10385545799E+03  0.00000000000E+00 0.  1.
</event>
<event>
12    1  0.8691829E-002  0.2174443E+03  0.7818608E-02  0.1135937E+00
         21   -1    0    0  503  502  0.00000000000E+00  0.00000000000E+00  0.48792361294E+03  0.48792361294E+03  0.00000000000E+00 0. -1.
         21   -1    0    0  501  503 -0.00000000000E+00 -0.00000000000E+00 -0.10761553718E+03  0.10761553718E+03  0.00000000000E+00 0. -1.
          6    2    1    2  501    0 -0.79542205164E+02 -0.10797852663E+03  0.94568350363E+02  0.23647202006E+03  0.17026308691E+03 0.  0.
         24    2    3    3    0    0 -0.57813764128E+02 -0.36336825040E+02  0.11595393558E+03  0.15847143153E+03  0.83696375416E+02 0.  0.
         -6    2    1    2    0  502  0.79542205164E+02  0.10797852663E+03  0.28573972540E+03  0.35906713006E+03  0.17115983351E+03 0.  0.
        -24    2    5    5    0    0  0.16610134501E+02 -0.12006286971E+02  0.78321733625E+02  0.11127464768E+03  0.76339411605E+02 0.  0.
          5    1    3    3  501    0 -0.21728441036E+02 -0.71641701585E+02 -0.21385585215E+02  0.78000588529E+02  0.47000000000E+01 0. -1.
        -11    1    4    4    0    0 -0.39231082012E+01  0.24978662170E+02  0.18414294219E+02  0.31279555197E+02  0.00000000000E+00 0.  1.
         12    1    4    4    0    0 -0.53890655927E+02 -0.61315487210E+02  0.97539641358E+02  0.12719187633E+03  0.00000000000E+00 0. -1.
         -5    1    5    5    0  502  0.62932070663E+02  0.11998481360E+03  0.20741799177E+03  0.24779248238E+03  0.47000000000E+01 0.  1.
         13    1    6    6    0    0 -0.15481911910E+01  0.25513658884E+01  0.86541074186E+02  0.86592516334E+02  0.00000000000E+00 0. -1.
        -14    1    6    6    0    0  0.18158325692E+02 -0.14557652859E+02 -0.82193405612E+01  0.24682131350E+02  0.00000000000E+00 0.  1.
</event>
<event>
12    1  0.8691829E-002  0.2256149E+03  0.7818608E-02  0.1130026E+00
         21   -1    0    0  501  502  0.00000000000E+00  0.00000000000E+00  0.15534025426E+03  0.15534025426E+03  0.00000000000E+00 0.  1.
         21   -1    0    0  502  503 -0.00000000000E+00 -0.00000000000E+00 -0.53465448330E+03  0.53465448330E+03  0.00000000000E+00 0.  1.
         -6    2    1    2    0  503  0.84377524860E+02  0.11688188803E+03  0.26449375597E+02  0.22572523077E+03  0.17167226883E+03 0.  0.
        -24    2    3    3    0    0  0.50272308520E+02  0.12180324648E+03 -0.33335336473E+02  0.15656102509E+03  0.77696679864E+02 0.  0.
          6    2    1    2  501    0 -0.84377524860E+02 -0.11688188803E+03 -0.40576360463E+03  0.46426950679E+03  0.17355439965E+03 0.  0.
         24    2    5    5    0    0 -0.48240775782E+02 -0.58653656682E-01 -0.11973765840E+03  0.15316427597E+03  0.82431867054E+02 0.  0.
          5    1    5    5  501    0 -0.36136749078E+02 -0.11682323437E+03 -0.28602594624E+03  0.31110523082E+03  0.47000000000E+01 0. -1.
        -11    1    6    6    0    0 -0.34666628823E+02  0.28997674424E+02 -0.11111462134E+03  0.11995457204E+03  0.00000000000E+00 0.  1.
         12    1    6    6    0    0 -0.13574146959E+02 -0.29056328081E+02 -0.86230370520E+01  0.33209703931E+02  0.00000000000E+00 0. -1.
         -5    1    3    3    0  503  0.34105216340E+02 -0.49213584507E+01  0.59784712069E+02  0.69164205683E+02  0.47000000000E+01 0.  1.
         13    1    4    4    0    0  0.69389097875E+02  0.10899076491E+03 -0.33765255508E+02  0.13354372399E+03  0.00000000000E+00 0. -1.
        -14    1    4    4    0    0 -0.19116789354E+02  0.12812481576E+02  0.42991903563E+00  0.23017301096E+02  0.00000000000E+00 0.  1.
</event>
<event>
12    1  0.8691829E-002  0.2053090E+03  0.7818608E-02  0.1146453E+00
         21   -1    0    0  501  502  0.00000000000E+00  0.00000000000E+00  0.18396572474E+03  0.18396572474E+03  0.00000000000E+00 0.  1.
         21   -1    0    0  502  503 -0.00000000000E+00 -0.00000000000E+00 -0.57801178963E+03  0.57801178963E+03  0.00000000000E+00 0.  1.
         -6    2    1    2    0  503 -0.54514748150E+02 -0.95200637614E+02 -0.49655106108E+03  0.53732181978E+03  0.17354181797E+03 0.  0.
        -24    2    3    3    0    0 -0.90604299259E+02 -0.72606170811E+02 -0.24968430158E+03  0.28676593265E+03  0.80072808052E+02 0.  0.
          6    2    1    2  501    0  0.54514748150E+02  0.95200637614E+02  0.10250499619E+03  0.22465569459E+03  0.16711638969E+03 0.  0.
         24    2    5    5    0    0  0.20342343746E+02  0.11348000906E+03  0.11712993227E+03  0.18296795781E+03  0.80413488583E+02 0.  0.
          5    1    5    5  501    0  0.34172404404E+02 -0.18279371442E+02 -0.14624936079E+02  0.41687736787E+02  0.47000000000E+01 0. -1.
        -13    1    6    6    0    0  0.18036418829E+02  0.74204517986E+01 -0.60341864738E+01  0.20415359793E+02  0.00000000000E+00 0.  1.
         14    1    6    6    0    0  0.23059249170E+01  0.10605955726E+03  0.12316411874E+03  0.16255259801E+03  0.00000000000E+00 0. -1.
         -5    1    3    3    0  503  0.36089551110E+02 -0.22594466803E+02 -0.24686675950E+03  0.25055588713E+03  0.47000000000E+01 0.  1.
         11    1    4    4    0    0 -0.14770028684E+02  0.14330767122E+02 -0.15689923924E+02  0.25878530607E+02  0.00000000000E+00 0. -1.
        -12    1    4    4    0    0 -0.75834270576E+02 -0.86936937932E+02 -0.23399437765E+03  0.26088740204E+03  0.00000000000E+00 0.  1.
</event>
<event>
12    1  0.8691829E-002  0.1825068E+03  0.7818608E-02  0.1168250E+00
         21   -1    0    0  503  502  0.00000000000E+00  0.00000000000E+00  0.23466490992E+04  0.23466490992E+04  0.00000000000E+00 0. -1.
         21   -1    0    0  501  503 -0.00000000000E+00 -0.00000000000E+00 -0.15481727177E+02  0.15481727177E+02  0.00000000000E+00 0. -1.
          6    2    1    2  501    0  0.13998027018E+00 -0.83819472183E+01  0.75601348465E+03  0.77773074524E+03  0.18231414231E+03 0.  0.
         24    2    3    3    0    0 -0.52185576289E+02  0.46687163656E+02  0.46142026409E+03  0.47346469975E+03  0.79731650982E+02 0.  0.
         -6    2    1    2    0  502 -0.13998027018E+00  0.83819472183E+01  0.15751538874E+04  0.15844000811E+04  0.17071488385E+03 0.  0.
        -24    2    5    5    0    0 -0.11934568607E+02  0.55400373124E+02  0.59738092410E+03  0.60541494214E+03  0.80322153897E+02 0.  0.
          5    1    3    3  501    0  0.52325556559E+02 -0.55069110874E+02  0.29459322056E+03  0.30426604549E+03  0.47000000000E+01 0. -1.
        -11    1    4    4    0    0 -0.20403197564E+02  0.55221434036E+02  0.16431706728E+03  0.17454453829E+03  0.00000000000E+00 0.  1.
         12    1    4    4    0    0 -0.31782378725E+02 -0.85342703797E+01  0.29710319682E+03  0.29892016146E+03  0.00000000000E+00 0. -1.
         -5    1    5    5    0  502  0.11794588337E+02 -0.47018425906E+02  0.97777296328E+03  0.97898513901E+03  0.47000000000E+01 0.  1.
         11    1    6    6    0    0 -0.49056578449E+01 -0.94860782621E-02  0.40651214643E+03  0.40654174541E+03  0.00000000000E+00 0. -1.
        -12    1    6    6    0    0 -0.70289107619E+01  0.55409859203E+02  0.19086877768E+03  0.19887319672E+03  0.00000000000E+00 0.  1.
</event>
<event>
12    1  0.8691829E-002  0.1912779E+03  0.7818608E-02  0.1157720E+00
         21   -1    0    0  503  502  0.00000000000E+00  0.00000000000E+00  0.63213872043E+02  0.63213872043E+02  0.00000000000E+00 0. -1.
         21   -1    0    0  501  503 -0.00000000000E+00 -0.00000000000E+00 -0.57610435264E+03  0.57610435264E+03  0.00000000000E+00 0. -1.
          6    2    1    2  501    0  0.28076760391E+02 -0.75879296203E+02 -0.23545532498E+03  0.30335862496E+03  0.17332418529E+03 0.  0.
         24    2    3    3    0    0 -0.17979158469E+02 -0.61033653485E+02 -0.53417244290E+02  0.11494022460E+03  0.79432337541E+02 0.  0.
         -6    2    1    2    0  502 -0.28076760391E+02  0.75879296203E+02 -0.27743515561E+03  0.33595959972E+03  0.17132604884E+03 0.  0.
        -24    2    5    5    0    0 -0.49463821264E+02  0.94372024219E+02 -0.27704559174E+03  0.30729552600E+03  0.79520637748E+02 0.  0.
          5    1    3    3  501    0  0.46055918861E+02 -0.14845642718E+02 -0.18203808069E+03  0.18841840035E+03  0.47000000000E+01 0. -1.
        -13    1    4    4    0    0 -0.70829285442E+01 -0.19092784470E+02  0.20729918297E+02  0.29059108867E+02  0.00000000000E+00 0.  1.
         14    1    4    4    0    0 -0.10896229925E+02 -0.41940869015E+02 -0.74147162586E+02  0.85881115735E+02  0.00000000000E+00 0. -1.
         -5    1    5    5    0  502  0.21387060873E+02 -0.18492728016E+02 -0.38956386961E+00  0.28664073721E+02  0.47000000000E+01 0.  1.
         13    1    6    6    0    0  0.53610637898E+01  0.33688337470E+02 -0.24940278778E+02  0.42257101083E+02  0.00000000000E+00 0. -1.
        -14    1    6    6    0    0 -0.54824885054E+02  0.60683686749E+02 -0.25210531297E+03  0.26503842492E+03  0.00000000000E+00 0.  1.
</event>
<event>
12    1  0.8691829E-002  0.2430306E+03  0.7818608E-02  0.1117925E+00
         21   -1    0    0  503  502  0.00000000000E+00  0.00000000000E+00  0.11655312330E+03  0.11655312330E+03  0.00000000000E+00 0.  1.
         21   -1    0    0  501  503 -0.00000000000E+00 -0.00000000000E+00 -0.75260937530E+03  0.75260937530E+03  0.00000000000E+00 0. -1.
          6    2    1    2  501    0  0.93183914677E+02  0.14372696633E+03 -0.68417904926E+02  0.25168604112E+03  0.17124301672E+03 0.  0.
         24    2    3    3    0    0  0.59072126354E+02  0.17028353885E+03 -0.64635068426E+02  0.20803669406E+03  0.81336180711E+02 0.  0.
         -6    2    1    2    0  502 -0.93183914677E+02 -0.14372696633E+03 -0.56763834708E+03  0.61747645748E+03  0.17240417529E+03 0.  0.
        -24    2    5    5    0    0 -0.96179383303E+02 -0.17311433173E+03 -0.47596581138E+03  0.52104755165E+03  0.75683894268E+02 0.  0.
          5    1    3    3  501    0  0.34111788323E+02 -0.26556572519E+02 -0.37828365001E+01  0.43649347057E+02  0.47000000000E+01 0. -1.
        -11    1    4    4    0    0 -0.16323783630E+02  0.76637001266E+01 -0.10137909007E+02  0.20687566572E+02  0.00000000000E+00 0.  1.
         12    1    4    4    0    0  0.75395909984E+02  0.16261983872E+03 -0.54497159419E+02  0.18734912749E+03  0.00000000000E+00 0. -1.
         -5    1    5    5    0  502  0.29954686264E+01  0.29387365405E+02 -0.91672535697E+02  0.96428905826E+02  0.47000000000E+01 0.  1.
         13    1    6    6    0    0 -0.54618072525E+02 -0.34470136325E+02 -0.18738831503E+03  0.19820621775E+03  0.00000000000E+00 0. -1.
        -14    1    6    6    0    0 -0.41561310778E+02 -0.13864419541E+03 -0.28857749636E+03  0.32284133391E+03  0.00000000000E+00 0.  1.
</event>
<event>
12    1  0.8691829E-002  0.2630512E+03  0.7818608E-02  0.1105379E+00
         21   -1    0    0  503  502  0.00000000000E+00  0.00000000000E+00  0.53742600766E+03  0.53742600766E+03  0.00000000000E+00 0.  1.
         21   -1    0    0  501  503 -0.00000000000E+00 -0.00000000000E+00 -0.40341184693E+03  0.40341184693E+03  0.00000000000E+00 0. -1.
          6    2    1    2  501    0  0.17856902483E+03  0.86618710380E+02 -0.32129328010E+03  0.41500440635E+03  0.17207436718E+03 0.  0.
         24    2    3    3    0    0  0.10504808048E+03  0.10098592971E+03 -0.13579131680E+03  0.21489240113E+03  0.80661050896E+02 0.  0.
         -6    2    1    2    0  502 -0.17856902483E+03 -0.86618710380E+02  0.45530744083E+03  0.52583344823E+03  0.17264487245E+03 0.  0.
        -24    2    5    5    0    0 -0.15692457494E+03 -0.58504913152E+02  0.45362153376E+03  0.49000329210E+03  0.79262748447E+02 0.  0.
          5    1    3    3  501    0  0.73520944348E+02 -0.14367219329E+02 -0.18550196329E+03  0.20011200523E+03  0.47000000000E+01 0. -1.
        -13    1    4    4    0    0  0.72201185103E+02  0.32306600267E+02 -0.30090742705E+02  0.84629665884E+02  0.00000000000E+00 0.  1.
         14    1    4    4    0    0  0.32846895377E+02  0.68679329441E+02 -0.10570057410E+03  0.13026273524E+03  0.00000000000E+00 0. -1.
         -5    1    5    5    0  502 -0.21644449891E+02 -0.28113797228E+02  0.16859070674E+01  0.35830156130E+02  0.47000000000E+01 0.  1.
         11    1    6    6    0    0 -0.17361860865E+02  0.18905150025E+02  0.65629957727E+02  0.70470775939E+02  0.00000000000E+00 0. -1.
        -12    1    6    6    0    0 -0.13956271407E+03 -0.77410063176E+02  0.38799157604E+03  0.41953251616E+03  0.00000000000E+00 0.  1.
</event>
<event>
12    1  0.8691829E-002  0.2491351E+03  0.7818608E-02  0.1113898E+00
         21   -1    0    0  501  502  0.00000000000E+00  0.00000000000E+00  0.17977170570E+03  0.17977170570E+03  0.00000000000E+00 0.  1.
         21   -1    0    0  502  503 -0.00000000000E+00 -0.00000000000E+00 -0.38677066352E+03  0.38677066352E+03  0.00000000000E+00 0.  1.
         -6    2    1    2    0  503  0.17936801114E+03  0.12537190788E+02 -0.10310823130E+02  0.24934835460E+03  0.17244774367E+03 0.  0.
        -24    2    3    3    0    0  0.72949285453E+02  0.54246618703E+02  0.35356741510E+02  0.12617271572E+03  0.80032250581E+02 0.  0.
          6    2    1    2  501    0 -0.17936801114E+03 -0.12537190788E+02 -0.19668813469E+03  0.31719401462E+03  0.17203417107E+03 0.  0.
         24    2    5    5    0    0 -0.49363383643E+02 -0.56164064162E+02 -0.66134230509E+02  0.12779781839E+03  0.79795991085E+02 0.  0.
          5    1    5    5  501    0 -0.13000462749E+03  0.43626873374E+02 -0.13055390418E+03  0.18939619623E+03  0.47000000000E+01 0. -1.
        -13    1    6    6    0    0 -0.69921962780E+02 -0.48993286650E+02 -0.62295030236E+02  0.10568866452E+03  0.00000000000E+00 0.  1.
         14    1    6    6    0    0  0.20558579137E+02 -0.71707775123E+01 -0.38392002721E+01  0.22109153874E+02  0.00000000000E+00 0. -1.
         -5    1    3    3    0  503  0.10641872568E+03 -0.41709427915E+02 -0.45667564640E+02  0.12317563888E+03  0.47000000000E+01 0.  1.
         11    1    4    4    0    0 -0.50639330347E+01 -0.13889188536E+02 -0.40866980837E+01  0.15337994563E+02  0.00000000000E+00 0. -1.
        -12    1    4    4    0    0  0.78013218488E+02  0.68135807239E+02  0.39443439594E+02  0.11083472116E+03  0.00000000000E+00 0.  1.
</event>
<event>
12    1  0.8691829E-002  0.2378125E+03  0.7818608E-02  0.1121314E+00
         21   -1    0    0  503  502  0.00000000000E+00  0.00000000000E+00  0.91596862792E+02  0.91596862792E+02  0.00000000000E+00 0.  1.
         21   -1    0    0  501  503 -0.00000000000E+00 -0.00000000000E+00 -0.61659994916E+03  0.61659994916E+03  0.00000000000E+00 0. -1.
          6    2    1    2  501    0 -0.15049390389E+03 -0.65095484006E+02 -0.26498996440E+03  0.35605401565E+03  0.17224675231E+03 0.  0.
         24    2    3    3    0    0 -0.13855763768E+03 -0.22384992068E+02 -0.11038555939E+03  0.19514636319E+03  0.78726263169E+02 0.  0.
         -6    2    1    2    0  502  0.15049390389E+03  0.65095484006E+02 -0.26001312196E+03  0.35214279630E+03  0.17179024491E+03 0.  0.
        -24    2    5    5    0    0  0.12219238084E+03  0.97899065067E+02 -0.13889744237E+03  0.22342547431E+03  0.78174408826E+02 0.  0.
          5    1    3    3  501    0 -0.11936266208E+02 -0.42710491938E+02 -0.15460440502E+03  0.16090765247E+03  0.47000000000E+01 0. -1.
        -13    1    4    4    0    0 -0.95845420019E+02 -0.50187688414E+02 -0.61109171647E+02  0.12425570195E+03  0.00000000000E+00 0.  1.
         14    1    4    4    0    0 -0.42712217664E+02  0.27802696346E+02 -0.49276387742E+02  0.70890661238E+02  0.00000000000E+00 0. -1.
         -5    1    5    5    0  502  0.28301523049E+02 -0.32803581062E+02 -0.12111567959E+03  0.12871732199E+03  0.47000000000E+01 0.  1.
         13    1    6    6    0    0  0.80865796751E+02  0.82638943470E+02 -0.13708490934E+03  0.17933416972E+03  0.00000000000E+00 0. -1.
        -14    1    6    6    0    0  0.41326584091E+02  0.15260121597E+02 -0.18125330305E+01  0.44091304583E+02  0.00000000000E+00 0.  1.
</event>
<event>
12    1  0.8691829E-002  0.2141939E+03  0.7818608E-02  0.1138552E+00
         21   -1    0    0  503  502  0.00000000000E+00  0.00000000000E+00  0.85988935438E+03  0.85988935438E+03  0.00000000000E+00 0.  1.
         21   -1    0    0  501  503 -0.00000000000E+00 -0.00000000000E+00 -0.63630018648E+02  0.63630018648E+02  0.00000000000E+00 0. -1.
          6    2    1    2  501    0 -0.16807589014E+02 -0.12632873860E+03  0.20845995913E+03  0.29790994892E+03  0.17045039708E+03 0.  0.
         24    2    3    3    0    0 -0.25988162874E+02 -0.14360540672E+03  0.21912188577E+03  0.27513863193E+03  0.79931023444E+02 0.  0.
         -6    2    1    2    0  502  0.16807589014E+02  0.12632873860E+03  0.58779937660E+03  0.62560942410E+03  0.17215574097E+03 0.  0.
        -24    2    5    5    0    0 -0.37044196769E+02  0.29026595079E+02  0.36514133586E+03  0.37667888144E+03  0.79649035343E+02 0.  0.
          5    1    3    3  501    0  0.91805738597E+01  0.17276668126E+02 -0.10661926638E+02  0.22771316993E+02  0.47000000000E+01 0. -1.
        -13    1    4    4    0    0 -0.18098739678E+01 -0.23830358729E+02  0.10587485416E+03  0.10853868612E+03  0.00000000000E+00 0.  1.
         14    1    4    4    0    0 -0.24178288906E+02 -0.11977504799E+03  0.11324703160E+03  0.16659994581E+03  0.00000000000E+00 0. -1.
         -5    1    5    5    0  502  0.53851785782E+02  0.97302143519E+02  0.22265804074E+03  0.24893054266E+03  0.47000000000E+01 0.  1.
         13    1    6    6    0    0 -0.16990935257E+02  0.26356996815E+02  0.39615110629E+02  0.50524648957E+02  0.00000000000E+00 0. -1.
        -14    1    6    6    0    0 -0.20053261511E+02  0.26695982642E+01  0.32552622523E+03  0.32615423248E+03  0.00000000000E+00 0.  1.
</event>
<event>
12    1  0.8691829E-002  0.1773778E+03  0.7818608E-02  0.1176491E+00
         21   -1    0    0  501  502  0.00000000000E+00  0.00000000000E+00  0.42173181790E+03  0.42173181790E+03  0.00000000000E+00 0.  1.
         21   -1    0    0  502  503 -0.00000000000E+00 -0.00000000000E+00 -0.42297920500E+03  0.42297920500E+03  0.00000000000E+00 0.  1.
         -6    2    1    2    0  503 -0.27241064838E+02 -0.61992823121E+01 -0.38890336753E+03  0.41840122822E+03  0.15176709717E+03 0.  0.
        -24    2    3    3    0    0 -0.42279824615E+01  0.47717351877E+02 -0.27270625630E+03  0.28816888177E+03  0.79861008570E+02 0.  0.
          6    2    1    2  501    0  0.27241064838E+02  0.61992823121E+01  0.38765598042E+03  0.42630979468E+03  0.17516385236E+03 0.  0.
         24    2    5    5    0    0  0.86023556676E+02 -0.49548682102E+01  0.25884331801E+03  0.28420212981E+03  0.79664197009E+02 0.  0.
          5    1    5    5  501    0 -0.58782491839E+02  0.11154150522E+02  0.12881266240E+03  0.14210766488E+03  0.47000000000E+01 0. -1.
        -11    1    6    6    0    0 -0.10282247755E+01 -0.72926272643E+01  0.12054972398E+03  0.12077448245E+03  0.00000000000E+00 0.  1.
         12    1    6    6    0    0  0.87051781452E+02  0.23377590542E+01  0.13829359403E+03  0.16342764736E+03  0.00000000000E+00 0. -1.
         -5    1    3    3    0  503 -0.23013082376E+02 -0.53916634189E+02 -0.11619711123E+03  0.13023234644E+03  0.47000000000E+01 0.  1.
         13    1    4    4    0    0  0.23865221551E+01  0.10634800466E+02  0.18375291833E+01  0.11053098319E+02  0.00000000000E+00 0. -1.
        -14    1    4    4    0    0 -0.66145046166E+01  0.37082551411E+02 -0.27454378549E+03  0.27711578345E+03  0.00000000000E+00 0.  1.
</event>
<event>
12    1  0.8691829E-002  0.2220496E+03  0.7818608E-02  0.1133231E+00
         21   -1    0    0  503  502  0.00000000000E+00  0.00000000000E+00  0.13209172600E+04  0.13209172600E+04  0.00000000000E+00 0. -1.
         21   -1    0    0  501  503 -0.00000000000E+00 -0.00000000000E+00 -0.39445104431E+02  0.39445104431E+02  0.00000000000E+00 0.  1.
          6    2    1    2  501    0  0.13134960710E+03  0.17863976287E+02  0.45013436578E+03  0.49988079467E+03  0.17230212039E+03 0.  0.
         24    2    3    3    0    0  0.91628885765E+02  0.78254916917E+02  0.30968060669E+03  0.34184867814E+03  0.80241858500E+02 0.  0.
         -6    2    1    2    0  502 -0.13134960710E+03 -0.17863976287E+02  0.83133778976E+03  0.86048156973E+03  0.17814087187E+03 0.  0.
        -24    2    5    5    0    0 -0.11372965852E+03  0.51505206769E+02  0.47382009428E+03  0.49583991176E+03  0.75924401876E+02 0.  0.
          5    1    3    3  501    0  0.39720721339E+02 -0.60390940630E+02  0.14045375909E+03  0.15803211653E+03  0.47000000000E+01 0. -1.
        -11    1    4    4    0    0  0.40108401157E+02 -0.46737651268E+00  0.41824010263E+02  0.57949548045E+02  0.00000000000E+00 0.  1.
         12    1    4    4    0    0  0.51520484608E+02  0.78722293429E+02  0.26785659643E+03  0.28389913009E+03  0.00000000000E+00 0. -1.
         -5    1    5    5    0  502 -0.17619948582E+02 -0.69369183056E+02  0.35751769548E+03  0.36464165797E+03  0.47000000000E+01 0.  1.
         13    1    6    6    0    0 -0.14160487060E+02  0.36198469460E+02  0.74760380944E+02  0.84261279031E+02  0.00000000000E+00 0. -1.
        -14    1    6    6    0    0 -0.99569171461E+02  0.15306737309E+02  0.39905971334E+03  0.41157863273E+03  0.00000000000E+00 0.  1.
</event>
<event>
12    1  0.8691829E-002  0.1832260E+03  0.7818608E-02  0.1164798E+00
         21   -1    0    0  501  502  0.00000000000E+00  0.00000000000E+00  0.14202952160E+03  0.14202952160E+03  0.00000000000E+00 0.  1.
         21   -1    0    0  502  503 -0.00000000000E+00 -0.00000000000E+00 -0.25871108219E+03  0.25871108219E+03  0.00000000000E+00 0.  1.
         -6    2    1    2    0  503  0.62335892913E+02  0.90737564000E+01 -0.11785080667E+03  0.21785449308E+03  0.17205717341E+03 0.  0.
        -24    2    3    3    0    0 -0.60162705376E+01  0.38176264803E+00  0.55202219174E+00  0.80781925120E+02  0.80554785356E+02 0.  0.
          6    2    1    2  501    0 -0.62335892913E+02 -0.90737564000E+01  0.11692460738E+01  0.18288611071E+03  0.17169119300E+03 0.  0.
         24    2    5    5    0    0 -0.82064357674E+01  0.57069326780E+01  0.60097283286E+02  0.10138107731E+03  0.81034095969E+02 0.  0.
          5    1    5    5  501    0 -0.54129457145E+02 -0.14780689078E+02 -0.58928037212E+02  0.81505033404E+02  0.47000000000E+01 0. -1.
        -13    1    6    6    0    0 -0.36591155691E+02 -0.13531473656E+02  0.53897004875E+02  0.66534957644E+02  0.00000000000E+00 0.  1.
         14    1    6    6    0    0  0.28384719924E+02  0.19238406334E+02  0.62002784108E+01  0.34846119666E+02  0.00000000000E+00 0. -1.
         -5    1    3    3    0  503  0.68352163450E+02  0.86919937519E+01 -0.11840282886E+03  0.13707256796E+03  0.47000000000E+01 0.  1.
         11    1    4    4    0    0 -0.19894375818E+02 -0.75674947474E+01 -0.35471502344E+02  0.41367627977E+02  0.00000000000E+00 0. -1.
        -12    1    4    4    0    0  0.13878105280E+02  0.79492573955E+01  0.36023524535E+02  0.39414297143E+02  0.00000000000E+00 0.  1.
</event>
<event>
12    1  0.8691829E-002  0.3622048E+03  0.7818608E-02  0.1057877E+00
         21   -1    0    0  501  502  0.00000000000E+00  0.00000000000E+00  0.16125087458E+04  0.16125087458E+04  0.00000000000E+00 0.  1.
         21   -1    0    0  502  503 -0.00000000000E+00 -0.00000000000E+00 -0.13666356769E+03  0.13666356769E+03  0.00000000000E+00 0.  1.
         -6    2    1    2    0  503 -0.32697793539E+02 -0.31469353123E+03  0.18070255690E+03  0.40477859489E+03  0.17632677762E+03 0.  0.
        -24    2    3    3    0    0  0.38165670443E+02 -0.22389653095E+03  0.84347208357E+02  0.25453822421E+03  0.78031923314E+02 0.  0.
          6    2    1    2  501    0  0.32697793539E+02  0.31469353123E+03  0.12951426212E+04  0.13443937186E+04  0.17291297532E+03 0.  0.
         24    2    5    5    0    0  0.39597028516E+02  0.30568773686E+03  0.12934475141E+04  0.13319974626E+04  0.78726434314E+02 0.  0.
          5    1    5    5  501    0 -0.68992349770E+01  0.90057943712E+01  0.16951071282E+01  0.12396256036E+02  0.47000000000E+01 0. -1.
        -11    1    6    6    0    0  0.58821318604E+02  0.15080802753E+03  0.68181173198E+03  0.70076404485E+03  0.00000000000E+00 0.  1.
         12    1    6    6    0    0 -0.19224290088E+02  0.15487970933E+03  0.61163578212E+03  0.63123341774E+03  0.00000000000E+00 0. -1.
         -5    1    3    3    0  503 -0.70863463982E+02 -0.90797000284E+02  0.96355348539E+02  0.15024037067E+03  0.47000000000E+01 0.  1.
         13    1    4    4    0    0  0.46355507149E+02 -0.82029554190E+02  0.56089575320E+02  0.10965273030E+03  0.00000000000E+00 0. -1.
        -14    1    4    4    0    0 -0.81898367061E+01 -0.14186697676E+03  0.28257633038E+02  0.14488549391E+03  0.00000000000E+00 0.  1.
</event>
<event>
12    1  0.8691829E-002  0.2003106E+03  0.7818608E-02  0.1150170E+00
         21   -1    0    0  501  502  0.00000000000E+00  0.00000000000E+00  0.60665667303E+02  0.60665667303E+02  0.00000000000E+00 0.  1.
         21   -1    0    0  502  503 -0.00000000000E+00 -0.00000000000E+00 -0.73182077785E+03  0.73182077785E+03  0.00000000000E+00 0. -1.
         -6    2    1    2    0  503 -0.93523817860E+02 -0.11830276847E+02 -0.46996115042E+03  0.51086965249E+03  0.17674178615E+03 0.  0.
        -24    2    3    3    0    0 -0.13000886556E+03 -0.27179429723E+02 -0.33828772095E+03  0.37329517365E+03  0.85262406722E+02 0.  0.
          6    2    1    2  501    0  0.93523817860E+02  0.11830276847E+02 -0.20119396013E+03  0.28161679266E+03  0.17303857478E+03 0.  0.
         24    2    5    5    0    0  0.11593596051E+03  0.46430713292E+02 -0.12110304204E+03  0.19141624111E+03  0.79857826758E+02 0.  0.
          5    1    5    5  501    0 -0.22412142647E+02 -0.34600436445E+02 -0.80090918091E+02  0.90200551555E+02  0.47000000000E+01 0. -1.
        -13    1    6    6    0    0 -0.48294129491E+01  0.18250019440E+02 -0.37119363438E+02  0.41644130212E+02  0.00000000000E+00 0.  1.
         14    1    6    6    0    0  0.12076537346E+03  0.28180693851E+02 -0.83983678598E+02  0.14977211090E+03  0.00000000000E+00 0. -1.
         -5    1    3    3    0  503  0.36485047699E+02  0.15349152876E+02 -0.13167342948E+03  0.13757447885E+03  0.47000000000E+01 0.  1.
         13    1    4    4    0    0 -0.16325441928E+02  0.13816791683E+02 -0.13589520819E+03  0.13756791557E+03  0.00000000000E+00 0. -1.
        -14    1    4    4    0    0 -0.11368342363E+03 -0.40996221406E+02 -0.20239251276E+03  0.23572725807E+03  0.00000000000E+00 0.  1.
</event>
<event>
12    1  0.8691829E-002  0.1968930E+03  0.7818608E-02  0.1152825E+00
         21   -1    0    0  503  502  0.00000000000E+00  0.00000000000E+00  0.44488937326E+03  0.44488937326E+03  0.00000000000E+00 0.  1.
         21   -1    0    0  501  503 -0.00000000000E+00 -0.00000000000E+00 -0.97821446203E+02  0.97821446203E+02  0.00000000000E+00 0.  1.
          6    2    1    2  501    0  0.77890557753E+02 -0.51013023722E+02  0.79398961262E+02  0.21042551392E+03  0.17118830066E+03 0.  0.
         24    2    3    3    0    0  0.43718518578E+02  0.28304614355E+02  0.50701537342E+01  0.96382199339E+02  0.80940483259E+02 0.  0.
         -6    2    1    2    0  502 -0.77890557753E+02  0.51013023722E+02  0.26766896580E+03  0.33228530555E+03  0.17348654546E+03 0.  0.
        -24    2    5    5    0    0  0.40128684869E+01  0.61669925592E+02  0.20474662376E+03  0.22834757460E+03  0.80013449169E+02 0.  0.
          5    1    3    3  501    0  0.34172039175E+02 -0.79317638076E+02  0.74328807528E+02  0.11404331458E+03  0.47000000000E+01 0. -1.
        -13    1    4    4    0    0  0.24225277919E+02  0.25915998879E+02 -0.36195535467E+02  0.50681553605E+02  0.00000000000E+00 0.  1.
         14    1    4    4    0    0  0.19493240659E+02  0.23886154761E+01  0.41265689201E+02  0.45700645734E+02  0.00000000000E+00 0. -1.
         -5    1    5    5    0  502 -0.81903426240E+02 -0.10656901871E+02  0.62922342038E+02  0.10393773095E+03  0.47000000000E+01 0.  1.
         13    1    6    6    0    0 -0.46050057574E+01  0.29144749858E+02  0.18883704545E+03  0.19112836592E+03  0.00000000000E+00 0. -1.
        -14    1    6    6    0    0  0.86178742442E+01  0.32525175734E+02  0.15909578306E+02  0.37219208681E+02  0.00000000000E+00 0.  1.
</event>
<event>
12    1  0.8691829E-002  0.1904062E+03  0.7818608E-02  0.1158235E+00
         21   -1    0    0  503  502  0.00000000000E+00  0.00000000000E+00  0.11149419605E+04  0.11149419605E+04  0.00000000000E+00 0. -1.
         21   -1    0    0  501  503 -0.00000000000E+00 -0.00000000000E+00 -0.50839606100E+02  0.50839606100E+02  0.00000000000E+00 0.  1.
          6    2    1    2  501    0 -0.35500216636E+02  0.71360880999E+02  0.18166661915E+03  0.26316774694E+03  0.17292154810E+03 0.  0.
         24    2    3    3    0    0  0.20046855000E+02  0.86595278841E+02  0.72015321569E+02  0.13921993088E+03  0.79343329277E+02 0.  0.
         -6    2    1    2    0  502  0.35500216636E+02 -0.71360880999E+02  0.88243573520E+03  0.90261381961E+03  0.17223890348E+03 0.  0.
        -24    2    5    5    0    0 -0.31584869452E+02 -0.78715744244E+00  0.24226713717E+03  0.25506537884E+03  0.73258160891E+02 0.  0.
          5    1    3    3  501    0 -0.55547071636E+02 -0.15234397842E+02  0.10965129758E+03  0.12394781606E+03  0.47000000000E+01 0. -1.
        -11    1    4    4    0    0  0.45011102189E+02  0.24155290259E+02  0.39225663811E+02  0.64405978520E+02  0.00000000000E+00 0.  1.
         12    1    4    4    0    0 -0.24964247189E+02  0.62439988582E+02  0.32789657758E+02  0.74813952360E+02  0.00000000000E+00 0. -1.
         -5    1    5    5    0  502  0.67085086089E+02 -0.70573723557E+02  0.64016859803E+03  0.64754844077E+03  0.47000000000E+01 0.  1.
         11    1    6    6    0    0  0.10089959880E+02 -0.27044979651E+02  0.11582093039E+03  0.11936383930E+03  0.00000000000E+00 0. -1.
        -12    1    6    6    0    0 -0.41674829333E+02  0.26257822209E+02  0.12644620678E+03  0.13570153955E+03  0.00000000000E+00 0.  1.
</event>
<event>
12    1  0.8691829E-002  0.2121642E+03  0.7818608E-02  0.1140613E+00
         21   -1    0    0  501  502  0.00000000000E+00  0.00000000000E+00  0.82016294317E+02  0.82016294317E+02  0.00000000000E+00 0.  1.
         21   -1    0    0  502  503 -0.00000000000E+00 -0.00000000000E+00 -0.54363473778E+03  0.54363473778E+03  0.00000000000E+00 0.  1.
         -6    2    1    2    0  503 -0.83896950071E+02  0.90616063804E+02 -0.26157882938E+03  0.33680427705E+03  0.17252149955E+03 0.  0.
        -24    2    3    3    0    0 -0.11845657391E+03  0.95813719555E+02 -0.18621154790E+03  0.25359550142E+03  0.80148044324E+02 0.  0.
          6    2    1    2  501    0  0.83896950071E+02 -0.90616063804E+02 -0.20003961409E+03  0.28884675505E+03  0.16782917342E+03 0.  0.
         24    2    5    5    0    0  0.90642478999E+02 -0.42020399779E+01 -0.10891875241E+03  0.16299769026E+03  0.80443994599E+02 0.  0.
          5    1    5    5  501    0 -0.67455289275E+01 -0.86414023826E+02 -0.91120861683E+02  0.12584906479E+03  0.47000000000E+01 0. -1.
        -11    1    6    6    0    0  0.66046322081E+02  0.69173706613E+01 -0.11724874016E+03  0.13474878013E+03  0.00000000000E+00 0.  1.
         12    1    6    6    0    0  0.24596156918E+02 -0.11119410639E+02  0.83299877508E+01  0.28248910138E+02  0.00000000000E+00 0. -1.
         -5    1    3    3    0  503  0.34559623837E+02 -0.51976557513E+01 -0.75367281475E+02  0.83208775631E+02  0.47000000000E+01 0.  1.
         13    1    4    4    0    0 -0.85579968339E+02  0.68506625771E+02 -0.17950979625E+03  0.21033510336E+03  0.00000000000E+00 0. -1.
        -14    1    4    4    0    0 -0.32876605569E+02  0.27307093784E+02 -0.67017516508E+01  0.43260398055E+02  0.00000000000E+00 0.  1.
</event>
<event>
12    1  0.8691829E-002  0.2113815E+03  0.7818608E-02  0.1140572E+00
         21   -1    0    0  501  502  0.00000000000E+00  0.00000000000E+00  0.29393916950E+03  0.29393916950E+03  0.00000000000E+00 0.  1.
         21   -1    0    0  502  503 -0.00000000000E+00 -0.00000000000E+00 -0.15199009017E+03  0.15199009017E+03  0.00000000000E+00 0. -1.
         -6    2    1    2    0  503 -0.10323093406E+03  0.65100321426E+02  0.81238336070E+02  0.22600215742E+03  0.17199601830E+03 0.  0.
        -24    2    3    3    0    0 -0.45845893267E+02  0.30694114414E+02 -0.24321085272E+02  0.10093532959E+03  0.80947211081E+02 0.  0.
          6    2    1    2  501    0  0.10323093406E+03 -0.65100321426E+02  0.60710743262E+02  0.21992710225E+03  0.17259043530E+03 0.  0.
         24    2    5    5    0    0  0.12840415925E+03 -0.48229552383E+02  0.85136214285E+02  0.18072241185E+03  0.81232366252E+02 0.  0.
          5    1    5    5  501    0 -0.25173225186E+02 -0.16870769044E+02 -0.24425471024E+02  0.39204690397E+02  0.47000000000E+01 0. -1.
        -11    1    6    6    0    0 -0.28876581802E+01 -0.19603743816E+01  0.31259800962E+02  0.31454042565E+02  0.00000000000E+00 0.  1.
         12    1    6    6    0    0  0.13129181743E+03 -0.46269178001E+02  0.53876413323E+02  0.14926836929E+03  0.00000000000E+00 0. -1.
         -5    1    3    3    0  503 -0.57385040796E+02  0.34406207012E+02  0.10555942134E+03  0.12506682782E+03  0.47000000000E+01 0.  1.
         11    1    4    4    0    0 -0.68468620870E+02  0.31115321621E+02 -0.20851431784E+02  0.78044202161E+02  0.00000000000E+00 0. -1.
        -12    1    4    4    0    0  0.22622727603E+02 -0.42120720721E+00 -0.34696534884E+01  0.22891127431E+02  0.00000000000E+00 0.  1.
</event>
<event>
12    1  0.8691829E-002  0.2137953E+03  0.7818608E-02  0.1139215E+00
         21   -1    0    0  503  502  0.00000000000E+00  0.00000000000E+00  0.11174003731E+03  0.11174003731E+03  0.00000000000E+00 0.  1.
         21   -1    0    0  501  503 -0.00000000000E+00 -0.00000000000E+00 -0.40908209732E+03  0.40908209732E+03  0.00000000000E+00 0. -1.
          6    2    1    2  501    0 -0.94051959302E+02 -0.79892697470E+02 -0.18150605598E+03  0.28045124007E+03  0.17458475175E+03 0.  0.
         24    2    3    3    0    0 -0.37794647940E+02  0.19857505729E+02 -0.46659918299E+02  0.10347508641E+03  0.81897433320E+02 0.  0.
         -6    2    1    2    0  502  0.94051959302E+02  0.79892697470E+02 -0.11583600404E+03  0.24037089455E+03  0.17067973799E+03 0.  0.
        -24    2    5    5    0    0  0.51179901772E+01  0.78621273222E+02 -0.10041405867E+03  0.14997845138E+03  0.78759471004E+02 0.  0.
          5    1    3    3  501    0 -0.56257311362E+02 -0.99750203199E+02 -0.13484613768E+03  0.17697615367E+03  0.47000000000E+01 0. -1.
        -13    1    4    4    0    0 -0.58476926110E+00 -0.29762444869E+02 -0.98659359326E+01  0.31360512934E+02  0.00000000000E+00 0.  1.
         14    1    4    4    0    0 -0.37209878679E+02  0.49619950598E+02 -0.36793982367E+02  0.72114573472E+02  0.00000000000E+00 0. -1.
         -5    1    5    5    0  502  0.88933969125E+02  0.12714242479E+01 -0.15421945367E+02  0.90392443173E+02  0.47000000000E+01 0.  1.
         13    1    6    6    0    0  0.15622194793E+02 -0.11557115367E+02 -0.26756615591E+02  0.33068661352E+02  0.00000000000E+00 0. -1.
        -14    1    6    6    0    0 -0.10504204616E+02  0.90178388589E+02 -0.73657443079E+02  0.11690979003E+03  0.00000000000E+00 0.  1.
</event>
<event>
12    1  0.8691829E-002  0.2308297E+03  0.7818608E-02  0.1128557E+00
         21   -1    0    0  501  502  0.00000000000E+00  0.00000000000E+00  0.94737593354E+03  0.94737593354E+03  0.00000000000E+00 0.  1.
         21   -1    0    0  502  503 -0.00000000000E+00 -0.00000000000E+00 -0.54042901688E+02  0.54042901688E+02  0.00000000000E+00 0.  1.
         -6    2    1    2    0  503 -0.94817216660E+02  0.91171911039E+02  0.38823886505E+03  0.45167663175E+03  0.18968326598E+03 0.  0.
        -24    2    3    3    0    0  0.25177218493E+02  0.12274317861E+02  0.13103454980E+03  0.15705883789E+03  0.81932131102E+02 0.  0.
          6    2    1    2  501    0  0.94817216660E+02 -0.91171911039E+02  0.50509416680E+03  0.54974220348E+03  0.17260866436E+03 0.  0.
         24    2    5    5    0    0  0.46130079312E+02 -0.52253776512E+02  0.46146475150E+03  0.47351442365E+03  0.80048430048E+02 0.  0.
          5    1    5    5  501    0  0.48687137348E+02 -0.38918134527E+02  0.43629415307E+02  0.76227779833E+02  0.47000000000E+01 0. -1.
        -13    1    6    6    0    0  0.42849171820E+02 -0.60719488186E+01  0.35215237005E+03  0.35480165137E+03  0.00000000000E+00 0.  1.
         14    1    6    6    0    0  0.32809074918E+01 -0.46181827694E+02  0.10931238145E+03  0.11871277228E+03  0.00000000000E+00 0. -1.
         -5    1    3    3    0  503 -0.11999443515E+03  0.78897593179E+02  0.25720431525E+03  0.29461779386E+03  0.47000000000E+01 0.  1.
         11    1    4    4    0    0  0.24114914275E+02  0.42685880742E+02  0.47950299718E+02  0.68577290325E+02  0.00000000000E+00 0. -1.
        -12    1    4    4    0    0  0.10623042184E+01 -0.30411562882E+02  0.83084250086E+02  0.88481547565E+02  0.00000000000E+00 0.  1.
</event>
<event>
12    1  0.8691829E-002  0.1887980E+03  0.7818608E-02  0.1162212E+00
         21   -1    0    0  503  502  0.00000000000E+00  0.00000000000E+00  0.89641625339E+02  0.89641625339E+02  0.00000000000E+00 0.  1.
         21   -1    0    0  501  503 -0.00000000000E+00 -0.00000000000E+00 -0.10858085867E+04  0.10858085867E+04  0.00000000000E+00 0.  1.
          6    2    1    2  501    0  0.20324813887E+02 -0.73857156299E+02 -0.96851168991E+03  0.98463744384E+03  0.16008755331E+03 0.  0.
         24    2    3    3    0    0 -0.44856423122E+02 -0.62131129062E+02 -0.63761269546E+03  0.64714325440E+03  0.79825224206E+02 0.  0.
         -6    2    1    2    0  502 -0.20324813887E+02  0.73857156299E+02 -0.27655271448E+02  0.19081276820E+03  0.17255932566E+03 0.  0.
        -24    2    5    5    0    0 -0.47298742968E+02  0.43729915109E+02  0.48292128852E+02  0.10464234912E+03  0.66846203768E+02 0.  0.
          5    1    3    3  501    0  0.65181237008E+02 -0.11726027238E+02 -0.33089899445E+03  0.33749418943E+03  0.47000000000E+01 0. -1.
        -13    1    4    4    0    0 -0.27772201376E+02 -0.38742337725E+02 -0.12606567920E+03  0.13477692448E+03  0.00000000000E+00 0.  1.
         14    1    4    4    0    0 -0.17084221746E+02 -0.23388791337E+02 -0.51154701626E+03  0.51236632992E+03  0.00000000000E+00 0. -1.
         -5    1    5    5    0  502  0.26973929081E+02  0.30127241190E+02 -0.75947400300E+02  0.86170419078E+02  0.47000000000E+01 0.  1.
         13    1    6    6    0    0 -0.59728830838E+01 -0.96648856409E+01 -0.10231856314E+02  0.15289742654E+02  0.00000000000E+00 0. -1.
        -14    1    6    6    0    0 -0.41325859884E+02  0.53394800750E+02  0.58523985166E+02  0.89352606465E+02  0.00000000000E+00 0.  1.
</event>
<event>
12    1  0.8691829E-002  0.1936389E+03  0.7818608E-02  0.1157331E+00
         21   -1    0    0  503  502  0.00000000000E+00  0.00000000000E+00  0.10303879166E+04  0.10303879166E+04  0.00000000000E+00 0.  1.
         21   -1    0    0  501  503 -0.00000000000E+00 -0.00000000000E+00 -0.11331802296E+03  0.11331802296E+03  0.00000000000E+00 0.  1.
          6    2    1    2  501    0 -0.63611027649E+02  0.77474359823E+01 -0.21341996361E+02  0.18552385656E+03  0.17279246205E+03 0.  0.
         24    2    3    3    0    0 -0.56242727449E+01  0.41142904118E+02  0.36836569079E+02  0.96728831290E+02  0.79215926290E+02 0.  0.
         -6    2    1    2    0  502  0.63611027649E+02 -0.77474359823E+01  0.93841189004E+03  0.95818208303E+03  0.18272833186E+03 0.  0.
        -24    2    5    5    0    0  0.23416971076E+02  0.34058667865E+02  0.20429584294E+03  0.22176387772E+03  0.75723699241E+02 0.  0.
          5    1    3    3  501    0 -0.57986754904E+02 -0.33395468136E+02 -0.58178565441E+02  0.88795025272E+02  0.47000000000E+01 0. -1.
        -11    1    4    4    0    0 -0.42259390067E+00  0.12867301375E+02 -0.25231114387E+02  0.28325874452E+02  0.00000000000E+00 0.  1.
         12    1    4    4    0    0 -0.52016788442E+01  0.28275602743E+02  0.62067683466E+02  0.68402956837E+02  0.00000000000E+00 0. -1.
         -5    1    5    5    0  502  0.40194056573E+02 -0.41806103847E+02  0.73411604710E+03  0.73641820531E+03  0.47000000000E+01 0.  1.
         11    1    6    6    0    0  0.46723399654E+02  0.32304438146E+01  0.12663820933E+03  0.13502128686E+03  0.00000000000E+00 0. -1.
        -12    1    6    6    0    0 -0.23306428578E+02  0.30828224050E+02  0.77657633608E+02  0.86742590858E+02  0.00000000000E+00 0.  1.
</event>
<event>
12    1  0.8691829E-002  0.5120754E+03  0.7818608E-02  0.1011150E+00
         21   -1    0    0  503  502  0.00000000000E+00  0.00000000000E+00  0.28233061787E+03  0.28233061787E+03  0.00000000000E+00 0. -1.
         21   -1    0    0  501  503 -0.00000000000E+00 -0.00000000000E+00 -0.95757856992E+03  0.95757856992E+03  0.00000000000E+00 0.  1.
          6    2    1    2  501    0  0.47487606832E+03 -0.29195970886E+02 -0.20971268167E+03  0.55335398655E+03  0.18937143552E+03 0.  0.
         24    2    3    3    0    0  0.83411879320E+02 -0.32602367170E+02 -0.38013651566E+02  0.12585139972E+03  0.79831579894E+02 0.  0.
         -6    2    1    2    0  502 -0.47487606832E+03  0.29195970886E+02 -0.46553527038E+03  0.68655520124E+03  0.16815252422E+03 0.  0.
        -24    2    5    5    0    0 -0.32538900607E+03 -0.24754605425E+00 -0.22835911116E+03  0.40461917485E+03  0.75436903834E+02 0.  0.
          5    1    3    3  501    0  0.39146418900E+03  0.34063962848E+01 -0.17169903011E+03  0.42750258683E+03  0.47000000000E+01 0. -1.
        -13    1    4    4    0    0  0.50710352313E+02 -0.41911800695E+02  0.10487747368E+02  0.66619304365E+02  0.00000000000E+00 0.  1.
         14    1    4    4    0    0  0.32701527008E+02  0.93094335248E+01 -0.48501398934E+02  0.59232095352E+02  0.00000000000E+00 0. -1.
         -5    1    5    5    0  502 -0.14948706225E+03  0.29443516940E+02 -0.23717615923E+03  0.28193602639E+03  0.47000000000E+01 0.  1.
         11    1    6    6    0    0 -0.35188583588E+02  0.24194806661E+02 -0.26157501329E+02  0.50078338231E+02  0.00000000000E+00 0. -1.
        -12    1    6    6    0    0 -0.29020042248E+03 -0.24442352715E+02 -0.20220160983E+03  0.35454083662E+03  0.00000000000E+00 0.  1.
</event>
<event>
12    1  0.8691829E-002  0.1966860E+03  0.7818608E-02  0.1152614E+00
         21   -1    0    0  503  502  0.00000000000E+00  0.00000000000E+00  0.51228933602E+03  0.51228933602E+03  0.00000000000E+00 0. -1.
         21   -1    0    0  501  503 -0.00000000000E+00 -0.00000000000E+00 -0.42954381003E+03  0.42954381003E+03  0.00000000000E+00 0.  1.
          6    2    1    2  501    0  0.92855230775E+02 -0.15429151642E+02 -0.38619794631E+03  0.43339846158E+03  0.17269979781E+03 0.  0.
         24    2    3    3    0    0 -0.25328491044E+01  0.34413914914E+02 -0.18336523640E+03  0.20373258411E+03  0.81813342693E+02 0.  0.
         -6    2    1    2    0  502 -0.92855230775E+02  0.15429151642E+02  0.46894347231E+03  0.50843468447E+03  0.17244621060E+03 0.  0.
        -24    2    5    5    0    0 -0.93677799325E+01  0.17290657160E+02  0.10856359652E+03  0.13847608608E+03  0.83683031739E+02 0.  0.
          5    1    3    3  501    0  0.95388079880E+02 -0.49843066556E+02 -0.20283270991E+03  0.22966587748E+03  0.47000000000E+01 0. -1.
        -13    1    4    4    0    0  0.96385985622E+01  0.10749214961E+02 -0.17534578372E+03  0.17593917152E+03  0.00000000000E+00 0.  1.
         14    1    4    4    0    0 -0.12171447667E+02  0.23664699953E+02 -0.80194526761E+01  0.27793412590E+02  0.00000000000E+00 0. -1.
         -5    1    5    5    0  502 -0.83487450843E+02 -0.18615055178E+01  0.36037987578E+03  0.36995859839E+03  0.47000000000E+01 0.  1.
         11    1    6    6    0    0 -0.43859831388E+02 -0.15028317627E+01  0.74589582780E+02  0.86542181461E+02  0.00000000000E+00 0. -1.
        -12    1    6    6    0    0  0.34492051456E+02  0.18793488922E+02  0.33974013742E+02  0.51933904622E+02  0.00000000000E+00 0.  1.
</event>
<event>
12    1  0.8691829E-002  0.2251694E+03  0.7818608E-02  0.1130126E+00
         21   -1    0    0  501  502  0.00000000000E+00  0.00000000000E+00  0.20633772658E+04  0.20633772658E+04  0.00000000000E+00 0. -1.
         21   -1    0    0  502  503 -0.00000000000E+00 -0.00000000000E+00 -0.53092946367E+02  0.53092946367E+02  0.00000000000E+00 0.  1.
         -6    2    1    2    0  503 -0.45878946680E+02 -0.13751062773E+03  0.22943085455E+03  0.32146503057E+03  0.17229973409E+03 0.  0.
        -24    2    3    3    0    0 -0.64589731874E+02 -0.13507425120E+03  0.24387638111E+03  0.29724122718E+03  0.80372701021E+02 0.  0.
          6    2    1    2  501    0  0.45878946680E+02  0.13751062773E+03  0.17808534649E+04  0.17950051816E+04  0.17201885975E+03 0.  0.
         24    2    5    5    0    0 -0.25741992563E+02  0.67366372350E+02  0.57702956948E+03  0.58700524922E+03  0.80069721182E+02 0.  0.
          5    1    5    5  501    0  0.71620939243E+02  0.70144255385E+02  0.12038238954E+04  0.12079999324E+04  0.47000000000E+01 0. -1.
        -11    1    6    6    0    0  0.12171783592E+01 -0.12517274982E+02  0.21170742442E+03  0.21208063856E+03  0.00000000000E+00 0.  1.
         12    1    6    6    0    0 -0.26959170922E+02  0.79883647332E+02  0.36532214506E+03  0.37492461066E+03  0.00000000000E+00 0. -1.
         -5    1    3    3    0  503  0.18710785195E+02 -0.24363765349E+01 -0.14445526557E+02  0.24223803391E+02  0.47000000000E+01 0.  1.
         13    1    4    4    0    0 -0.38612527706E+01  0.82597361377E+01  0.38335034090E+02  0.39404407783E+02  0.00000000000E+00 0. -1.
        -14    1    4    4    0    0 -0.60728479104E+02 -0.14333398734E+03  0.20554134702E+03  0.25783681939E+03  0.00000000000E+00 0.  1.
</event>
<event>
12    1  0.8691829E-002  0.2136556E+03  0.7818608E-02  0.1138854E+00
         21   -1    0    0  501  502  0.00000000000E+00  0.00000000000E+00  0.26249180733E+04  0.26249180733E+04  0.00000000000E+00 0. -1.
         21   -1    0    0  502  503 -0.00000000000E+00 -0.00000000000E+00 -0.30055551877E+02  0.30055551877E+02  0.00000000000E+00 0. -1.
         -6    2    1    2    0  503 -0.11999407454E+03  0.37696556998E+02  0.43491910215E+03  0.48456508358E+03  0.17271099117E+03 0.  0.
        -24    2    3    3    0    0 -0.10148990002E+02  0.20899061655E+02  0.91455415545E+02  0.12354224155E+03  0.79742207384E+02 0.  0.
          6    2    1    2  501    0  0.11999407454E+03 -0.37696556998E+02  0.21599434193E+04  0.21704085416E+04  0.17174997720E+03 0.  0.
         24    2    5    5    0    0  0.15296734478E+03 -0.34612373170E+02  0.19592933852E+04  0.19669895776E+04  0.74969354884E+02 0.  0.
          5    1    5    5  501    0 -0.32973270242E+02 -0.30841838281E+01  0.20065003402E+03  0.20341896395E+03  0.47000000000E+01 0. -1.
        -11    1    6    6    0    0 -0.83878472179E+01 -0.49526463390E+01  0.11885028474E+03  0.11924879400E+03  0.00000000000E+00 0.  1.
         12    1    6    6    0    0  0.16135519200E+03 -0.29659726831E+02  0.18404431005E+04  0.18477407836E+04  0.00000000000E+00 0. -1.
         -5    1    3    3    0  503 -0.10984508454E+03  0.16797495342E+02  0.34346368661E+03  0.36102284203E+03  0.47000000000E+01 0.  1.
         13    1    4    4    0    0 -0.32427922994E+02  0.22136839524E+02  0.93228016697E+02  0.10115865238E+03  0.00000000000E+00 0. -1.
        -14    1    4    4    0    0  0.22278932992E+02 -0.12377778680E+01 -0.17726011519E+01  0.22383589171E+02  0.00000000000E+00 0.  1.
</event>
<event>
12    1  0.8691829E-002  0.2681827E+03  0.7818608E-02  0.1102444E+00
         21   -1    0    0  501  502  0.00000000000E+00  0.00000000000E+00  0.11796063470E+04  0.11796063470E+04  0.00000000000E+00 0.  1.
         21   -1    0    0  502  503 -0.00000000000E+00 -0.00000000000E+00 -0.66162457189E+02  0.66162457189E+02  0.00000000000E+00 0.  1.
         -6    2    1    2    0  503  0.20299833565E+03 -0.31079845597E+02  0.73513987650E+03  0.78252960827E+03  0.17247512491E+03 0.  0.
        -24    2    3    3    0    0  0.71841666707E+02  0.17170956263E+01  0.51647984398E+03  0.52540704802E+03  0.64319230302E+02 0.  0.
          6    2    1    2  501    0 -0.20299833565E+03  0.31079845597E+02  0.37830401327E+03  0.46323919588E+03  0.17117927756E+03 0.  0.
         24    2    5    5    0    0 -0.17538808506E+03 -0.26363958744E+02  0.32682242483E+03  0.38117482759E+03  0.83817140927E+02 0.  0.
          5    1    5    5  501    0 -0.27610250591E+02  0.57443804341E+02  0.51481588437E+02  0.82064368290E+02  0.47000000000E+01 0. -1.
        -11    1    6    6    0    0 -0.12816820501E+03  0.30156353353E+01  0.28190312327E+03  0.30968621819E+03  0.00000000000E+00 0.  1.
         12    1    6    6    0    0 -0.47219880051E+02 -0.29379594080E+02  0.44919301568E+02  0.71488609397E+02  0.00000000000E+00 0. -1.
         -5    1    3    3    0  503  0.13115666895E+03 -0.32796941223E+02  0.21866003252E+03  0.25712256024E+03  0.47000000000E+01 0.  1.
         11    1    4    4    0    0 -0.35811206877E+01  0.16328574688E+02  0.15213681841E+03  0.15305246909E+03  0.00000000000E+00 0. -1.
        -12    1    4    4    0    0  0.75422787394E+02 -0.14611479061E+02  0.36434302556E+03  0.37235457894E+03  0.00000000000E+00 0.  1.
</event>
<event>
12    1  0.8691829E-002  0.1765073E+03  0.7818608E-02  0.1171810E+00
         21   -1    0    0  503  502  0.00000000000E+00  0.00000000000E+00  0.38766441966E+03  0.38766441966E+03  0.00000000000E+00 0.  1.
         21   -1    0    0  501  503 -0.00000000000E+00 -0.00000000000E+00 -0.79944801265E+02  0.79944801265E+02  0.00000000000E+00 0.  1.
          6    2    1    2  501    0  0.15549017008E+02 -0.23234875603E+02  0.13397483558E+03  0.22159440412E+03  0.17427906356E+03 0.  0.
         24    2    3    3    0    0  0.74157205089E+02  0.78166999897E+01  0.71208372695E+02  0.13015678101E+03  0.79434019383E+02 0.  0.
         -6    2    1    2    0  502 -0.15549017008E+02  0.23234875603E+02  0.17374478281E+03  0.24601481680E+03  0.17191395859E+03 0.  0.
        -24    2    5    5    0    0 -0.24240307437E+02 -0.44808072805E+02  0.14241047957E+03  0.17045484118E+03  0.78605039883E+02 0.  0.
          5    1    3    3  501    0 -0.58608188081E+02 -0.31051575593E+02  0.62766462884E+02  0.91437623109E+02  0.47000000000E+01 0. -1.
        -11    1    4    4    0    0 -0.12153422585E+02 -0.75955192217E+01 -0.37408553141E+01  0.14811873320E+02  0.00000000000E+00 0.  1.
         12    1    4    4    0    0  0.86310627674E+02  0.15412219211E+02  0.74949228009E+02  0.11534490769E+03  0.00000000000E+00 0. -1.
         -5    1    5    5    0  502  0.86912904289E+01  0.68042948407E+02  0.31334303239E+02  0.75559975627E+02  0.47000000000E+01 0.  1.
         11    1    6    6    0    0  0.74738814370E+01 -0.33519187939E+02  0.13018764080E+03  0.13464106610E+03  0.00000000000E+00 0. -1.
        -12    1    6    6    0    0 -0.31714188874E+02 -0.11288884866E+02  0.12222838773E+02  0.35813775075E+02  0.00000000000E+00 0.  1.
</event>
<event>
12    1  0.8691829E-002  0.1762647E+03  0.7818608E-02  0.1171731E+00
         21   -1    0    0  503  502  0.00000000000E+00  0.00000000000E+00  0.86106487954E+03  0.86106487954E+03  0.00000000000E+00 0. -1.
         21   -1    0    0  501  503 -0.00000000000E+00 -0.00000000000E+00 -0.33128566572E+03  0.33128566572E+03  0.00000000000E+00 0. -1.
          6    2    1    2  501    0  0.32438399485E+02  0.16308961555E+02 -0.29800250002E+03  0.34622932321E+03  0.17248484643E+03 0.  0.
         24    2    3    3    0    0 -0.70169994161E+01  0.79266843503E+01 -0.49391193497E+02  0.94323263730E+02  0.79657501091E+02 0.  0.
         -6    2    1    2    0  502 -0.32438399485E+02 -0.16308961555E+02  0.82778171383E+03  0.84612122205E+03  0.17140689792E+03 0.  0.
        -24    2    5    5    0    0 -0.15922811918E+02 -0.73132130450E+01  0.82168368148E+03  0.82579970334E+03  0.80461534886E+02 0.  0.
          5    1    3    3  501    0  0.39455398901E+02  0.83822772052E+01 -0.24861130652E+03  0.25190605948E+03  0.47000000000E+01 0. -1.
        -11    1    4    4    0    0  0.50142728412E+01 -0.26026938446E+02  0.69948359164E+01  0.27412993023E+02  0.00000000000E+00 0.  1.
         12    1    4    4    0    0 -0.12031272257E+02  0.33953622796E+02 -0.56386029414E+02  0.66910270707E+02  0.00000000000E+00 0. -1.
         -5    1    5    5    0  502 -0.16515587567E+02 -0.89957485105E+01  0.60980323478E+01  0.20321518705E+02  0.47000000000E+01 0.  1.
         13    1    6    6    0    0  0.91195668361E+01  0.23387378245E+02  0.60521147581E+03  0.60573184365E+03  0.00000000000E+00 0. -1.
        -14    1    6    6    0    0 -0.25042378754E+02 -0.30700591290E+02  0.21647220568E+03  0.22006785969E+03  0.00000000000E+00 0.  1.
</event>
<event>
12    1  0.8691829E-002  0.1939647E+03  0.7818608E-02  0.1155909E+00
         21   -1    0    0  503  502  0.00000000000E+00  0.00000000000E+00  0.74288179199E+02  0.74288179199E+02  0.00000000000E+00 0.  1.
         21   -1    0    0  501  503 -0.00000000000E+00 -0.00000000000E+00 -0.58509523323E+03  0.58509523323E+03  0.00000000000E+00 0.  1.
          6    2    1    2  501    0 -0.17032055572E+02 -0.86478096916E+02 -0.38227072941E+03  0.42669502544E+03  0.16783677192E+03 0.  0.
         24    2    3    3    0    0 -0.13128933472E+02 -0.70110869583E+02 -0.39211457545E+03  0.40664230000E+03  0.80723088016E+02 0.  0.
         -6    2    1    2    0  502  0.17032055572E+02  0.86478096916E+02 -0.12853632462E+03  0.23268838698E+03  0.17278236753E+03 0.  0.
        -24    2    5    5    0    0 -0.50806544578E+02  0.85501806192E+02 -0.76777605243E+02  0.14722445398E+03  0.76735750130E+02 0.  0.
          5    1    3    3  501    0 -0.39031221002E+01 -0.16367227333E+02  0.98438460408E+01  0.20052725440E+02  0.47000000000E+01 0. -1.
        -11    1    4    4    0    0 -0.99169645421E+01 -0.37909963465E+02 -0.35600055630E+03  0.35815067724E+03  0.00000000000E+00 0.  1.
         12    1    4    4    0    0 -0.32119689302E+01 -0.32200906118E+02 -0.36114019149E+02  0.48491622765E+02  0.00000000000E+00 0. -1.
         -5    1    5    5    0  502  0.67838600151E+02  0.97629072420E+00 -0.51758719373E+02  0.85463933008E+02  0.47000000000E+01 0.  1.
         11    1    6    6    0    0 -0.16335036824E+01 -0.10625741955E+02 -0.25538499468E+02  0.27709018053E+02  0.00000000000E+00 0. -1.
        -12    1    6    6    0    0 -0.49173040896E+02  0.96127548146E+02 -0.51239105775E+02  0.11951543592E+03  0.00000000000E+00 0.  1.
</event>
<event>
12    1  0.8691829E-002  0.2139982E+03  0.7818608E-02  0.1138732E+00
         21   -1    0    0  501  502  0.00000000000E+00  0.00000000000E+00  0.16639242527E+04  0.16639242527E+04  0.00000000000E+00 0.  1.
         21   -1    0    0  502  503 -0.00000000000E+00 -0.00000000000E+00 -0.28115877278E+02  0.28115877278E+02  0.00000000000E+00 0.  1.
         -6    2    1    2    0  503 -0.12728646381E+03 -0.10377419568E+02  0.95668839249E+03  0.98000137291E+03  0.16982483880E+03 0.  0.
        -24    2    3    3    0    0  0.75036020078E+00 -0.15585461209E+02  0.29613873251E+03  0.30712062917E+03  0.79884055516E+02 0.  0.
          6    2    1    2  501    0  0.12728646381E+03  0.10377419568E+02  0.67911998297E+03  0.71203875711E+03  0.17171402286E+03 0.  0.
         24    2    5    5    0    0  0.11047552859E+03 -0.15706757565E+02  0.66103773539E+03  0.67581653303E+03  0.85472533941E+02 0.  0.
          5    1    5    5  501    0  0.16810935218E+02  0.26084177134E+02  0.18082247586E+02  0.36222224081E+02  0.47000000000E+01 0. -1.
        -11    1    6    6    0    0  0.11688382170E+03  0.66302174118E+01  0.53576665296E+03  0.54840832778E+03  0.00000000000E+00 0.  1.
         12    1    6    6    0    0 -0.64082931037E+01 -0.22336974977E+02  0.12527108243E+03  0.12740820525E+03  0.00000000000E+00 0. -1.
         -5    1    3    3    0  503 -0.12803682401E+03  0.52080416406E+01  0.66054965998E+03  0.67288074374E+03  0.47000000000E+01 0.  1.
         13    1    4    4    0    0 -0.15519526850E+02  0.83676690242E+01  0.26097097137E+03  0.26156590278E+03  0.00000000000E+00 0. -1.
        -14    1    4    4    0    0  0.16269887051E+02 -0.23953130233E+02  0.35167761135E+02  0.45554726384E+02  0.00000000000E+00 0.  1.
</event>
<event>
12    1  0.8691829E-002  0.2731901E+03  0.7818608E-02  0.1099549E+00
         21   -1    0    0  503  502  0.00000000000E+00  0.00000000000E+00  0.11997976295E+03  0.11997976295E+03  0.00000000000E+00 0.  1.
         21   -1    0    0  501  503 -0.00000000000E+00 -0.00000000000E+00 -0.62375964038E+03  0.62375964038E+03  0.00000000000E+00 0. -1.
          6    2    1    2  501    0  0.89915542859E+02  0.19172839329E+03 -0.22569007785E+03  0.35391024262E+03  0.17167372237E+03 0.  0.
         24    2    3    3    0    0  0.52862434856E+02  0.20263534009E+03 -0.15276724790E+03  0.27125600239E+03  0.79915384807E+02 0.  0.
         -6    2    1    2    0  502 -0.89915542859E+02 -0.19172839329E+03 -0.27808979958E+03  0.38982916071E+03  0.17259274686E+03 0.  0.
        -24    2    5    5    0    0 -0.87225809991E+01 -0.24723467168E+02 -0.11746325183E+03  0.14425652330E+03  0.79529841792E+02 0.  0.
          5    1    3    3  501    0  0.37053108004E+02 -0.10906946801E+02 -0.72922829948E+02  0.82654240235E+02  0.47000000000E+01 0. -1.
        -11    1    4    4    0    0  0.36841786961E+02  0.33681643499E+02 -0.13483782831E+02  0.51706699515E+02  0.00000000000E+00 0.  1.
         12    1    4    4    0    0  0.16020647894E+02  0.16895369659E+03 -0.13928346507E+03  0.21954930287E+03  0.00000000000E+00 0. -1.
         -5    1    5    5    0  502 -0.81192961860E+02 -0.16700492612E+03 -0.16062654774E+03  0.24557263741E+03  0.47000000000E+01 0.  1.
         11    1    6    6    0    0  0.17897927498E+02 -0.43274723849E+02 -0.91168996146E+02  0.10249304070E+03  0.00000000000E+00 0. -1.
        -12    1    6    6    0    0 -0.26620508497E+02  0.18551256681E+02 -0.26294255688E+02  0.41763482605E+02  0.00000000000E+00 0.  1.
</event>
<event>
12    1  0.8691829E-002  0.1904695E+03  0.7818608E-02  0.1163370E+00
         21   -1    0    0  503  502  0.00000000000E+00  0.00000000000E+00  0.22372078464E+04  0.22372078464E+04  0.00000000000E+00 0.  1.
         21   -1    0    0  501  503 -0.00000000000E+00 -0.00000000000E+00 -0.15149574636E+02  0.15149574636E+02  0.00000000000E+00 0.  1.
          6    2    1    2  501    0  0.64641416921E+02  0.26660043379E+02  0.79251287314E+03  0.81017897398E+03  0.15304915907E+03 0.  0.
         24    2    3    3    0    0  0.23278291829E+02 -0.55355631917E+01  0.23249239503E+03  0.24769120425E+03  0.82010350461E+02 0.  0.
         -6    2    1    2    0  502 -0.64641416921E+02 -0.26660043379E+02  0.14295453986E+04  0.14421784471E+04  0.17717041439E+03 0.  0.
        -24    2    5    5    0    0  0.10904203784E+01  0.11105303606E+02  0.31870566352E+03  0.32874506200E+03  0.79846722203E+02 0.  0.
          5    1    3    3  501    0  0.41363125092E+02  0.32195606571E+02  0.56002047810E+03  0.56248776973E+03  0.47000000000E+01 0. -1.
        -11    1    4    4    0    0 -0.27265631229E+02  0.12853652768E+02  0.62431627341E+02  0.69327765926E+02  0.00000000000E+00 0.  1.
         12    1    4    4    0    0  0.50543923058E+02 -0.18389215960E+02  0.17006076769E+03  0.17836343832E+03  0.00000000000E+00 0. -1.
         -5    1    5    5    0  502 -0.65731837300E+02 -0.37765346985E+02  0.11108397351E+04  0.11134333851E+04  0.47000000000E+01 0.  1.
         11    1    6    6    0    0 -0.31023290197E+02 -0.18396381893E+02  0.11961136286E+03  0.12493097905E+03  0.00000000000E+00 0. -1.
        -12    1    6    6    0    0  0.32113710575E+02  0.29501685499E+02  0.19909430066E+03  0.20381408295E+03  0.00000000000E+00 0.  1.
</event>
<event>
12    1  0.8691829E-002  0.1832156E+03  0.7818608E-02  0.1164784E+00
         21   -1    0    0  503  502  0.00000000000E+00  0.00000000000E+00  0.54373059353E+02  0.54373059353E+02  0.00000000000E+00 0. -1.
         21   -1    0    0  501  503 -0.00000000000E+00 -0.00000000000E+00 -0.62399633936E+03  0.62399633936E+03  0.00000000000E+00 0. -1.
          6    2    1    2  501    0 -0.36764198618E+02 -0.52384607412E+02 -0.24794667697E+03  0.30829453214E+03  0.17167472305E+03 0.  0.
         24    2    3    3    0    0 -0.12541824225E+02 -0.74460834910E+02 -0.77901856424E+02  0.13505650445E+03  0.80435358337E+02 0.  0.
         -6    2    1    2    0  502  0.36764198618E+02  0.52384607412E+02 -0.32167660304E+03  0.37007486658E+03  0.17141708356E+03 0.  0.
        -24    2    5    5    0    0  0.22999575354E+02  0.89642644351E+02 -0.30142293118E+03  0.32524265278E+03  0.79763497875E+02 0.  0.
          5    1    3    3  501    0 -0.24222374393E+02  0.22076227498E+02 -0.17004482055E+03  0.17323802769E+03  0.47000000000E+01 0. -1.
        -11    1    4    4    0    0 -0.49223980734E+01  0.17105872230E+02 -0.18336160893E+02  0.25554953802E+02  0.00000000000E+00 0.  1.
         12    1    4    4    0    0 -0.76194261516E+01 -0.91566707139E+02 -0.59565695531E+02  0.10950155065E+03  0.00000000000E+00 0. -1.
         -5    1    5    5    0  502  0.13764623264E+02 -0.37258036939E+02 -0.20253671860E+02  0.44832213797E+02  0.47000000000E+01 0.  1.
         13    1    6    6    0    0 -0.23970142641E+02  0.53824798423E+02 -0.10832858677E+03  0.12331568990E+03  0.00000000000E+00 0. -1.
        -14    1    6    6    0    0  0.46969717995E+02  0.35817845928E+02 -0.19309434440E+03  0.20192696288E+03  0.00000000000E+00 0.  1.
</event>
<event>
12    1  0.8691829E-002  0.2054501E+03  0.7818608E-02  0.1146305E+00
         21   -1    0    0  501  502  0.00000000000E+00  0.00000000000E+00  0.42110829662E+03  0.42110829662E+03  0.00000000000E+00 0.  1.
         21   -1    0    0  502  503 -0.00000000000E+00 -0.00000000000E+00 -0.17767038343E+03  0.17767038343E+03  0.00000000000E+00 0.  1.
         -6    2    1    2    0  503 -0.65293634842E+02  0.93933642006E+02 -0.78278342678E+02  0.21985736152E+03  0.17065454179E+03 0.  0.
        -24    2    3    3    0    0 -0.77799631012E+02  0.12554146262E+03 -0.79605187596E+02  0.18551635423E+03  0.79157377244E+02 0.  0.
          6    2    1    2  501    0  0.65293634842E+02 -0.93933642006E+02  0.32171625587E+03  0.37892131853E+03  0.16429616092E+03 0.  0.
         24    2    5    5    0    0  0.56034944475E+02 -0.12583406484E+03  0.21439432911E+03  0.26647823832E+03  0.77920448305E+02 0.  0.
          5    1    5    5  501    0  0.92586903672E+01  0.31900422835E+02  0.10732192675E+03  0.11244308021E+03  0.47000000000E+01 0. -1.
        -13    1    6    6    0    0  0.18730408679E+01 -0.87300691687E+02  0.15208077059E+03  0.17536670104E+03  0.00000000000E+00 0.  1.
         14    1    6    6    0    0  0.54161903607E+02 -0.38533373155E+02  0.62313558527E+02  0.91111537279E+02  0.00000000000E+00 0. -1.
         -5    1    3    3    0  503  0.12505996170E+02 -0.31607820618E+02  0.13268449173E+01  0.34341007293E+02  0.47000000000E+01 0.  1.
         11    1    4    4    0    0 -0.17283250373E+02  0.26880760295E+02  0.15681149325E+02  0.35597534489E+02  0.00000000000E+00 0. -1.
        -12    1    4    4    0    0 -0.60516380638E+02  0.98660702329E+02 -0.95286336921E+02  0.14991881974E+03  0.00000000000E+00 0.  1.
</event>
<event>
12    1  0.8691829E-002  0.1781855E+03  0.7818608E-02  0.1171528E+00
         21   -1    0    0  503  502  0.00000000000E+00  0.00000000000E+00  0.13252371148E+03  0.13252371148E+03  0.00000000000E+00 0.  1.
         21   -1    0    0  501  503 -0.00000000000E+00 -0.00000000000E+00 -0.24111680660E+03  0.24111680660E+03  0.00000000000E+00 0.  1.
          6    2    1    2  501    0  0.16074880572E+02 -0.45284703453E+02 -0.96949076829E+02  0.20285262522E+03  0.17158367611E+03 0.  0.
         24    2    3    3    0    0  0.49361134735E+02  0.27212303811E+02 -0.63605397938E+02  0.11626347058E+03  0.79337991179E+02 0.  0.
         -6    2    1    2    0  502 -0.16074880572E+02  0.45284703453E+02 -0.11644018283E+02  0.17078789286E+03  0.16347420296E+03 0.  0.
        -24    2    5    5    0    0 -0.39366624634E+02  0.83855250380E+02 -0.26696575364E+02  0.12305046618E+03  0.76467482883E+02 0.  0.
          5    1    3    3  501    0 -0.33286254163E+02 -0.72497007264E+02 -0.33343678891E+02  0.86589154635E+02  0.47000000000E+01 0. -1.
        -13    1    4    4    0    0  0.42565799205E+02  0.24117916487E+02  0.32131516490E+01  0.49029027128E+02  0.00000000000E+00 0.  1.
         14    1    4    4    0    0  0.67953355296E+01  0.30943873248E+01 -0.66818549587E+02  0.67234443456E+02  0.00000000000E+00 0. -1.
         -5    1    5    5    0  502  0.23291744062E+02 -0.38570546928E+02  0.15052557081E+02  0.47737426684E+02  0.47000000000E+01 0.  1.
         11    1    6    6    0    0  0.20072217571E+02  0.20105391044E+02 -0.21694912261E+02  0.35746187003E+02  0.00000000000E+00 0. -1.
        -12    1    6    6    0    0 -0.59438842205E+02  0.63749859336E+02 -0.50016631027E+01  0.87304279173E+02  0.00000000000E+00 0.  1.
</event>
<event>
12    1  0.8691829E-002  0.2008660E+03  0.7818608E-02  0.1149540E+00
         21   -1    0    0  503  502  0.00000000000E+00  0.00000000000E+00  0.11942676418E+03  0.11942676418E+03  0.00000000000E+00 0. -1.
         21   -1    0    0  501  503 -0.00000000000E+00 -0.00000000000E+00 -0.60787065337E+03  0.60787065337E+03  0.00000000000E+00 0. -1.
          6    2    1    2  501    0 -0.63459944699E+02 -0.83585898245E+02  0.87149301517E+00  0.19835819371E+03  0.16831947762E+03 0.  0.
         24    2    3    3    0    0 -0.20526273223E+02 -0.27992641533E+02 -0.59560382482E+02  0.10557882147E+03  0.79965820876E+02 0.  0.
         -6    2    1    2    0  502  0.63459944699E+02  0.83585898245E+02 -0.48931538220E+03  0.52893922385E+03  0.17126993985E+03 0.  0.
        -24    2    5    5    0    0  0.43739783709E+02  0.29304381003E+02 -0.43676279066E+03  0.45071369897E+03  0.98026464348E+02 0.  0.
          5    1    3    3  501    0 -0.42933671475E+02 -0.55593256712E+02  0.60431875497E+02  0.92779372246E+02  0.47000000000E+01 0. -1.
        -13    1    4    4    0    0 -0.39420063030E+02 -0.38474422893E+02 -0.63016412496E+02  0.83697615439E+02  0.00000000000E+00 0.  1.
         14    1    4    4    0    0  0.18893789807E+02  0.10481781360E+02  0.34560300143E+01  0.21881206027E+02  0.00000000000E+00 0. -1.
         -5    1    5    5    0  502  0.19720160989E+02  0.54281517242E+02 -0.52552591544E+02  0.78225524873E+02  0.47000000000E+01 0.  1.
         11    1    6    6    0    0 -0.31649056461E+02  0.52846250172E+01 -0.11939414318E+03  0.12363070599E+03  0.00000000000E+00 0. -1.
        -12    1    6    6    0    0  0.75388840170E+02  0.24019755985E+02 -0.31736864748E+03  0.32708299299E+03  0.00000000000E+00 0.  1.
</event>
<event>
12    1  0.8691829E-002  0.3723444E+03  0.7818608E-02  0.1053816E+00
         21   -1    0    0  503  502  0.00000000000E+00  0.00000000000E+00  0.20933649233E+03  0.20933649233E+03  0.00000000000E+00 0. -1.
         21   -1    0    0  501  503 -0.00000000000E+00 -0.00000000000E+00 -0.70286547258E+03  0.70286547258E+03  0.00000000000E+00 0. -1.
          6    2    1    2  501    0  0.29543850861E+03 -0.14835403454E+03 -0.35670428643E+03  0.51551398760E+03  0.17094996788E+03 0.  0.
         24    2    3    3    0    0  0.25077137158E+03 -0.56382171370E+02 -0.27252485591E+03  0.38299137342E+03  0.79670351911E+02 0.  0.
         -6    2    1    2    0  502 -0.29543850861E+03  0.14835403454E+03 -0.13682469382E+03  0.39668797731E+03  0.17131118637E+03 0.  0.
        -24    2    5    5    0    0 -0.10370823760E+03  0.48323581863E+02 -0.10983996400E+03  0.17870436800E+03  0.82339943783E+02 0.  0.
          5    1    3    3  501    0  0.44667137021E+02 -0.91971863168E+02 -0.84179430525E+02  0.13252261418E+03  0.47000000000E+01 0. -1.
        -13    1    4    4    0    0  0.12659403292E+03 -0.47743790893E+02 -0.91629302092E+02  0.16340577634E+03  0.00000000000E+00 0.  1.
         14    1    4    4    0    0  0.12417733866E+03 -0.86383804772E+01 -0.18089555381E+03  0.21958559708E+03  0.00000000000E+00 0. -1.
         -5    1    5    5    0  502 -0.19173027101E+03  0.10003045268E+03 -0.26984729812E+02  0.21798360931E+03  0.47000000000E+01 0.  1.
         13    1    6    6    0    0 -0.11666612195E+03  0.49160471988E+02 -0.10612744792E+03  0.16519918650E+03  0.00000000000E+00 0. -1.
        -14    1    6    6    0    0  0.12957884351E+02 -0.83689012450E+00 -0.37125160804E+01  0.13505181508E+02  0.00000000000E+00 0.  1.
</event>
<event>
12    1  0.8691829E-002  0.2928050E+03  0.7818608E-02  0.1089926E+00
         21   -1    0    0  503  502  0.00000000000E+00  0.00000000000E+00  0.69246276615E+03  0.69246276615E+03  0.00000000000E+00 0.  1.
         21   -1    0    0  501  503 -0.00000000000E+00 -0.00000000000E+00 -0.12144988153E+03  0.12144988153E+03  0.00000000000E+00 0. -1.
          6    2    1    2  501    0  0.83992886215E+02  0.21098094387E+03  0.31766829980E+03  0.42671988942E+03  0.17207251878E+03 0.  0.
         24    2    3    3    0    0  0.69442930775E+02  0.22885786119E+03  0.31452507804E+03  0.40298689089E+03  0.79209647442E+02 0.  0.
         -6    2    1    2    0  502 -0.83992886215E+02 -0.21098094387E+03  0.25334458482E+03  0.38719275826E+03  0.18484314913E+03 0.  0.
        -24    2    5    5    0    0 -0.10347446898E+02 -0.17408477001E+03  0.10742665276E+03  0.21956486299E+03  0.79092771654E+02 0.  0.
          5    1    3    3  501    0  0.14549955440E+02 -0.17876917321E+02  0.31432217530E+01  0.23732998529E+02  0.47000000000E+01 0. -1.
        -11    1    4    4    0    0  0.31490396827E+02  0.72932279190E+02  0.16731548897E+03  0.18521672518E+03  0.00000000000E+00 0.  1.
         12    1    4    4    0    0  0.37952533948E+02  0.15592558200E+03  0.14720958908E+03  0.21777016571E+03  0.00000000000E+00 0. -1.
         -5    1    5    5    0  502 -0.73645439317E+02 -0.36896173856E+02  0.14591793206E+03  0.16762789527E+03  0.47000000000E+01 0.  1.
         11    1    6    6    0    0 -0.45013110489E+02 -0.98800752983E+02  0.63034843324E+02  0.12554346012E+03  0.00000000000E+00 0. -1.
        -12    1    6    6    0    0  0.34665663591E+02 -0.75284017030E+02  0.44391809440E+02  0.94021402870E+02  0.00000000000E+00 0.  1.
</event>
<event>
12    1  0.8691829E-002  0.1863420E+03  0.7818608E-02  0.1161847E+00
         21   -1    0    0  503  502  0.00000000000E+00  0.00000000000E+00  0.98201116979E+02  0.98201116979E+02  0.00000000000E+00 0. -1.
         21   -1    0    0  501  503 -0.00000000000E+00 -0.00000000000E+00 -0.49390123301E+03  0.49390123301E+03  0.00000000000E+00 0. -1.
          6    2    1    2  501    0 -0.25835722107E+02 -0.65925196337E+02 -0.35592168791E+03  0.40175067187E+03  0.17236513096E+03 0.  0.
         24    2    3    3    0    0  0.16450910189E+02  0.10370001550E+02 -0.86886712302E+02  0.11888847115E+03  0.78784506221E+02 0.  0.
         -6    2    1    2    0  502  0.25835722107E+02  0.65925196337E+02 -0.39778428118E+02  0.19035167812E+03  0.17215638812E+03 0.  0.
        -24    2    5    5    0    0  0.47016054778E+02 -0.22782063437E+02 -0.15876980753E+02  0.95953830608E+02  0.78902010552E+02 0.  0.
          5    1    3    3  501    0 -0.42286632296E+02 -0.76295197886E+02 -0.26903497561E+03  0.28286220072E+03  0.47000000000E+01 0. -1.
        -13    1    4    4    0    0  0.42153937940E+02 -0.14047533170E+02 -0.37790131066E+02  0.58329938093E+02  0.00000000000E+00 0.  1.
         14    1    4    4    0    0 -0.25703027751E+02  0.24417534719E+02 -0.49096581236E+02  0.60558533060E+02  0.00000000000E+00 0. -1.
         -5    1    5    5    0  502 -0.21180332671E+02  0.88707259774E+02 -0.23901447365E+02  0.94397847511E+02  0.47000000000E+01 0.  1.
         11    1    6    6    0    0  0.15645788846E+02  0.25247439889E+02  0.12169093811E+02  0.32098454383E+02  0.00000000000E+00 0. -1.
        -12    1    6    6    0    0  0.31370265932E+02 -0.48029503327E+02 -0.28046074564E+02  0.63855376225E+02  0.00000000000E+00 0.  1.
</event>
<event>
12    1  0.8691829E-002  0.2206343E+03  0.7818608E-02  0.1133615E+00
         21   -1    0    0  503  502  0.00000000000E+00  0.00000000000E+00  0.14932632515E+03  0.14932632515E+03  0.00000000000E+00 0. -1.
         21   -1    0    0  501  503 -0.00000000000E+00 -0.00000000000E+00 -0.51985109242E+03  0.51985109242E+03  0.00000000000E+00 0.  1.
          6    2    1    2  501    0  0.44359334281E+02  0.12963502521E+03 -0.39014601430E+03  0.44767232408E+03  0.17153310753E+03 0.  0.
         24    2    3    3    0    0 -0.34796337640E+02  0.51316574925E+02 -0.23647847290E+03  0.25784291822E+03  0.81955636504E+02 0.  0.
         -6    2    1    2    0  502 -0.44359334281E+02 -0.12963502521E+03  0.19621247027E+02  0.22150509349E+03  0.17293502481E+03 0.  0.
        -24    2    5    5    0    0 -0.92799034741E+02 -0.11333974618E+03  0.10049068960E+02  0.16929726560E+03  0.84279424778E+02 0.  0.
          5    1    3    3  501    0  0.79155671921E+02  0.78318450285E+02 -0.15366754140E+03  0.18982940587E+03  0.47000000000E+01 0. -1.
        -11    1    4    4    0    0 -0.19623880323E+02  0.57985887593E+02 -0.23300088649E+03  0.24090843270E+03  0.00000000000E+00 0.  1.
         12    1    4    4    0    0 -0.15172457317E+02 -0.66693126687E+01 -0.34775864046E+01  0.16934485517E+02  0.00000000000E+00 0. -1.
         -5    1    5    5    0  502  0.48439700461E+02 -0.16295279029E+02  0.95721780670E+01  0.52207827883E+02  0.47000000000E+01 0.  1.
         11    1    6    6    0    0 -0.19946212363E+02  0.12234566561E+02  0.55581120392E+01  0.24050542946E+02  0.00000000000E+00 0. -1.
        -12    1    6    6    0    0 -0.72852822378E+02 -0.12557431274E+03  0.44909569204E+01  0.14524672266E+03  0.00000000000E+00 0.  1.
</event>
<event>
12    1  0.8691829E-002  0.2034620E+03  0.7818608E-02  0.1147167E+00
         21   -1    0    0  503  502  0.00000000000E+00  0.00000000000E+00  0.11481363795E+03  0.11481363795E+03  0.00000000000E+00 0. -1.
         21   -1    0    0  501  503 -0.00000000000E+00 -0.00000000000E+00 -0.68334231394E+03  0.68334231394E+03  0.00000000000E+00 0. -1.
          6    2    1    2  501    0 -0.57664880390E+01  0.10936159887E+03 -0.56025111815E+03  0.59605208032E+03  0.17147464936E+03 0.  0.
         24    2    3    3    0    0 -0.53984336016E+02  0.49199169992E+02 -0.43920904756E+03  0.45246325219E+03  0.80520433786E+02 0.  0.
         -6    2    1    2    0  502  0.57664880390E+01 -0.10936159887E+03 -0.82775578323E+01  0.20210387157E+03  0.16965920325E+03 0.  0.
        -24    2    5    5    0    0 -0.27222317328E+02 -0.20988726689E+02  0.36905824226E+02  0.97405954534E+02  0.83332460111E+02 0.  0.
          5    1    3    3  501    0  0.48217847977E+02  0.60162428877E+02 -0.12104207059E+03  0.14358882814E+03  0.47000000000E+01 0. -1.
        -11    1    4    4    0    0  0.52300442584E+01  0.38096486554E+02 -0.86728732040E+02  0.94871326606E+02  0.00000000000E+00 0.  1.
         12    1    4    4    0    0 -0.59214380274E+02  0.11102683437E+02 -0.35248031552E+03  0.35759192558E+03  0.00000000000E+00 0. -1.
         -5    1    5    5    0  502  0.32988805367E+02 -0.88372872179E+02 -0.45183382058E+02  0.10469791703E+03  0.47000000000E+01 0.  1.
         13    1    6    6    0    0 -0.37972343556E+02 -0.47491265504E+02  0.19181654377E+02  0.63759352561E+02  0.00000000000E+00 0. -1.
        -14    1    6    6    0    0  0.10750026228E+02  0.26502538815E+02  0.17724169849E+02  0.33646601974E+02  0.00000000000E+00 0.  1.
</event>
<event>
12    1  0.8691829E-002  0.1915917E+03  0.7818608E-02  0.1157513E+00
         21   -1    0    0  503  502  0.00000000000E+00  0.00000000000E+00  0.33430249376E+03  0.33430249376E+03  0.00000000000E+00 0. -1.
         21   -1    0    0  501  503 -0.00000000000E+00 -0.00000000000E+00 -0.17247285984E+03  0.17247285984E+03  0.00000000000E+00 0. -1.
          6    2    1    2  501    0 -0.40787644758E+02  0.69934712434E+02  0.23484828676E+03  0.30174099917E+03  0.17128752673E+03 0.  0.
         24    2    3    3    0    0 -0.86286965002E+02  0.81419242226E+02  0.18493825619E+03  0.23307380380E+03  0.77760568951E+02 0.  0.
         -6    2    1    2    0  502  0.40787644758E+02 -0.69934712434E+02 -0.73018652845E+02  0.20503435444E+03  0.17364580867E+03 0.  0.
        -24    2    5    5    0    0 -0.15215282684E+02 -0.33010146986E+02  0.20127066167E+02  0.90151952017E+02  0.80006881134E+02 0.  0.
          5    1    3    3  501    0  0.45499320244E+02 -0.11484529792E+02  0.49910030574E+02  0.68667195364E+02  0.47000000000E+01 0. -1.
        -11    1    4    4    0    0 -0.30593346022E+02  0.68064327088E+02  0.60425051828E+02  0.96020270418E+02  0.00000000000E+00 0.  1.
         12    1    4    4    0    0 -0.55693618980E+02  0.13354915138E+02  0.12451320436E+03  0.13705353338E+03  0.00000000000E+00 0. -1.
         -5    1    5    5    0  502  0.56002927442E+02 -0.36924565448E+02 -0.93145719012E+02  0.11488240242E+03  0.47000000000E+01 0.  1.
         11    1    6    6    0    0  0.13386676444E+02 -0.38923452205E+02 -0.15589095266E+02  0.44014294598E+02  0.00000000000E+00 0. -1.
        -12    1    6    6    0    0 -0.28601959128E+02  0.59133052186E+01  0.35716161433E+02  0.46137657419E+02  0.00000000000E+00 0.  1.
</event>
<event>
12    1  0.8691829E-002  0.1746091E+03  0.7818608E-02  0.1173214E+00
         21   -1    0    0  503  502  0.00000000000E+00  0.00000000000E+00  0.15425325264E+03  0.15425325264E+03  0.00000000000E+00 0. -1.
         21   -1    0    0  501  503 -0.00000000000E+00 -0.00000000000E+00 -0.38079625255E+03  0.38079625255E+03  0.00000000000E+00 0. -1.
          6    2    1    2  501    0 -0.32163124191E+02  0.37134033960E+01 -0.29906334068E+03  0.34630511039E+03  0.17158115228E+03 0.  0.
         24    2    3    3    0    0 -0.55183767805E+02 -0.31263742812E+02 -0.28396996318E+03  0.30154742017E+03  0.79178512104E+02 0.  0.
         -6    2    1    2    0  502  0.32163124191E+02 -0.37134033960E+01  0.72520340774E+02  0.18874439481E+03  0.17122205122E+03 0.  0.
        -24    2    5    5    0    0 -0.22324300825E+02 -0.40598910190E+02  0.33472335739E+01  0.93159726291E+02  0.80751995109E+02 0.  0.
          5    1    3    3  501    0  0.23020643614E+02  0.34977146208E+02 -0.15093377508E+02  0.44757690220E+02  0.47000000000E+01 0. -1.
        -11    1    4    4    0    0  0.16766036119E+02 -0.23699188888E+02 -0.76251305873E+02  0.81590521315E+02  0.00000000000E+00 0.  1.
         12    1    4    4    0    0 -0.71949803923E+02 -0.75645539245E+01 -0.20771865730E+03  0.21995689885E+03  0.00000000000E+00 0. -1.
         -5    1    5    5    0  502  0.54487425016E+02  0.36885506794E+02  0.69173107200E+02  0.95584668519E+02  0.47000000000E+01 0.  1.
         13    1    6    6    0    0  0.20302821221E+02 -0.12989923554E+00  0.23469713232E+02  0.31033028575E+02  0.00000000000E+00 0. -1.
        -14    1    6    6    0    0 -0.42627122046E+02 -0.40469010954E+02 -0.20122479658E+02  0.62126697716E+02  0.00000000000E+00 0.  1.
</event>
<event>
12    1  0.8691829E-002  0.2385352E+03  0.7818608E-02  0.1120883E+00
         21   -1    0    0  501  502  0.00000000000E+00  0.00000000000E+00  0.15989426875E+03  0.15989426875E+03  0.00000000000E+00 0. -1.
         21   -1    0    0  502  503 -0.00000000000E+00 -0.00000000000E+00 -0.42371314866E+03  0.42371314866E+03  0.00000000000E+00 0. -1.
         -6    2    1    2    0  503 -0.15813197175E+03  0.45598799356E+02 -0.24937457256E+03  0.34463532381E+03  0.17175813807E+03 0.  0.
        -24    2    3    3    0    0 -0.13359440242E+03  0.91335848141E+02 -0.21568736598E+03  0.28257980168E+03  0.84502088511E+02 0.  0.
          6    2    1    2  501    0  0.15813197175E+03 -0.45598799356E+02 -0.14444307355E+02  0.23897209359E+03  0.17266746222E+03 0.  0.
         24    2    5    5    0    0  0.10989082610E+03 -0.60889607290E+02  0.49733302147E+02  0.15710712855E+03  0.80160529941E+02 0.  0.
          5    1    5    5  501    0  0.48241145642E+02  0.15290807934E+02 -0.64177609502E+02  0.81864965043E+02  0.47000000000E+01 0. -1.
        -13    1    6    6    0    0  0.74951663800E+02 -0.79463083440E+02  0.40281138759E+02  0.11642466953E+03  0.00000000000E+00 0.  1.
         14    1    6    6    0    0  0.34939162303E+02  0.18573476150E+02  0.94521633874E+01  0.40682459014E+02  0.00000000000E+00 0. -1.
         -5    1    3    3    0  503 -0.24537569323E+02 -0.45737048785E+02 -0.33687206577E+02  0.62055522130E+02  0.47000000000E+01 0.  1.
         11    1    4    4    0    0 -0.89830877013E+02  0.61078510363E+02 -0.19917440227E+03  0.22687135873E+03  0.00000000000E+00 0. -1.
        -12    1    4    4    0    0 -0.43763525409E+02  0.30257337778E+02 -0.16512963708E+02  0.55708442951E+02  0.00000000000E+00 0.  1.
</event>
<event>
12    1  0.8691829E-002  0.2138099E+03  0.7818608E-02  0.1140156E+00
         21   -1    0    0  503  502  0.00000000000E+00  0.00000000000E+00  0.39708642553E+03  0.39708642553E+03  0.00000000000E+00 0.  1.
         21   -1    0    0  501  503 -0.00000000000E+00 -0.00000000000E+00 -0.25332608597E+03  0.25332608597E+03  0.00000000000E+00 0. -1.
          6    2    1    2  501    0 -0.11459419555E+03 -0.49825348252E+02 -0.17256168209E+03  0.26860853436E+03  0.16358060895E+03 0.  0.
         24    2    3    3    0    0 -0.42723397158E+02  0.18768828976E+02 -0.35585933426E+02  0.99330601559E+02  0.80141450838E+02 0.  0.
         -6    2    1    2    0  502  0.11459419555E+03  0.49825348252E+02  0.31632202165E+03  0.38180397713E+03  0.17349426673E+03 0.  0.
        -24    2    5    5    0    0  0.88053634907E+02  0.46765350339E+02  0.32776165632E+03  0.35236386525E+03  0.82414498502E+02 0.  0.
          5    1    3    3  501    0 -0.71870798390E+02 -0.68594177227E+02 -0.13697574867E+03  0.16927793280E+03  0.47000000000E+01 0. -1.
        -11    1    4    4    0    0  0.18733705027E+02 -0.11973276476E+02 -0.17442194011E+02  0.28258471040E+02  0.00000000000E+00 0.  1.
         12    1    4    4    0    0 -0.61457102185E+02  0.30742105451E+02 -0.18143739415E+02  0.71072130519E+02  0.00000000000E+00 0. -1.
         -5    1    5    5    0  502  0.26540560641E+02  0.30599979129E+01 -0.11439634671E+02  0.29440111884E+02  0.47000000000E+01 0.  1.
         13    1    6    6    0    0  0.78595255315E+00 -0.67086997429E+01 -0.20322271429E+01  0.70536742777E+01  0.00000000000E+00 0. -1.
        -14    1    6    6    0    0  0.87267682354E+02  0.53474050082E+02  0.32979388347E+03  0.34531019097E+03  0.00000000000E+00 0.  1.
</event>
<event>
12    1  0.8691829E-002  0.2882784E+03  0.7818608E-02  0.1091274E+00
         21   -1    0    0  503  502  0.00000000000E+00  0.00000000000E+00  0.14039522694E+03  0.14039522694E+03  0.00000000000E+00 0. -1.
         21   -1    0    0  501  503 -0.00000000000E+00 -0.00000000000E+00 -0.66289466082E+03  0.66289466082E+03  0.00000000000E+00 0.  1.
          6    2    1    2  501    0  0.49575073153E+02  0.22630069197E+03 -0.39305330767E+03  0.48743750052E+03  0.17156550697E+03 0.  0.
         24    2    3    3    0    0  0.33944830221E+02  0.16119084188E+03 -0.37589677889E+03  0.41815522607E+03  0.80129056565E+02 0.  0.
         -6    2    1    2    0  502 -0.49575073153E+02 -0.22630069197E+03 -0.12944612621E+03  0.31585238724E+03  0.17127971238E+03 0.  0.
        -24    2    5    5    0    0  0.92702939828E+01 -0.88772480747E+02 -0.11703589071E+03  0.16567619052E+03  0.76057272520E+02 0.  0.
          5    1    3    3  501    0  0.15630242932E+02  0.65109850093E+02 -0.17156528778E+02  0.69282274450E+02  0.47000000000E+01 0. -1.
        -13    1    4    4    0    0 -0.17699798555E+02  0.73160060549E+01 -0.60270480654E+02  0.63240316664E+02  0.00000000000E+00 0.  1.
         14    1    4    4    0    0  0.51644628776E+02  0.15387483582E+03 -0.31562629823E+03  0.35491490940E+03  0.00000000000E+00 0. -1.
         -5    1    5    5    0  502 -0.58845367135E+02 -0.13752821122E+03 -0.12410235496E+02  0.15017619672E+03  0.47000000000E+01 0.  1.
         11    1    6    6    0    0  0.66332702791E+01 -0.27550493781E+02  0.53201840676E+01  0.28832869103E+02  0.00000000000E+00 0. -1.
        -12    1    6    6    0    0  0.26370237037E+01 -0.61221986966E+02 -0.12235607478E+03  0.13684332142E+03  0.00000000000E+00 0.  1.
</event>
<event>
12    1  0.8691829E-002  0.2358949E+03  0.7818608E-02  0.1123028E+00
         21   -1    0    0  503  502  0.00000000000E+00  0.00000000000E+00  0.14451073176E+04  0.14451073176E+04  0.00000000000E+00 0. -1.
         21   -1    0    0  501  503 -0.00000000000E+00 -0.00000000000E+00 -0.78333966610E+02  0.78333966610E+02  0.00000000000E+00 0. -1.
          6    2    1    2  501    0  0.66231978286E+02 -0.14288524499E+03  0.13915886104E+03  0.27388244911E+03  0.17562328758E+03 0.  0.
         24    2    3    3    0    0 -0.26310323997E+02 -0.10757153891E+03  0.92456546365E+02  0.16427254196E+03  0.78570897566E+02 0.  0.
         -6    2    1    2    0  502 -0.66231978286E+02  0.14288524499E+03  0.12276144899E+04  0.12495588351E+04  0.17192172131E+03 0.  0.
        -24    2    5    5    0    0 -0.81483481552E+02  0.21323807621E+02  0.60053326467E+03  0.61060442005E+03  0.71437338116E+02 0.  0.
          5    1    3    3  501    0  0.92542302284E+02 -0.35313706084E+02  0.46702314678E+02  0.10960990715E+03  0.47000000000E+01 0. -1.
        -11    1    4    4    0    0 -0.50919737376E+02 -0.90613421782E+02  0.59430634079E+02  0.11973141663E+03  0.00000000000E+00 0.  1.
         12    1    4    4    0    0  0.24609413378E+02 -0.16958117128E+02  0.33025912286E+02  0.44541125330E+02  0.00000000000E+00 0. -1.
         -5    1    5    5    0  502  0.15251503266E+02  0.12156143737E+03  0.62708122527E+03  0.63895441504E+03  0.47000000000E+01 0.  1.
         11    1    6    6    0    0 -0.15908765772E+02  0.35073912997E+02  0.31340529633E+03  0.31576280333E+03  0.00000000000E+00 0. -1.
        -12    1    6    6    0    0 -0.65574715780E+02 -0.13750105375E+02  0.28712796834E+03  0.29484161672E+03  0.00000000000E+00 0.  1.
</event>
<event>
12    1  0.8691829E-002  0.1810617E+03  0.7818608E-02  0.1167585E+00
         21   -1    0    0  503  502  0.00000000000E+00  0.00000000000E+00  0.67196854964E+02  0.67196854964E+02  0.00000000000E+00 0.  1.
         21   -1    0    0  501  503 -0.00000000000E+00 -0.00000000000E+00 -0.81182043631E+03  0.81182043631E+03  0.00000000000E+00 0. -1.
          6    2    1    2  501    0  0.15922420145E+02 -0.53946407683E+02 -0.65169889877E+03  0.67550231395E+03  0.16860659277E+03 0.  0.
         24    2    3    3    0    0  0.56489345474E+02 -0.12843313115E+02 -0.52031239406E+03  0.53190689816E+03  0.94042352481E+02 0.  0.
         -6    2    1    2    0  502 -0.15922420145E+02  0.53946407683E+02 -0.92924682573E+02  0.20351497732E+03  0.17210348921E+03 0.  0.
        -24    2    5    5    0    0  0.27451180968E+02 -0.27622507197E+02 -0.45719937246E+02  0.99663472137E+02  0.79535682409E+02 0.  0.
          5    1    3    3  501    0 -0.40566925329E+02 -0.41103094568E+02 -0.13138650472E+03  0.14359541579E+03  0.47000000000E+01 0. -1.
        -13    1    4    4    0    0 -0.14161971059E+02  0.20262721696E+02 -0.57877138451E+02  0.62935701077E+02  0.00000000000E+00 0.  1.
         14    1    4    4    0    0  0.70651316533E+02 -0.33106034811E+02 -0.46243525561E+03  0.46897119709E+03  0.00000000000E+00 0. -1.
         -5    1    5    5    0  502 -0.43373601113E+02  0.81568914881E+02 -0.47204745327E+02  0.10385150519E+03  0.47000000000E+01 0.  1.
         13    1    6    6    0    0  0.26025788232E+01  0.21302009501E+02 -0.38821661159E+02  0.44358430996E+02  0.00000000000E+00 0. -1.
        -14    1    6    6    0    0  0.24848602144E+02 -0.48924516698E+02 -0.68982760875E+01  0.55305041141E+02  0.00000000000E+00 0.  1.
</event>
<event>
12    1  0.8691829E-002  0.1822308E+03  0.7818608E-02  0.1165856E+00
         21   -1    0    0  501  502  0.00000000000E+00  0.00000000000E+00  0.29836679451E+03  0.29836679451E+03  0.00000000000E+00 0. -1.
         21   -1    0    0  502  503 -0.00000000000E+00 -0.00000000000E+00 -0.21735981837E+03  0.21735981837E+03  0.00000000000E+00 0. -1.
         -6    2    1    2    0  503 -0.19331805396E+02  0.57157263239E+02 -0.13999851688E+03  0.22979912919E+03  0.17195168974E+03 0.  0.
        -24    2    3    3    0    0  0.49332936644E+02  0.50879565488E+02 -0.54953412147E+02  0.12021347261E+03  0.80055809706E+02 0.  0.
          6    2    1    2  501    0  0.19331805396E+02 -0.57157263239E+02  0.22100549303E+03  0.28592748369E+03  0.17108602088E+03 0.  0.
         24    2    5    5    0    0  0.66685798521E+02 -0.43282992907E+02  0.20418563343E+03  0.23358348958E+03  0.80926265863E+02 0.  0.
          5    1    5    5  501    0 -0.47353993124E+02 -0.13874270332E+02  0.16819859592E+02  0.52343994104E+02  0.47000000000E+01 0. -1.
        -11    1    6    6    0    0  0.50616443571E+02  0.20867906513E+00  0.44814280982E+02  0.67604642493E+02  0.00000000000E+00 0.  1.
         12    1    6    6    0    0  0.16069354950E+02 -0.43491671972E+02  0.15937135245E+03  0.16597884709E+03  0.00000000000E+00 0. -1.
         -5    1    3    3    0  503 -0.68664742040E+02  0.62776977507E+01 -0.85045104735E+02  0.10958565658E+03  0.47000000000E+01 0.  1.
         13    1    4    4    0    0  0.49049596866E+02 -0.28221498469E+01 -0.99067649528E+01  0.50119571769E+02  0.00000000000E+00 0. -1.
        -14    1    4    4    0    0  0.28333977771E+00  0.53701715335E+02 -0.45046647195E+02  0.70093900839E+02  0.00000000000E+00 0.  1.
</event>
<event>
12    1  0.8691829E-002  0.2151434E+03  0.7818608E-02  0.1138353E+00
         21   -1    0    0  503  502  0.00000000000E+00  0.00000000000E+00  0.43513946984E+03  0.43513946984E+03  0.00000000000E+00 0.  1.
         21   -1    0    0  501  503 -0.00000000000E+00 -0.00000000000E+00 -0.20310815427E+03  0.20310815427E+03  0.00000000000E+00 0. -1.
          6    2    1    2  501    0 -0.12830318041E+03  0.89442690490E+01 -0.10593046731E+03  0.23980818925E+03  0.17246738149E+03 0.  0.
         24    2    3    3    0    0 -0.25219993616E+02 -0.77773023562E+01  0.90298740187E+01  0.84425679210E+02  0.79684516534E+02 0.  0.
         -6    2    1    2    0  502  0.12830318041E+03 -0.89442690490E+01  0.33796178287E+03  0.39843943486E+03  0.16731440619E+03 0.  0.
        -24    2    5    5    0    0  0.47153629384E+02 -0.46001598544E+02  0.11041108281E+03  0.15398104086E+03  0.84734537840E+02 0.  0.
          5    1    3    3  501    0 -0.10308318679E+03  0.16721571405E+02 -0.11496034132E+03  0.15538251004E+03  0.47000000000E+01 0. -1.
        -13    1    4    4    0    0 -0.53646779317E+02 -0.86557503041E+01 -0.76478916020E+00  0.54345964403E+02  0.00000000000E+00 0.  1.
         14    1    4    4    0    0  0.28426785701E+02  0.87844794789E+00  0.97946631789E+01  0.30079714807E+02  0.00000000000E+00 0. -1.
         -5    1    5    5    0  502  0.81149551022E+02  0.37057329495E+02  0.22755070006E+03  0.24445839400E+03  0.47000000000E+01 0.  1.
         13    1    6    6    0    0  0.19748659273E+02  0.19777605538E+02  0.77351820818E+01  0.28999935616E+02  0.00000000000E+00 0. -1.
        -14    1    6    6    0    0  0.27404970110E+02 -0.65779204082E+02  0.10267590073E+03  0.12498110524E+03  0.00000000000E+00 0.  1.
</event>
<event>
12    1  0.8691829E-002  0.2481916E+03  0.7818608E-02  0.1115196E+00
         21   -1    0    0  501  502  0.00000000000E+00  0.00000000000E+00  0.68435398617E+02  0.68435398617E+02  0.00000000000E+00 0. -1.
         21   -1    0    0  502  503 -0.00000000000E+00 -0.00000000000E+00 -0.15969491354E+04  0.15969491354E+04  0.00000000000E+00 0.  1.
         -6    2    1    2    0  503  0.17617201226E+03 -0.41707212389E+01 -0.13247951465E+04  0.13478431852E+04  0.17477156235E+03 0.  0.
        -24    2    3    3    0    0  0.49813903659E+02  0.60151532684E+01 -0.32301867080E+03  0.33806681352E+03  0.86200357576E+02 0.  0.
          6    2    1    2  501    0 -0.17617201226E+03  0.41707212389E+01 -0.20371859034E+03  0.31754134883E+03  0.16815847093E+03 0.  0.
         24    2    5    5    0    0 -0.49197824381E+02  0.18669350550E+02 -0.15291388380E+03  0.17993370788E+03  0.78895581619E+02 0.  0.
          5    1    5    5  501    0 -0.12697418788E+03 -0.14498629311E+02 -0.50804706539E+02  0.13760764095E+03  0.47000000000E+01 0. -1.
        -11    1    6    6    0    0 -0.22427111929E+02  0.46548420621E+02 -0.59288303766E+02  0.78643714149E+02  0.00000000000E+00 0.  1.
         12    1    6    6    0    0 -0.26770712452E+02 -0.27879070071E+02 -0.93625580038E+02  0.10128999373E+03  0.00000000000E+00 0. -1.
         -5    1    3    3    0  503  0.12635810860E+03 -0.10185874507E+02 -0.10017764756E+04  0.10097763717E+04  0.47000000000E+01 0.  1.
         13    1    4    4    0    0  0.73229559129E+02 -0.45417908372E+01 -0.22083188041E+03  0.23270134421E+03  0.00000000000E+00 0. -1.
        -14    1    4    4    0    0 -0.23415655470E+02  0.10556944106E+02 -0.10218679040E+03  0.10536546930E+03  0.00000000000E+00 0.  1.
</event>
<event>
12    1  0.8691829E-002  0.3040547E+03  0.7818608E-02  0.1083446E+00
         21   -1    0    0  503  502  0.00000000000E+00  0.00000000000E+00  0.95084547861E+02  0.95084547861E+02  0.00000000000E+00 0.  1.
         21   -1    0    0  501  503 -0.00000000000E+00 -0.00000000000E+00 -0.96781386353E+03  0.96781386353E+03  0.00000000000E+00 0. -1.
          6    2    1    2  501    0 -0.23064611033E+03  0.97547618280E+02 -0.45544052154E+03  0.54760875207E+03  0.17244161515E+03 0.  0.
         24    2    3    3    0    0 -0.18116217688E+03  0.31421207795E+02 -0.40206410616E+03  0.44915828964E+03  0.79250218014E+02 0.  0.
         -6    2    1    2    0  502  0.23064611033E+03 -0.97547618280E+02 -0.41728879412E+03  0.51528965932E+03  0.16935267715E+03 0.  0.
        -24    2    5    5    0    0  0.55469113061E+02 -0.50224699667E+02 -0.23049914740E+03  0.25483063927E+03  0.78800093918E+02 0.  0.
          5    1    3    3  501    0 -0.49483933454E+02  0.66126410485E+02 -0.53376415378E+02  0.98450462429E+02  0.47000000000E+01 0. -1.
        -13    1    4    4    0    0 -0.25765264241E+02 -0.23327308810E+02 -0.85262629216E+02  0.92074579111E+02  0.00000000000E+00 0.  1.
         14    1    4    4    0    0 -0.15539691264E+03  0.54748516604E+02 -0.31680147695E+03  0.35708371053E+03  0.00000000000E+00 0. -1.
         -5    1    5    5    0  502  0.17517699727E+03 -0.47322918613E+02 -0.18678964673E+03  0.26045902005E+03  0.47000000000E+01 0.  1.
         11    1    6    6    0    0  0.11017879220E+02 -0.35610716543E+02 -0.27015863358E+02  0.46036655702E+02  0.00000000000E+00 0. -1.
        -12    1    6    6    0    0  0.44451233840E+02 -0.14613983124E+02 -0.20348328404E+03  0.20879398357E+03  0.00000000000E+00 0.  1.
</event>
<event>
12    1  0.8691829E-002  0.2186599E+03  0.7818608E-02  0.1136582E+00
         21   -1    0    0  503  502  0.00000000000E+00  0.00000000000E+00  0.19933251283E+04  0.19933251283E+04  0.00000000000E+00 0. -1.
         21   -1    0    0  501  503 -0.00000000000E+00 -0.00000000000E+00 -0.43078021182E+02  0.43078021182E+02  0.00000000000E+00 0.  1.
          6    2    1    2  501    0  0.54062837915E+02  0.12370212685E+03  0.26980482686E+03  0.34179452351E+03  0.16063575278E+03 0.  0.
         24    2    3    3    0    0  0.76902997452E+02  0.58371767651E+02  0.11390671014E+03  0.17116029037E+03  0.83664640736E+02 0.  0.
         -6    2    1    2    0  502 -0.54062837915E+02 -0.12370212685E+03  0.16804422802E+04  0.16946086259E+04  0.17200910244E+03 0.  0.
        -24    2    5    5    0    0 -0.93629184495E+02 -0.11467677025E+03  0.11140577231E+04  0.11267525620E+04  0.80805567116E+02 0.  0.
          5    1    3    3  501    0 -0.22840159538E+02  0.65330359198E+02  0.15589811672E+03  0.17063423313E+03  0.47000000000E+01 0. -1.
        -11    1    4    4    0    0  0.45643772547E+02  0.69741524754E+02  0.45180406682E+02  0.94807718015E+02  0.00000000000E+00 0.  1.
         12    1    4    4    0    0  0.31259224906E+02 -0.11369757104E+02  0.68726303462E+02  0.76352572359E+02  0.00000000000E+00 0. -1.
         -5    1    5    5    0  502  0.39566346580E+02 -0.90253565968E+01  0.56638455713E+03  0.56785606398E+03  0.47000000000E+01 0.  1.
         11    1    6    6    0    0 -0.10551706833E+03 -0.81453856544E+02  0.86673268660E+03  0.87692310522E+03  0.00000000000E+00 0. -1.
        -12    1    6    6    0    0  0.11887883832E+02 -0.33222913708E+02  0.24732503650E+03  0.24982945674E+03  0.00000000000E+00 0.  1.
</event>
<event>
12    1  0.8691829E-002  0.2979209E+03  0.7818608E-02  0.1086424E+00
         21   -1    0    0  503  502  0.00000000000E+00  0.00000000000E+00  0.23251085638E+04  0.23251085638E+04  0.00000000000E+00 0.  1.
         21   -1    0    0  501  503 -0.00000000000E+00 -0.00000000000E+00 -0.12552336294E+03  0.12552336294E+03  0.00000000000E+00 0. -1.
          6    2    1    2  501    0  0.23548964172E+03  0.60441394710E+02  0.77428535756E+02  0.30781823971E+03  0.17218698265E+03 0.  0.
         24    2    3    3    0    0  0.21214093178E+03 -0.57456234314E+01  0.49302354897E+02  0.23206168438E+03  0.79906921049E+02 0.  0.
         -6    2    1    2    0  502 -0.23548964172E+03 -0.60441394710E+02  0.21221566651E+04  0.21428136870E+04  0.17027346385E+03 0.  0.
        -24    2    5    5    0    0 -0.20620694475E+03 -0.10399043158E+03  0.16939413172E+04  0.17113690566E+04  0.77534171766E+02 0.  0.
          5    1    3    3  501    0  0.23348709942E+02  0.66187018141E+02  0.28126180859E+02  0.75756555334E+02  0.47000000000E+01 0. -1.
        -13    1    4    4    0    0  0.11691642694E+02 -0.15879877611E+02  0.21940258343E+02  0.29499829796E+02  0.00000000000E+00 0.  1.
         14    1    4    4    0    0  0.20044928909E+03  0.10134254180E+02  0.27362096554E+02  0.20256185458E+03  0.00000000000E+00 0. -1.
         -5    1    5    5    0  502 -0.29282696973E+02  0.43549036866E+02  0.42821534792E+03  0.43144463046E+03  0.47000000000E+01 0.  1.
         11    1    6    6    0    0 -0.11434689852E+03 -0.96898173247E+02  0.11414631719E+04  0.11512613265E+04  0.00000000000E+00 0. -1.
        -12    1    6    6    0    0 -0.91860046231E+02 -0.70922583287E+01  0.55247814530E+03  0.56010773004E+03  0.00000000000E+00 0.  1.
</event>
<event>
12    1  0.8691829E-002  0.1971858E+03  0.7818608E-02  0.1152776E+00
         21   -1    0    0  501  502  0.00000000000E+00  0.00000000000E+00  0.21124969185E+03  0.21124969185E+03  0.00000000000E+00 0. -1.
         21   -1    0    0  502  503 -0.00000000000E+00 -0.00000000000E+00 -0.38894896436E+03  0.38894896436E+03  0.00000000000E+00 0.  1.
         -6    2    1    2    0  503  0.97204118386E+02 -0.13204822194E+02 -0.30842835626E+03  0.36607417964E+03  0.17105334282E+03 0.  0.
        -24    2    3    3    0    0  0.90621614128E+02  0.43798806069E+02 -0.26468202585E+03  0.29376529760E+03  0.78172008442E+02 0.  0.
          6    2    1    2  501    0 -0.97204118386E+02  0.13204822194E+02  0.13072908375E+03  0.23412447657E+03  0.16763403363E+03 0.  0.
         24    2    5    5    0    0  0.12914055027E+02 -0.47819689682E+01  0.65132715101E+02  0.10460802838E+03  0.80690327677E+02 0.  0.
          5    1    5    5  501    0 -0.11011817341E+03  0.17986791162E+02  0.65596368654E+02  0.12951644819E+03  0.47000000000E+01 0. -1.
        -13    1    6    6    0    0 -0.19412018202E+02 -0.24696293958E+02  0.26886876894E+01  0.31527169671E+02  0.00000000000E+00 0.  1.
         14    1    6    6    0    0  0.32326073230E+02  0.19914324990E+02  0.62444027411E+02  0.73080858709E+02  0.00000000000E+00 0. -1.
         -5    1    3    3    0  503  0.65825042575E+01 -0.57003628264E+02 -0.43746330412E+02  0.72308882041E+02  0.47000000000E+01 0.  1.
         11    1    4    4    0    0 -0.12853944759E+02  0.45532429251E+00 -0.13383161457E+02  0.18561794813E+02  0.00000000000E+00 0. -1.
        -12    1    4    4    0    0  0.10347555889E+03  0.43343481777E+02 -0.25129886439E+03  0.27520350278E+03  0.00000000000E+00 0.  1.
</event>
<event>
12    1  0.8691829E-002  0.2299940E+03  0.7818608E-02  0.1126911E+00
         21   -1    0    0  501  502  0.00000000000E+00  0.00000000000E+00  0.95968090553E+03  0.95968090553E+03  0.00000000000E+00 0. -1.
         21   -1    0    0  502  503 -0.00000000000E+00 -0.00000000000E+00 -0.11202534298E+03  0.11202534298E+03  0.00000000000E+00 0.  1.
         -6    2    1    2    0  503 -0.32549432532E+01 -0.15198403432E+03  0.41384973632E+02  0.23368773781E+03  0.17259056005E+03 0.  0.
        -24    2    3    3    0    0  0.35162250930E+02 -0.28424808597E+02  0.49928996938E+02  0.10392698333E+03  0.79142652809E+02 0.  0.
          6    2    1    2  501    0  0.32549432532E+01  0.15198403432E+03  0.80627058892E+03  0.83801851069E+03  0.17056676220E+03 0.  0.
         24    2    5    5    0    0 -0.22688161811E+02  0.10071783547E+03  0.21183812799E+03  0.24079718786E+03  0.49487959567E+02 0.  0.
          5    1    5    5  501    0  0.25943105064E+02  0.51266198853E+02  0.59443246093E+03  0.59722132284E+03  0.47000000000E+01 0. -1.
        -11    1    6    6    0    0  0.36984152215E+01  0.59675816169E+02  0.15356561203E+03  0.16479465559E+03  0.00000000000E+00 0.  1.
         12    1    6    6    0    0 -0.26386577032E+02  0.41042019303E+02  0.58272515954E+02  0.76002532271E+02  0.00000000000E+00 0. -1.
         -5    1    3    3    0  503 -0.38417194184E+02 -0.12355922573E+03 -0.85440233064E+01  0.12976075449E+03  0.47000000000E+01 0.  1.
         13    1    4    4    0    0  0.10150337250E+01 -0.47462329006E+02  0.43338071746E+02  0.64279790221E+02  0.00000000000E+00 0. -1.
        -14    1    4    4    0    0  0.34147217205E+02  0.19037520409E+02  0.65909251922E+01  0.39647193105E+02  0.00000000000E+00 0.  1.
</event>
<event>
12    1  0.8691829E-002  0.2482957E+03  0.7818608E-02  0.1114518E+00
         21   -1    0    0  503  502  0.00000000000E+00  0.00000000000E+00  0.12006309276E+03  0.12006309276E+03  0.00000000000E+00 0.  1.
         21   -1    0    0  501  503 -0.00000000000E+00 -0.00000000000E+00 -0.56121896621E+03  0.56121896621E+03  0.00000000000E+00 0.  1.
          6    2    1    2  501    0  0.57407485606E+02 -0.16902812303E+03 -0.32200624068E+03  0.40661872825E+03  0.17258228573E+03 0.  0.
         24    2    3    3    0    0  0.83439896394E+02 -0.15935270463E+03 -0.20066164138E+03  0.28204785720E+03  0.83249015917E+02 0.  0.
         -6    2    1    2    0  502 -0.57407485606E+02  0.16902812303E+03 -0.11914963277E+03  0.27466333072E+03  0.17139773767E+03 0.  0.
        -24    2    5    5    0    0  0.10611050342E+02  0.59285444919E+02 -0.21924140446E+01  0.10039039065E+03  0.80287393073E+02 0.  0.
          5    1    3    3  501    0 -0.26032410787E+02 -0.96754183985E+01 -0.12134459930E+03  0.12457087104E+03  0.47000000000E+01 0. -1.
        -13    1    4    4    0    0 -0.77331021127E-01 -0.89008382142E+02 -0.89251400626E+02  0.12604884206E+03  0.00000000000E+00 0.  1.
         14    1    4    4    0    0  0.83517227415E+02 -0.70344322486E+02 -0.11141024075E+03  0.15599901514E+03  0.00000000000E+00 0. -1.
         -5    1    5    5    0  502 -0.68018535949E+02  0.10974267811E+03 -0.11695721872E+03  0.17427294007E+03  0.47000000000E+01 0.  1.
         13    1    6    6    0    0  0.43639581476E+02  0.48665816609E+02 -0.51604981112E+01  0.65569852207E+02  0.00000000000E+00 0. -1.
        -14    1    6    6    0    0 -0.33028531134E+02  0.10619628310E+02  0.29680840666E+01  0.34820538441E+02  0.00000000000E+00 0.  1.
</event>
<event>
12    1  0.8691829E-002  0.2207846E+03  0.7818608E-02  0.1133386E+00
         21   -1    0    0  501  502  0.00000000000E+00  0.00000000000E+00  0.18589553749E+03  0.18589553749E+03  0.00000000000E+00 0. -1.
         21   -1    0    0  502  503 -0.00000000000E+00 -0.00000000000E+00 -0.26849624737E+03  0.26849624737E+03  0.00000000000E+00 0.  1.
         -6    2    1    2    0  503  0.13959643627E+03 -0.38769555300E+01 -0.77570155722E+02  0.23401484800E+03  0.17100767300E+03 0.  0.
        -24    2    3    3    0    0  0.13861189454E+03  0.77198723924E+00 -0.44502442960E+01  0.16059010123E+03  0.80966182238E+02 0.  0.
          6    2    1    2  501    0 -0.13959643627E+03  0.38769555300E+01 -0.50305541644E+01  0.22037693686E+03  0.17040684265E+03 0.  0.
         24    2    5    5    0    0 -0.12123603279E+03 -0.40352577566E+02 -0.46078303316E+02  0.15712850823E+03  0.78991467259E+02 0.  0.
          5    1    5    5  501    0 -0.18360403480E+02  0.44229533096E+02  0.41047749151E+02  0.63248428630E+02  0.47000000000E+01 0. -1.
        -13    1    6    6    0    0 -0.91647081317E+02  0.60474604523E+01 -0.44537992759E+02  0.10207542354E+03  0.00000000000E+00 0.  1.
         14    1    6    6    0    0 -0.29588951470E+02 -0.46400038018E+02 -0.15403105566E+01  0.55053084689E+02  0.00000000000E+00 0. -1.
         -5    1    3    3    0  503  0.98454172292E+00 -0.46489427693E+01 -0.73119911426E+02  0.73424746770E+02  0.47000000000E+01 0.  1.
         13    1    4    4    0    0  0.40495016784E+02 -0.18950901252E+02  0.31012961065E+02  0.54413112359E+02  0.00000000000E+00 0. -1.
        -14    1    4    4    0    0  0.98116877760E+02  0.19722888491E+02 -0.35463205361E+02  0.10617698887E+03  0.00000000000E+00 0.  1.
</event>
<event>
12    1  0.8691829E-002  0.1757877E+03  0.7818608E-02  0.1172142E+00
         21   -1    0    0  503  502  0.00000000000E+00  0.00000000000E+00  0.29865517011E+03  0.29865517011E+03  0.00000000000E+00 0. -1.
         21   -1    0    0  501  503 -0.00000000000E+00 -0.00000000000E+00 -0.14288156189E+03  0.14288156189E+03  0.00000000000E+00 0. -1.
          6    2    1    2  501    0  0.27221027963E+02  0.18788552288E+02 -0.38874001352E+02  0.17926017052E+03  0.17184011957E+03 0.  0.
         24    2    3    3    0    0  0.59242341389E+02 -0.38633004786E+02 -0.86684627058E+01  0.10675455491E+03  0.79493576318E+02 0.  0.
         -6    2    1    2    0  502 -0.27221027963E+02 -0.18788552288E+02  0.19464760957E+03  0.26227656148E+03  0.17264793289E+03 0.  0.
        -24    2    5    5    0    0 -0.68929447422E+02 -0.44917099628E-01  0.18690941123E+03  0.21566233804E+03  0.82606569367E+02 0.  0.
          5    1    3    3  501    0 -0.32021313426E+02  0.57421557074E+02 -0.30205538646E+02  0.72505615612E+02  0.47000000000E+01 0. -1.
        -13    1    4    4    0    0  0.78970216310E+02 -0.26816550506E+02 -0.62969379059E+01  0.83636558227E+02  0.00000000000E+00 0.  1.
         14    1    4    4    0    0 -0.19727874921E+02 -0.11816454280E+02 -0.23715247999E+01  0.23117996681E+02  0.00000000000E+00 0. -1.
         -5    1    5    5    0  502  0.41708419459E+02 -0.18743635188E+02  0.77381983393E+01  0.46614223445E+02  0.47000000000E+01 0.  1.
         13    1    6    6    0    0 -0.88785836863E+01  0.23085003058E+02  0.12117171131E+03  0.12367024798E+03  0.00000000000E+00 0. -1.
        -14    1    6    6    0    0 -0.60050863736E+02 -0.23129920157E+02  0.65737699918E+02  0.91992090053E+02  0.00000000000E+00 0.  1.
</event>
<event>
12    1  0.8691829E-002  0.2246028E+03  0.7818608E-02  0.1130637E+00
         21   -1    0    0  501  502  0.00000000000E+00  0.00000000000E+00  0.12573977377E+03  0.12573977377E+03  0.00000000000E+00 0.  1.
         21   -1    0    0  502  503 -0.00000000000E+00 -0.00000000000E+00 -0.42653553888E+03  0.42653553888E+03  0.00000000000E+00 0.  1.
         -6    2    1    2    0  503 -0.56200213201E+02 -0.13323518299E+03 -0.21973882658E+03  0.31421577634E+03  0.17186135181E+03 0.  0.
        -24    2    3    3    0    0 -0.62624873526E+02 -0.31496913553E+02 -0.17237690218E+03  0.20171158260E+03  0.77844947168E+02 0.  0.
          6    2    1    2  501    0  0.56200213201E+02  0.13323518299E+03 -0.81056938532E+02  0.23805953630E+03  0.17085677508E+03 0.  0.
         24    2    5    5    0    0 -0.34588768624E+02  0.78487920095E+02 -0.41616335075E+02  0.12484490290E+03  0.80607654220E+02 0.  0.
          5    1    5    5  501    0  0.90788981825E+02  0.54747262894E+02 -0.39440603457E+02  0.11321463340E+03  0.47000000000E+01 0. -1.
        -11    1    6    6    0    0 -0.98784951567E+00  0.46637468414E+02  0.17442333982E+02  0.49802252173E+02  0.00000000000E+00 0.  1.
         12    1    6    6    0    0 -0.33600919108E+02  0.31850451681E+02 -0.59058669057E+02  0.75042650726E+02  0.00000000000E+00 0. -1.
         -5    1    3    3    0  503  0.64246603255E+01 -0.10173826944E+03 -0.47361924392E+02  0.11250419375E+03  0.47000000000E+01 0.  1.
         13    1    4    4    0    0  0.11032068341E+02 -0.22035735627E+01  0.77617178182E+00  0.11276733169E+02  0.00000000000E+00 0. -1.
        -14    1    4    4    0    0 -0.73656941867E+02 -0.29293339990E+02 -0.17315307397E+03  0.19043484943E+03  0.00000000000E+00 0.  1.
</event>
<event>
12    1  0.8691829E-002  0.2323140E+03  0.7818608E-02  0.1127643E+00
         21   -1    0    0  501  502  0.00000000000E+00  0.00000000000E+00  0.92865346317E+03  0.92865346317E+03  0.00000000000E+00 0. -1.
         21   -1    0    0  502  503 -0.00000000000E+00 -0.00000000000E+00 -0.56800146923E+02  0.56800146923E+02  0.00000000000E+00 0.  1.
         -6    2    1    2    0  503 -0.93379235661E+02 -0.94705343090E+02  0.32384443382E+03  0.39023640971E+03  0.17239621367E+03 0.  0.
        -24    2    3    3    0    0 -0.28018922719E+02 -0.11009035246E+03  0.27142978579E+03  0.30492489613E+03  0.80000737085E+02 0.  0.
          6    2    1    2  501    0  0.93379235661E+02  0.94705343090E+02  0.54800888243E+03  0.59521720038E+03  0.19047571169E+03 0.  0.
         24    2    5    5    0    0  0.86111637050E+02  0.92236813286E+02  0.21318609986E+03  0.26027347771E+03  0.79819335157E+02 0.  0.
          5    1    5    5  501    0  0.72675986110E+01  0.24685298039E+01  0.33482278256E+03  0.33494372267E+03  0.47000000000E+01 0. -1.
        -13    1    6    6    0    0  0.35654956610E+02  0.73011076989E+02  0.17842996588E+03  0.19605903707E+03  0.00000000000E+00 0.  1.
         14    1    6    6    0    0  0.50456680440E+02  0.19225736297E+02  0.34756133984E+02  0.64214440640E+02  0.00000000000E+00 0. -1.
         -5    1    3    3    0  503 -0.65360312942E+02  0.15385009369E+02  0.52414648030E+02  0.85311513580E+02  0.47000000000E+01 0.  1.
         13    1    4    4    0    0 -0.44839963879E+02 -0.73234919294E+02  0.23588609961E+03  0.25103033234E+03  0.00000000000E+00 0. -1.
        -14    1    4    4    0    0  0.16821041160E+02 -0.36855433165E+02  0.35543686176E+02  0.53894563794E+02  0.00000000000E+00 0.  1.
</event>
<event>
12    1  0.8691829E-002  0.1968340E+03  0.7818608E-02  0.1153637E+00
         21   -1    0    0  501  502  0.00000000000E+00  0.00000000000E+00  0.66832842617E+03  0.66832842617E+03  0.00000000000E+00 0.  1.
         21   -1    0    0  502  503 -0.00000000000E+00 -0.00000000000E+00 -0.59519755217E+02  0.59519755217E+02  0.00000000000E+00 0.  1.
         -6    2    1    2    0  503 -0.82320501073E+02 -0.23404973844E+02  0.22472340724E+03  0.29873776084E+03  0.17725456918E+03 0.  0.
        -24    2    3    3    0    0  0.80604133087E+01 -0.46693505884E+02  0.13522848449E+03  0.16934496117E+03  0.90253637611E+02 0.  0.
          6    2    1    2  501    0  0.82320501073E+02  0.23404973844E+02  0.38408526371E+03  0.42911042054E+03  0.17114264670E+03 0.  0.
         24    2    5    5    0    0  0.72052189097E+02  0.74891846275E+02  0.32459351901E+03  0.34962649795E+03  0.77957866121E+02 0.  0.
          5    1    5    5  501    0  0.10268311976E+02 -0.51486872431E+02  0.59491744700E+02  0.79483922595E+02  0.47000000000E+01 0. -1.
        -13    1    6    6    0    0  0.55667420109E+01  0.35215024483E+02  0.35376416158E+02  0.50225266412E+02  0.00000000000E+00 0.  1.
         14    1    6    6    0    0  0.66485447086E+02  0.39676821792E+02  0.28921710285E+03  0.29940123154E+03  0.00000000000E+00 0. -1.
         -5    1    3    3    0  503 -0.90380914382E+02  0.23288532040E+02  0.89494922749E+02  0.12939279967E+03  0.47000000000E+01 0.  1.
         11    1    4    4    0    0 -0.25704665646E+02 -0.51300479236E+02  0.11788364715E+03  0.13110691542E+03  0.00000000000E+00 0. -1.
        -12    1    4    4    0    0  0.33765078955E+02  0.46069733526E+01  0.17344837337E+02  0.38238045747E+02  0.00000000000E+00 0.  1.
</event>
<event>
12    1  0.8691829E-002  0.2781065E+03  0.7818608E-02  0.1096775E+00
         21   -1    0    0  501  502  0.00000000000E+00  0.00000000000E+00  0.67635963944E+02  0.67635963944E+02  0.00000000000E+00 0. -1.
         21   -1    0    0  502  503 -0.00000000000E+00 -0.00000000000E+00 -0.13704974448E+04  0.13704974448E+04  0.00000000000E+00 0. -1.
         -6    2    1    2    0  503 -0.21178662796E+03 -0.49629329642E+02 -0.94531207893E+03  0.98537208892E+03  0.17328179624E+03 0.  0.
        -24    2    3    3    0    0 -0.20004028842E+03 -0.51255875914E+02 -0.94690227584E+03  0.97251748384E+03  0.80765429453E+02 0.  0.
          6    2    1    2  501    0  0.21178662796E+03  0.49629329642E+02 -0.35754940193E+03  0.45276131983E+03  0.17272692833E+03 0.  0.
         24    2    5    5    0    0  0.33910375679E+02  0.25007587540E+01 -0.15061359533E+03  0.17580359495E+03  0.84061177280E+02 0.  0.
          5    1    5    5  501    0  0.17787625228E+03  0.47128570887E+02 -0.20693580660E+03  0.27695772488E+03  0.47000000000E+01 0. -1.
        -11    1    6    6    0    0  0.15136895637E+02 -0.25194239522E+02 -0.13626430311E+03  0.13939811913E+03  0.00000000000E+00 0.  1.
         12    1    6    6    0    0  0.18773480042E+02  0.27694998276E+02 -0.14349292217E+02  0.36405475817E+02  0.00000000000E+00 0. -1.
         -5    1    3    3    0  503 -0.11746339540E+02  0.16265462720E+01  0.15901969077E+01  0.12854605072E+02  0.47000000000E+01 0.  1.
         13    1    4    4    0    0 -0.10003760315E+03  0.14326697877E+02 -0.48200290312E+03  0.49248307071E+03  0.00000000000E+00 0. -1.
        -14    1    4    4    0    0 -0.10000268526E+03 -0.65582573790E+02 -0.46489937271E+03  0.48003441313E+03  0.00000000000E+00 0.  1.
</event>
<event>
12    1  0.8691829E-002  0.1990765E+03  0.7818608E-02  0.1151467E+00
         21   -1    0    0  503  502  0.00000000000E+00  0.00000000000E+00  0.54414509657E+02  0.54414509657E+02  0.00000000000E+00 0. -1.
         21   -1    0    0  501  503 -0.00000000000E+00 -0.00000000000E+00 -0.76731866864E+03  0.76731866864E+03  0.00000000000E+00 0.  1.
          6    2    1    2  501    0  0.46107906408E+02  0.86410010094E+02 -0.24273300589E+03  0.31115274661E+03  0.16823819631E+03 0.  0.
         24    2    3    3    0    0 -0.23049791292E+02  0.21261200849E+02 -0.17711961996E+03  0.19559167656E+03  0.76820652333E+02 0.  0.
         -6    2    1    2    0  502 -0.46107906408E+02 -0.86410010094E+02 -0.47017115309E+03  0.51058043169E+03  0.17331715190E+03 0.  0.
        -24    2    5    5    0    0 -0.76878747482E+02 -0.90775443653E+02 -0.25336125636E+03  0.29150390854E+03  0.81437580321E+02 0.  0.
          5    1    3    3  501    0  0.69157697701E+02  0.65148809244E+02 -0.65613385927E+02  0.11556107005E+03  0.47000000000E+01 0. -1.
        -13    1    4    4    0    0  0.18203663203E+02 -0.16994857413E+02 -0.37017695836E+02  0.44615113331E+02  0.00000000000E+00 0.  1.
         14    1    4    4    0    0 -0.41253454495E+02  0.38256058262E+02 -0.14010192413E+03  0.15097656323E+03  0.00000000000E+00 0. -1.
         -5    1    5    5    0  502  0.30770841073E+02  0.43654335590E+01 -0.21680989674E+03  0.21907652314E+03  0.47000000000E+01 0.  1.
         13    1    6    6    0    0  0.26272365495E+00 -0.43409607440E+02 -0.13918088134E+03  0.14579362391E+03  0.00000000000E+00 0. -1.
        -14    1    6    6    0    0 -0.77141471137E+02 -0.47365836213E+02 -0.11418037502E+03  0.14571028463E+03  0.00000000000E+00 0.  1.
</event>
<event>
12    1  0.8691829E-002  0.2111115E+03  0.7818608E-02  0.1141521E+00
         21   -1    0    0  501  502  0.00000000000E+00  0.00000000000E+00  0.23447172281E+03  0.23447172281E+03  0.00000000000E+00 0. -1.
         21   -1    0    0  502  503 -0.00000000000E+00 -0.00000000000E+00 -0.32891522263E+03  0.32891522263E+03  0.00000000000E+00 0.  1.
         -6    2    1    2    0  503  0.63974924113E+02  0.94208014640E+02 -0.23241886319E+03  0.31118607925E+03  0.17277241393E+03 0.  0.
        -24    2    3    3    0    0  0.38618323074E+02 -0.12419038154E+02 -0.14669847580E+03  0.17196553329E+03  0.80038081254E+02 0.  0.
          6    2    1    2  501    0 -0.63974924113E+02 -0.94208014640E+02  0.13797536337E+03  0.25220086619E+03  0.17776426827E+03 0.  0.
         24    2    5    5    0    0 -0.58019997884E+02 -0.89054306815E+02  0.20662037553E+02  0.13452959414E+03  0.79839227124E+02 0.  0.
          5    1    5    5  501    0 -0.59549262297E+01 -0.51537078258E+01  0.11731332582E+03  0.11767127205E+03  0.47000000000E+01 0. -1.
        -11    1    6    6    0    0 -0.78087472325E+02 -0.75842294579E+02  0.18352733534E+02  0.11039261664E+03  0.00000000000E+00 0.  1.
         12    1    6    6    0    0  0.20067474442E+02 -0.13212012236E+02  0.23093040191E+01  0.24136977500E+02  0.00000000000E+00 0. -1.
         -5    1    3    3    0  503  0.25356601039E+02  0.10662705279E+03 -0.85720387396E+02  0.13922054597E+03  0.47000000000E+01 0.  1.
         11    1    4    4    0    0  0.13428240732E+01  0.79095220342E+01  0.81293991441E+01  0.11421508033E+02  0.00000000000E+00 0. -1.
        -12    1    4    4    0    0  0.37275499001E+02 -0.20328560188E+02 -0.15482787494E+03  0.16054402525E+03  0.00000000000E+00 0.  1.
</event>
<event>
12    1  0.8691829E-002  0.2150713E+03  0.7818608E-02  0.1138216E+00
         21   -1    0    0  501  502  0.00000000000E+00  0.00000000000E+00  0.14100275915E+03  0.14100275915E+03  0.00000000000E+00 0.  1.
         21   -1    0    0  502  503 -0.00000000000E+00 -0.00000000000E+00 -0.77898339284E+03  0.77898339284E+03  0.00000000000E+00 0.  1.
         -6    2    1    2    0  503  0.12408943209E+03 -0.35916557413E+02 -0.67177331227E+03  0.70536163600E+03  0.17195193576E+03 0.  0.
        -24    2    3    3    0    0  0.58566706143E+02  0.36279567088E+02 -0.23093506091E+03  0.25384645146E+03  0.79754325932E+02 0.  0.
          6    2    1    2  501    0 -0.12408943209E+03  0.35916557413E+02  0.33792678579E+02  0.21462451600E+03  0.16802842464E+03 0.  0.
         24    2    5    5    0    0 -0.11213304949E+03 -0.29095385963E+02  0.42634225317E+02  0.14776817138E+03  0.81224337685E+02 0.  0.
          5    1    5    5  501    0 -0.11956382597E+02  0.65011943376E+02 -0.88415467382E+01  0.66856344614E+02  0.47000000000E+01 0. -1.
        -11    1    6    6    0    0  0.77283327845E+01  0.25401390169E+01  0.20216037361E+02  0.21791457052E+02  0.00000000000E+00 0.  1.
         12    1    6    6    0    0 -0.11986138228E+03 -0.31635524980E+02  0.22418187956E+02  0.12597671433E+03  0.00000000000E+00 0. -1.
         -5    1    3    3    0  503  0.65522725948E+02 -0.72196124501E+02 -0.44083825135E+03  0.45151518453E+03  0.47000000000E+01 0.  1.
         13    1    4    4    0    0  0.38583702648E+01  0.35733800179E+02 -0.16147697005E+03  0.16542854455E+03  0.00000000000E+00 0. -1.
        -14    1    4    4    0    0  0.54708335878E+02  0.54576690892E+00 -0.69458090865E+02  0.88417906912E+02  0.00000000000E+00 0.  1.
</event>
<event>
12    1  0.8691829E-002  0.2448316E+03  0.7818608E-02  0.1116718E+00
         21   -1    0    0  501  502  0.00000000000E+00  0.00000000000E+00  0.58076943368E+03  0.58076943368E+03  0.00000000000E+00 0.  1.
         21   -1    0    0  502  503 -0.00000000000E+00 -0.00000000000E+00 -0.13957405424E+03  0.13957405424E+03  0.00000000000E+00 0. -1.
         -6    2    1    2    0  503 -0.28070498975E+02  0.17197436697E+03  0.35881331265E+02  0.24682263970E+03  0.17108714074E+03 0.  0.
        -24    2    3    3    0    0  0.21070670106E+02  0.25770491970E+02  0.58028400684E+02  0.90928411945E+02  0.61584002938E+02 0.  0.
          6    2    1    2  501    0  0.28070498975E+02 -0.17197436697E+03  0.40531404818E+03  0.47352084823E+03  0.17198656997E+03 0.  0.
         24    2    5    5    0    0  0.56340969174E+02 -0.11225075215E+03  0.15393850046E+03  0.21356337932E+03  0.78343595120E+02 0.  0.
          5    1    5    5  501    0 -0.28270470198E+02 -0.59723614819E+02  0.25137554771E+03  0.25995746891E+03  0.47000000000E+01 0. -1.
        -13    1    6    6    0    0  0.17711516569E+02 -0.26781477758E+02  0.10074053077E+03  0.10573362715E+03  0.00000000000E+00 0.  1.
         14    1    6    6    0    0  0.38629452604E+02 -0.85469274391E+02  0.53197969688E+02  0.10782975217E+03  0.00000000000E+00 0. -1.
         -5    1    3    3    0  503 -0.49141169081E+02  0.14620387500E+03 -0.22147069419E+02  0.15589422775E+03  0.47000000000E+01 0.  1.
         13    1    4    4    0    0 -0.17980548756E+02 -0.61471062265E+01  0.21252565514E+02  0.28508921225E+02  0.00000000000E+00 0. -1.
        -14    1    4    4    0    0  0.39051218862E+02  0.31917598196E+02  0.36775835170E+02  0.62419490719E+02  0.00000000000E+00 0.  1.
</event>
<event>
12    1  0.8691829E-002  0.2302359E+03  0.7818608E-02  0.1126762E+00
         21   -1    0    0  501  502  0.00000000000E+00  0.00000000000E+00  0.10451685063E+04  0.10451685063E+04  0.00000000000E+00 0.  1.
         21   -1    0    0  502  503 -0.00000000000E+00 -0.00000000000E+00 -0.67239740740E+02  0.67239740740E+02  0.00000000000E+00 0.  1.
         -6    2    1    2    0  503 -0.10822461441E+03 -0.10825808242E+03  0.20896666246E+03  0.30971820694E+03  0.16978198407E+03 0.  0.
        -24    2    3    3    0    0 -0.10488797468E+03 -0.74049453235E+02  0.22564186330E+03  0.27122774321E+03  0.78520248690E+02 0.  0.
          6    2    1    2  501    0  0.10822461441E+03  0.10825808242E+03  0.76896210308E+03  0.80269004009E+03  0.17197733835E+03 0.  0.
         24    2    5    5    0    0  0.18270675583E+02  0.91479428993E+01  0.43714466776E+03  0.44486406108E+03  0.79944167064E+02 0.  0.
          5    1    5    5  501    0  0.89953938831E+02  0.99110139520E+02  0.33181743532E+03  0.35782597901E+03  0.47000000000E+01 0. -1.
        -11    1    6    6    0    0  0.29888999065E+02 -0.97030875630E+01  0.66420509830E+02  0.73479155544E+02  0.00000000000E+00 0.  1.
         12    1    6    6    0    0 -0.11618323482E+02  0.18851030462E+02  0.37072415793E+03  0.37138490554E+03  0.00000000000E+00 0. -1.
         -5    1    3    3    0  503 -0.33366397293E+01 -0.34208629184E+02 -0.16675200835E+02  0.38490463731E+02  0.47000000000E+01 0.  1.
         13    1    4    4    0    0  0.40085231225E+01  0.69521689998E+01  0.13042970048E+00  0.80260777053E+01  0.00000000000E+00 0. -1.
        -14    1    4    4    0    0 -0.10889649781E+03 -0.81001622234E+02  0.22551143360E+03  0.26320166550E+03  0.00000000000E+00 0.  1.
</event>
<event>
12    1  0.8691829E-002  0.1807997E+03  0.7818608E-02  0.1169197E+00
         21   -1    0    0  503  502  0.00000000000E+00  0.00000000000E+00  0.39739466692E+03  0.39739466692E+03  0.00000000000E+00 0. -1.
         21   -1    0    0  501  503 -0.00000000000E+00 -0.00000000000E+00 -0.11867492422E+03  0.11867492422E+03  0.00000000000E+00 0. -1.
          6    2    1    2  501    0 -0.14491932881E+02 -0.24433880158E+01 -0.87990208161E+01  0.18101366197E+03  0.18020137843E+03 0.  0.
         24    2    3    3    0    0 -0.61861578207E+02  0.36653441178E+02  0.24978185190E+02  0.11076101080E+03  0.80459692823E+02 0.  0.
         -6    2    1    2    0  502  0.14491932881E+02  0.24433880158E+01  0.28751876352E+03  0.33505592916E+03  0.17140434658E+03 0.  0.
        -24    2    5    5    0    0  0.63453170913E+02 -0.35497929436E+02  0.19182029953E+03  0.22096371905E+03  0.82118998590E+02 0.  0.
          5    1    3    3  501    0  0.47369645326E+02 -0.39096829194E+02 -0.33777206006E+02  0.70252651173E+02  0.47000000000E+01 0. -1.
        -11    1    4    4    0    0 -0.82335562280E+01  0.45795853653E+02  0.31173743202E+02  0.56007623813E+02  0.00000000000E+00 0.  1.
         12    1    4    4    0    0 -0.53628021979E+02 -0.91424124747E+01 -0.61955580121E+01  0.54753386985E+02  0.00000000000E+00 0. -1.
         -5    1    5    5    0  502 -0.48961238032E+02  0.37941317452E+02  0.95698463989E+02  0.11409221012E+03  0.47000000000E+01 0.  1.
         11    1    6    6    0    0 -0.50893529734E+01 -0.14124808940E+02  0.11438024992E+03  0.11536140305E+03  0.00000000000E+00 0. -1.
        -12    1    6    6    0    0  0.68542523886E+02 -0.21373120496E+02  0.77440049608E+02  0.10560231600E+03  0.00000000000E+00 0.  1.
</event>
<event>
12    1  0.8691829E-002  0.2168664E+03  0.7818608E-02  0.1137614E+00
         21   -1    0    0  501  502  0.00000000000E+00  0.00000000000E+00  0.18125544490E+03  0.18125544490E+03  0.00000000000E+00 0. -1.
         21   -1    0    0  502  503 -0.00000000000E+00 -0.00000000000E+00 -0.25261562231E+03  0.25261562231E+03  0.00000000000E+00 0. -1.
         -6    2    1    2    0  503 -0.65309238715E+02  0.10215267196E+03 -0.17985093634E+02  0.21053287198E+03  0.17117289956E+03 0.  0.
        -24    2    3    3    0    0 -0.11022479621E+03  0.61912957945E+02 -0.15810433351E+02  0.15000634031E+03  0.79178357327E+02 0.  0.
          6    2    1    2  501    0  0.65309238715E+02 -0.10215267196E+03 -0.53375083780E+02  0.22333819523E+03  0.17980707669E+03 0.  0.
         24    2    5    5    0    0 -0.31687878409E+01 -0.45723107745E+02  0.34552896932E+02  0.98330372949E+02  0.79839312119E+02 0.  0.
          5    1    5    5  501    0  0.68478026556E+02 -0.56429564214E+02 -0.87927980712E+02  0.12500782228E+03  0.47000000000E+01 0. -1.
        -13    1    6    6    0    0  0.17407146788E+02  0.17666307446E+02  0.44308916325E+01  0.25194046494E+02  0.00000000000E+00 0.  1.
         14    1    6    6    0    0 -0.20575934629E+02 -0.63389415191E+02  0.30122005299E+02  0.73136326455E+02  0.00000000000E+00 0. -1.
         -5    1    3    3    0  503  0.44915557497E+02  0.40239714014E+02 -0.21746602837E+01  0.60526531674E+02  0.47000000000E+01 0.  1.
         11    1    4    4    0    0 -0.28029482318E+02  0.20918538668E+01  0.27667242483E+02  0.39439878780E+02  0.00000000000E+00 0. -1.
        -12    1    4    4    0    0 -0.82195313894E+02  0.59821104078E+02 -0.43477675833E+02  0.11056646153E+03  0.00000000000E+00 0.  1.
</event>
<event>
12    1  0.8691829E-002  0.1956895E+03  0.7818608E-02  0.1154393E+00
         21   -1    0    0  501  502  0.00000000000E+00  0.00000000000E+00  0.30373067265E+02  0.30373067265E+02  0.00000000000E+00 0.  1.
         21   -1    0    0  502  503 -0.00000000000E+00 -0.00000000000E+00 -0.17140668617E+04  0.17140668617E+04  0.00000000000E+00 0.  1.
         -6    2    1    2    0  503  0.57465058461E+02  0.72648951351E+02 -0.12972014620E+04  0.13112301583E+04  0.16737022397E+03 0.  0.
        -24    2    3    3    0    0  0.21539372319E+02  0.66967430880E+02 -0.12309208439E+04  0.12354796142E+04  0.79342117867E+02 0.  0.
          6    2    1    2  501    0 -0.57465058461E+02 -0.72648951351E+02 -0.38649233239E+03  0.43320977065E+03  0.17237830291E+03 0.  0.
         24    2    5    5    0    0 -0.84460276823E+02 -0.96034400094E+02 -0.35413918863E+03  0.38479038467E+03  0.79327995368E+02 0.  0.
          5    1    5    5  501    0  0.26995218362E+02  0.23385448743E+02 -0.32353143762E+02  0.48419385979E+02  0.47000000000E+01 0. -1.
        -11    1    6    6    0    0 -0.70735055750E+02 -0.81164966257E+02 -0.34702243524E+03  0.36333974517E+03  0.00000000000E+00 0.  1.
         12    1    6    6    0    0 -0.13725221074E+02 -0.14869433837E+02 -0.71167533869E+01  0.21450639499E+02  0.00000000000E+00 0. -1.
         -5    1    3    3    0  503  0.35925686142E+02  0.56815204712E+01 -0.66280618108E+02  0.75750544133E+02  0.47000000000E+01 0.  1.
         13    1    4    4    0    0  0.27380795163E+02 -0.92242966969E+01 -0.40614078632E+03  0.40716720633E+03  0.00000000000E+00 0. -1.
        -14    1    4    4    0    0 -0.58414228440E+01  0.76191727576E+02 -0.82478005761E+03  0.82831240785E+03  0.00000000000E+00 0.  1.
</event>
<event>
12    1  0.8691829E-002  0.1777053E+03  0.7818608E-02  0.1170160E+00
         21   -1    0    0  503  502  0.00000000000E+00  0.00000000000E+00  0.17444507965E+03  0.17444507965E+03  0.00000000000E+00 0. -1.
         21   -1    0    0  501  503 -0.00000000000E+00 -0.00000000000E+00 -0.32461652744E+03  0.32461652744E+03  0.00000000000E+00 0. -1.
          6    2    1    2  501    0 -0.34039501422E+02  0.29347042041E+02 -0.24138064053E+03  0.29973953159E+03  0.17192799842E+03 0.  0.
         24    2    3    3    0    0 -0.14687232891E+01 -0.20518985950E+02 -0.22228722854E+03  0.23701693026E+03  0.79638102242E+02 0.  0.
         -6    2    1    2    0  502  0.34039501422E+02 -0.29347042041E+02  0.91209192740E+02  0.19932207550E+03  0.17143580842E+03 0.  0.
        -24    2    5    5    0    0 -0.12654339374E+02  0.31003184169E+02  0.80801699710E+01  0.86384088102E+02  0.79218632890E+02 0.  0.
          5    1    3    3  501    0 -0.32570778133E+02  0.49866027991E+02 -0.19093411995E+02  0.62722601329E+02  0.47000000000E+01 0. -1.
        -13    1    4    4    0    0 -0.13071387626E+02  0.28254843227E+02 -0.67979965944E+02  0.74769466429E+02  0.00000000000E+00 0.  1.
         14    1    4    4    0    0  0.11602664336E+02 -0.48773829177E+02 -0.15430726259E+03  0.16224746384E+03  0.00000000000E+00 0. -1.
         -5    1    5    5    0  502  0.46693840796E+02 -0.60350226210E+02  0.83129022769E+02  0.11293798740E+03  0.47000000000E+01 0.  1.
         13    1    6    6    0    0  0.28608823068E+02  0.51476782542E+01  0.21170868700E+02  0.35960659480E+02  0.00000000000E+00 0. -1.
        -14    1    6    6    0    0 -0.41263162442E+02  0.25855505915E+02 -0.13090698729E+02  0.50423428622E+02  0.00000000000E+00 0.  1.
</event>
<event>
12    1  0.8691829E-002  0.2526552E+03  0.7818608E-02  0.1111968E+00
         21   -1    0    0  503  502  0.00000000000E+00  0.00000000000E+00  0.68833964327E+03  0.68833964327E+03  0.00000000000E+00 0. -1.
         21   -1    0    0  501  503 -0.00000000000E+00 -0.00000000000E+00 -0.93351206236E+02  0.93351206236E+02  0.00000000000E+00 0. -1.
          6    2    1    2  501    0  0.79872437051E+02  0.16349960227E+03  0.25110557159E+03  0.35621431070E+03  0.17527949371E+03 0.  0.
         24    2    3    3    0    0  0.33816365454E+02  0.63515171769E+02  0.34268652527E+02  0.11298933759E+03  0.80090737572E+02 0.  0.
         -6    2    1    2    0  502 -0.79872437051E+02 -0.16349960227E+03  0.34388286544E+03  0.42547653881E+03  0.17222988646E+03 0.  0.
        -24    2    5    5    0    0 -0.10838209418E+03 -0.12024402184E+03  0.32218978458E+03  0.36911586506E+03  0.78961771930E+02 0.  0.
          5    1    3    3  501    0  0.46056071596E+02  0.99984430503E+02  0.21683691907E+03  0.24322497311E+03  0.47000000000E+01 0. -1.
        -13    1    4    4    0    0 -0.44019819548E+01  0.66778832464E+02  0.10175720981E+02  0.67692947992E+02  0.00000000000E+00 0.  1.
         14    1    4    4    0    0  0.38218347409E+02 -0.32636606945E+01  0.24092931546E+02  0.45296389594E+02  0.00000000000E+00 0. -1.
         -5    1    5    5    0  502  0.28509657128E+02 -0.43255580430E+02  0.21693080862E+02  0.56360673747E+02  0.47000000000E+01 0.  1.
         11    1    6    6    0    0  0.94359259398E+01 -0.14531586832E+02  0.12657341701E+02  0.21457213545E+02  0.00000000000E+00 0. -1.
        -12    1    6    6    0    0 -0.11781802012E+03 -0.10571243501E+03  0.30953244288E+03  0.34765865152E+03  0.00000000000E+00 0.  1.
</event>
<event>
12    1  0.8691829E-002  0.2044688E+03  0.7818608E-02  0.1147090E+00
         21   -1    0    0  501  502  0.00000000000E+00  0.00000000000E+00  0.38963138433E+03  0.38963138433E+03  0.00000000000E+00 0.  1.
         21   -1    0    0  502  503 -0.00000000000E+00 -0.00000000000E+00 -0.19452469714E+03  0.19452469714E+03  0.00000000000E+00 0. -1.
         -6    2    1    2    0  503  0.53044053479E+02  0.86642006999E+02 -0.10167042885E+03  0.22376164412E+03  0.17149894545E+03 0.  0.
        -24    2    3    3    0    0  0.84975953710E+02  0.48823362540E+02 -0.19707926932E+02  0.12789800220E+03  0.79780092402E+02 0.  0.
          6    2    1    2  501    0 -0.53044053479E+02 -0.86642006999E+02  0.29677711604E+03  0.36039443735E+03  0.17744572375E+03 0.  0.
         24    2    5    5    0    0  0.21549188415E+00  0.19541207175E+02  0.14969961610E+03  0.17127718500E+03  0.80894955514E+02 0.  0.
          5    1    5    5  501    0 -0.53259545363E+02 -0.10618321417E+03  0.14707749995E+03  0.18911725235E+03  0.47000000000E+01 0. -1.
        -13    1    6    6    0    0  0.26191059316E+02 -0.16609817821E+02  0.99313302238E+02  0.10404321043E+03  0.00000000000E+00 0.  1.
         14    1    6    6    0    0 -0.25975567432E+02  0.36151024996E+02  0.50386313859E+02  0.67233974567E+02  0.00000000000E+00 0. -1.
         -5    1    3    3    0  503 -0.31931900231E+02  0.37818644460E+02 -0.81962501921E+02  0.95863641921E+02  0.47000000000E+01 0.  1.
         11    1    4    4    0    0  0.38415990945E+02  0.64617387800E+02 -0.23021784101E+02  0.78620593419E+02  0.00000000000E+00 0. -1.
        -12    1    4    4    0    0  0.46559962765E+02 -0.15794025261E+02  0.33138571688E+01  0.49277408779E+02  0.00000000000E+00 0.  1.
</event>
<event>
12    1  0.8691829E-002  0.2692051E+03  0.7818608E-02  0.1102293E+00
         21   -1    0    0  501  502  0.00000000000E+00  0.00000000000E+00  0.80657398634E+03  0.80657398634E+03  0.00000000000E+00 0.  1.
         21   -1    0    0  502  503 -0.00000000000E+00 -0.00000000000E+00 -0.13262906518E+03  0.13262906518E+03  0.00000000000E+00 0. -1.
         -6    2    1    2    0  503 -0.68942166483E+02  0.19463412099E+03  0.64691167488E+02  0.27312382353E+03  0.16666197064E+03 0.  0.
        -24    2    3    3    0    0 -0.12203209531E+02  0.82059274839E+02 -0.25975122044E+02  0.11776980434E+03  0.79450468463E+02 0.  0.
          6    2    1    2  501    0  0.68942166483E+02 -0.19463412099E+03  0.60925375368E+03  0.66607922799E+03  0.17273082590E+03 0.  0.
         24    2    5    5    0    0  0.66900637202E+00 -0.17913263571E+03  0.39975127179E+03  0.44513828485E+03  0.79107930053E+02 0.  0.
          5    1    5    5  501    0  0.68273160111E+02 -0.15501485276E+02  0.20950248189E+03  0.22094094314E+03  0.47000000000E+01 0. -1.
        -11    1    6    6    0    0  0.26742823645E+02 -0.96621796286E+02  0.27990348592E+03  0.29731618113E+03  0.00000000000E+00 0.  1.
         12    1    6    6    0    0 -0.26073817273E+02 -0.82510839425E+02  0.11984778587E+03  0.14782210372E+03  0.00000000000E+00 0. -1.
         -5    1    3    3    0  503 -0.56738956951E+02  0.11257484615E+03  0.90666289532E+02  0.15535401919E+03  0.47000000000E+01 0.  1.
         13    1    4    4    0    0 -0.42781788405E+01  0.90967447067E+02 -0.21105065121E+01  0.91092444681E+02  0.00000000000E+00 0. -1.
        -14    1    4    4    0    0 -0.79250306909E+01 -0.89081722281E+01 -0.23864615532E+02  0.26677359659E+02  0.00000000000E+00 0.  1.
</event>
<event>
12    1  0.8691829E-002  0.2137334E+03  0.7818608E-02  0.1138707E+00
         21   -1    0    0  501  502  0.00000000000E+00  0.00000000000E+00  0.83468255667E+03  0.83468255667E+03  0.00000000000E+00 0. -1.
         21   -1    0    0  502  503 -0.00000000000E+00 -0.00000000000E+00 -0.72523663283E+02  0.72523663283E+02  0.00000000000E+00 0. -1.
         -6    2    1    2    0  503 -0.57903298553E+02 -0.11355190056E+03  0.15608324893E+03  0.26465816361E+03  0.17156671257E+03 0.  0.
        -24    2    3    3    0    0 -0.18215705868E+02 -0.84061871246E+02  0.17449144321E+03  0.21168913059E+03  0.83467443475E+02 0.  0.
          6    2    1    2  501    0  0.57903298553E+02  0.11355190056E+03  0.60607564445E+03  0.64254805635E+03  0.17115341601E+03 0.  0.
         24    2    5    5    0    0  0.55347076599E+01  0.27387093536E+02  0.12382865198E+03  0.14985028384E+03  0.79629684384E+02 0.  0.
          5    1    5    5  501    0  0.52368590893E+02  0.86164807023E+02  0.48224699247E+03  0.49269777250E+03  0.47000000000E+01 0. -1.
        -13    1    6    6    0    0  0.33327924674E+01  0.39695956273E+02  0.18745516244E+02  0.44025797316E+02  0.00000000000E+00 0.  1.
         14    1    6    6    0    0  0.22019151926E+01 -0.12308862737E+02  0.10508313574E+03  0.10582448653E+03  0.00000000000E+00 0. -1.
         -5    1    3    3    0  503 -0.39687592685E+02 -0.29490029313E+02 -0.18408194274E+02  0.52969033014E+02  0.47000000000E+01 0.  1.
         11    1    4    4    0    0  0.23916767123E+02 -0.72057685368E+02  0.10600162156E+03  0.13038660032E+03  0.00000000000E+00 0. -1.
        -12    1    4    4    0    0 -0.42132472991E+02 -0.12004185879E+02  0.68489821646E+02  0.81302530269E+02  0.00000000000E+00 0.  1.
</event>
<event>
12    1  0.8691829E-002  0.2076969E+03  0.7818608E-02  0.1143682E+00
         21   -1    0    0  503  502  0.00000000000E+00  0.00000000000E+00  0.87213343730E+03  0.87213343730E+03  0.00000000000E+00 0.  1.
         21   -1    0    0  501  503 -0.00000000000E+00 -0.00000000000E+00 -0.50027525263E+02  0.50027525263E+02  0.00000000000E+00 0. -1.
          6    2    1    2  501    0  0.11331478245E+03 -0.84049094362E+01  0.35076318468E+03  0.40764299244E+03  0.17385946950E+03 0.  0.
         24    2    3    3    0    0  0.13348562404E+03  0.93086057219E+01  0.19702756486E+03  0.25151047734E+03  0.80824482245E+02 0.  0.
         -6    2    1    2    0  502 -0.11331478245E+03  0.84049094362E+01  0.47134272735E+03  0.51451797012E+03  0.17220305608E+03 0.  0.
        -24    2    5    5    0    0 -0.14480322143E+03 -0.18401311852E+02  0.38733412230E+03  0.42076493811E+03  0.75556797347E+02 0.  0.
          5    1    3    3  501    0 -0.20170841592E+02 -0.17713515158E+02  0.15373561982E+03  0.15613251510E+03  0.47000000000E+01 0. -1.
        -13    1    4    4    0    0  0.10187618686E+03  0.30752747216E+01  0.19400768263E+03  0.21915107959E+03  0.00000000000E+00 0.  1.
         14    1    4    4    0    0  0.31609437182E+02  0.62333310003E+01  0.30198822301E+01  0.32359397754E+02  0.00000000000E+00 0. -1.
         -5    1    5    5    0  502  0.31488438978E+02  0.26806221289E+02  0.84008605050E+02  0.93753032012E+02  0.47000000000E+01 0.  1.
         13    1    6    6    0    0 -0.76935400837E+02  0.61682690702E+01  0.11125079731E+03  0.13540252341E+03  0.00000000000E+00 0. -1.
        -14    1    6    6    0    0 -0.67867820594E+02 -0.24569580923E+02  0.27608332500E+03  0.28536241469E+03  0.00000000000E+00 0.  1.
</event>
<event>
12    1  0.8691829E-002  0.2476589E+03  0.7818608E-02  0.1114877E+00
         21   -1    0    0  501  502  0.00000000000E+00  0.00000000000E+00  0.53358563672E+03  0.53358563672E+03  0.00000000000E+00 0.  1.
         21   -1    0    0  502  503 -0.00000000000E+00 -0.00000000000E+00 -0.13161117560E+03  0.13161117560E+03  0.00000000000E+00 0. -1.
         -6    2    1    2    0  503  0.17778741535E+03 -0.48371189250E+01  0.81969176305E+02  0.26087135857E+03  0.17234603878E+03 0.  0.
        -24    2    3    3    0    0  0.49466756456E+02 -0.21928049785E+02 -0.22360624690E+02  0.94543102426E+02  0.74233424535E+02 0.  0.
          6    2    1    2  501    0 -0.17778741535E+03  0.48371189250E+01  0.32000528482E+03  0.40432545375E+03  0.17159232926E+03 0.  0.
         24    2    5    5    0    0 -0.25356324249E+02  0.24037932712E+02  0.75650459381E+02  0.11564694832E+03  0.80190144417E+02 0.  0.
          5    1    5    5  501    0 -0.15243109110E+03 -0.19200813787E+02  0.24435482544E+03  0.28867850543E+03  0.47000000000E+01 0. -1.
        -13    1    6    6    0    0  0.13536552849E+00  0.45426271351E+02  0.67542453485E+02  0.81397466026E+02  0.00000000000E+00 0.  1.
         14    1    6    6    0    0 -0.25491689778E+02 -0.21388338640E+02  0.81080058964E+01  0.34249482289E+02  0.00000000000E+00 0. -1.
         -5    1    3    3    0  503  0.12832065890E+03  0.17090930860E+02  0.10432980100E+03  0.16632825615E+03  0.47000000000E+01 0.  1.
         11    1    4    4    0    0  0.18019570803E+02 -0.36479736052E+02 -0.38771717345E+02  0.56202510089E+02  0.00000000000E+00 0. -1.
        -12    1    4    4    0    0  0.31447185653E+02  0.14551686267E+02  0.16411092654E+02  0.38340592338E+02  0.00000000000E+00 0.  1.
</event>
<event>
12    1  0.8691829E-002  0.2105634E+03  0.7818608E-02  0.1141153E+00
         21   -1    0    0  503  502  0.00000000000E+00  0.00000000000E+00  0.86072043367E+03  0.86072043367E+03  0.00000000000E+00 0. -1.
         21   -1    0    0  501  503 -0.00000000000E+00 -0.00000000000E+00 -0.52723664140E+02  0.52723664140E+02  0.00000000000E+00 0. -1.
          6    2    1    2  501    0 -0.82729480556E+02 -0.89117428052E+02  0.33345557163E+03  0.39428487591E+03  0.17170283103E+03 0.  0.
         24    2    3    3    0    0 -0.24610464535E+02 -0.26627908718E+02  0.62757243889E+02  0.11041442184E+03  0.83295572531E+02 0.  0.
         -6    2    1    2    0  502  0.82729480556E+02  0.89117428052E+02  0.47454119790E+03  0.51915922190E+03  0.17190365396E+03 0.  0.
        -24    2    5    5    0    0  0.44246134202E+02 -0.32270701930E+01  0.11993645688E+03  0.15068251075E+03  0.79701511808E+02 0.  0.
          5    1    3    3  501    0 -0.58119016021E+02 -0.62489519334E+02  0.27069832774E+03  0.28387045407E+03  0.47000000000E+01 0. -1.
        -11    1    4    4    0    0 -0.25452206101E+02  0.24840785862E+02  0.10548026189E+02  0.37096364972E+02  0.00000000000E+00 0.  1.
         12    1    4    4    0    0  0.84174156629E+00 -0.51468694580E+02  0.52209217700E+02  0.73318056872E+02  0.00000000000E+00 0. -1.
         -5    1    5    5    0  502  0.38483346354E+02  0.92344498245E+02  0.35460474102E+03  0.36847671114E+03  0.47000000000E+01 0.  1.
         11    1    6    6    0    0 -0.97268840247E+01  0.27457079084E+02  0.38772975405E+02  0.48495846074E+02  0.00000000000E+00 0. -1.
        -12    1    6    6    0    0  0.53973018226E+02 -0.30684149277E+02  0.81163481473E+02  0.10218666468E+03  0.00000000000E+00 0.  1.
</event>
<event>
12    1  0.8691829E-002  0.2139256E+03  0.7818608E-02  0.1138603E+00
         21   -1    0    0  501  502  0.00000000000E+00  0.00000000000E+00  0.14033683145E+04  0.14033683145E+04  0.00000000000E+00 0. -1.
         21   -1    0    0  502  503 -0.00000000000E+00 -0.00000000000E+00 -0.41042864331E+02  0.41042864331E+02  0.00000000000E+00 0.  1.
         -6    2    1    2    0  503  0.12489192050E+03  0.15188907265E+02  0.35143922772E+03  0.41113720649E+03  0.17232404669E+03 0.  0.
        -24    2    3    3    0    0  0.10858323267E+03  0.69325750434E+01  0.36453347401E+03  0.38816571096E+03  0.77133562588E+02 0.  0.
          6    2    1    2  501    0 -0.12489192050E+03 -0.15188907265E+02  0.10108862224E+04  0.10332739723E+04  0.17301864776E+03 0.  0.
         24    2    5    5    0    0 -0.48969960657E+02 -0.70175261082E+02  0.46461487966E+03  0.47899776589E+03  0.79052191662E+02 0.  0.
          5    1    5    5  501    0 -0.75921959842E+02  0.54986353817E+02  0.54627134276E+03  0.55427620643E+03  0.47000000000E+01 0. -1.
        -13    1    6    6    0    0 -0.14175906606E+02  0.15969420178E+02  0.55493756935E+02  0.59460371405E+02  0.00000000000E+00 0.  1.
         14    1    6    6    0    0 -0.34794054051E+02 -0.86144681260E+02  0.40912112273E+03  0.41953739448E+03  0.00000000000E+00 0. -1.
         -5    1    3    3    0  503  0.16308687834E+02  0.82563322212E+01 -0.13094246295E+02  0.22971495525E+02  0.47000000000E+01 0.  1.
         13    1    4    4    0    0  0.65817226636E+02  0.38376720458E+02  0.25991211976E+03  0.27084864776E+03  0.00000000000E+00 0. -1.
        -14    1    4    4    0    0  0.42766006030E+02 -0.31444145415E+02  0.10462135425E+03  0.11731706320E+03  0.00000000000E+00 0.  1.
</event>
<event>
12    1  0.8691829E-002  0.1903225E+03  0.7818608E-02  0.1159726E+00
         21   -1    0    0  501  502  0.00000000000E+00  0.00000000000E+00  0.71528224680E+02  0.71528224680E+02  0.00000000000E+00 0.  1.
         21   -1    0    0  502  503 -0.00000000000E+00 -0.00000000000E+00 -0.77719141809E+03  0.77719141809E+03  0.00000000000E+00 0.  1.
         -6    2    1    2    0  503 -0.72064283142E+02 -0.55925295137E+01 -0.98260606919E+02  0.21419106531E+03  0.17606285326E+03 0.  0.
        -24    2    3    3    0    0  0.19694907320E+02 -0.35603608868E+02 -0.15029979328E+02  0.86637777283E+02  0.74997985541E+02 0.  0.
          6    2    1    2  501    0  0.72064283142E+02  0.55925295137E+01 -0.60740258649E+03  0.63452857746E+03  0.16871299962E+03 0.  0.
         24    2    5    5    0    0  0.17927232294E+02  0.36328468549E+02 -0.16561996552E+03  0.18835653394E+03  0.80044160401E+02 0.  0.
          5    1    5    5  501    0  0.54137050848E+02 -0.30735939035E+02 -0.44178262097E+03  0.44617204352E+03  0.47000000000E+01 0. -1.
        -11    1    6    6    0    0  0.58173319647E+01  0.59909907583E+02 -0.13528244622E+03  0.14806883073E+03  0.00000000000E+00 0.  1.
         12    1    6    6    0    0  0.12109900329E+02 -0.23581439034E+02 -0.30337519301E+02  0.40287703213E+02  0.00000000000E+00 0. -1.
         -5    1    3    3    0  503 -0.91759190463E+02  0.30011079355E+02 -0.83230627591E+02  0.12755328803E+03  0.47000000000E+01 0.  1.
         13    1    4    4    0    0  0.30885114227E+02  0.24519226701E+01 -0.31045198381E+02  0.43860079208E+02  0.00000000000E+00 0. -1.
        -14    1    4    4    0    0 -0.11190206907E+02 -0.38055531539E+02  0.16015219054E+02  0.42777698075E+02  0.00000000000E+00 0.  1.
</event>
<event>
12    1  0.8691829E-002  0.1754011E+03  0.7818608E-02  0.1172418E+00
         21   -1    0    0  501  502  0.00000000000E+00  0.00000000000E+00  0.21909410157E+03  0.21909410157E+03  0.00000000000E+00 0. -1.
         21   -1    0    0  502  503 -0.00000000000E+00 -0.00000000000E+00 -0.30875789984E+03  0.30875789984E+03  0.00000000000E+00 0.  1.
         -6    2    1    2    0  503 -0.43158304894E+02  0.87138587310E+01 -0.23985230260E+03  0.29693611164E+03  0.16942065021E+03 0.  0.
        -24    2    3    3    0    0  0.90641380927E+01 -0.51580240989E+02 -0.13597476057E+03  0.16588194059E+03  0.79278009818E+02 0.  0.
          6    2    1    2  501    0  0.43158304894E+02 -0.87138587310E+01  0.15018850434E+03  0.23091588977E+03  0.16978513097E+03 0.  0.
         24    2    5    5    0    0  0.15872624979E+02 -0.62411939793E+02  0.10605868436E+03  0.15609929235E+03  0.94717232287E+02 0.  0.
          5    1    5    5  501    0  0.27285679915E+02  0.53698081062E+02  0.44129819977E+02  0.74816597419E+02  0.47000000000E+01 0. -1.
        -11    1    6    6    0    0  0.44568614197E+02 -0.39628661962E+01  0.22256747641E+02  0.49974278338E+02  0.00000000000E+00 0.  1.
         12    1    6    6    0    0 -0.28695989217E+02 -0.58449073596E+02  0.83801936721E+02  0.10612501401E+03  0.00000000000E+00 0. -1.
         -5    1    3    3    0  503 -0.52222442987E+02  0.60294099720E+02 -0.10387754203E+03  0.13105417105E+03  0.47000000000E+01 0.  1.
         11    1    4    4    0    0 -0.34533334847E+02 -0.23916607327E+02 -0.75180550899E+02  0.86120093794E+02  0.00000000000E+00 0. -1.
        -12    1    4    4    0    0  0.43597472940E+02 -0.27663633662E+02 -0.60794209676E+02  0.79761846795E+02  0.00000000000E+00 0.  1.
</event>
<event>
12    1  0.8691829E-002  0.1906943E+03  0.7818608E-02  0.1158362E+00
         21   -1    0    0  503  502  0.00000000000E+00  0.00000000000E+00  0.68406947417E+02  0.68406947417E+02  0.00000000000E+00 0. -1.
         21   -1    0    0  501  503 -0.00000000000E+00 -0.00000000000E+00 -0.60129620599E+03  0.60129620599E+03  0.00000000000E+00 0.  1.
          6    2    1    2  501    0 -0.66562938140E+02 -0.40531623774E+02 -0.14869205876E+03  0.24181327302E+03  0.17404279190E+03 0.  0.
         24    2    3    3    0    0  0.26366526942E+02 -0.18826353826E+02 -0.10550186441E+03  0.13695867316E+03  0.81101229455E+02 0.  0.
         -6    2    1    2    0  502  0.66562938140E+02  0.40531623774E+02 -0.38419719982E+03  0.42788988039E+03  0.17149001176E+03 0.  0.
        -24    2    5    5    0    0  0.91572937441E+02  0.76163398697E+02 -0.28233348465E+03  0.31701413950E+03  0.81236087534E+02 0.  0.
          5    1    3    3  501    0 -0.92929465082E+02 -0.21705269947E+02 -0.43190194349E+02  0.10485459986E+03  0.47000000000E+01 0. -1.
        -11    1    4    4    0    0  0.54670695455E+02 -0.18808214847E+02 -0.59623210097E+02  0.83051556695E+02  0.00000000000E+00 0.  1.
         12    1    4    4    0    0 -0.28304168513E+02 -0.18138979108E-01 -0.45878654313E+02  0.53907116467E+02  0.00000000000E+00 0. -1.
         -5    1    5    5    0  502 -0.25009999301E+02 -0.35631774923E+02 -0.10186371517E+03  0.11087574088E+03  0.47000000000E+01 0.  1.
         13    1    6    6    0    0  0.11719700387E+02  0.24223832659E+02 -0.10350491538E+02  0.28831894162E+02  0.00000000000E+00 0. -1.
        -14    1    6    6    0    0  0.79853237054E+02  0.51939566037E+02 -0.27198299311E+03  0.28818224534E+03  0.00000000000E+00 0.  1.
</event>
<event>
12    1  0.8691829E-002  0.2141125E+03  0.7818608E-02  0.1138866E+00
         21   -1    0    0  501  502  0.00000000000E+00  0.00000000000E+00  0.46298277709E+02  0.46298277709E+02  0.00000000000E+00 0.  1.
         21   -1    0    0  502  503 -0.00000000000E+00 -0.00000000000E+00 -0.98876304271E+03  0.98876304271E+03  0.00000000000E+00 0.  1.
         -6    2    1    2    0  503 -0.41605803023E+02  0.11716715904E+03 -0.41420956824E+03  0.46506331381E+03  0.17104132081E+03 0.  0.
        -24    2    3    3    0    0  0.14141325887E+02  0.12528571839E+03 -0.34010547241E+03  0.37185837613E+03  0.81917221692E+02 0.  0.
          6    2    1    2  501    0  0.41605803023E+02 -0.11716715904E+03 -0.52825519676E+03  0.56999800661E+03  0.17431290438E+03 0.  0.
         24    2    5    5    0    0  0.91602339202E+02 -0.10099132289E+03 -0.34750174715E+03  0.38170246537E+03  0.79681063953E+02 0.  0.
          5    1    5    5  501    0 -0.49996536179E+02 -0.16175836158E+02 -0.18075344961E+03  0.18829554124E+03  0.47000000000E+01 0. -1.
        -13    1    6    6    0    0  0.65968902862E+02 -0.54911015748E+02 -0.29523141541E+03  0.30745520721E+03  0.00000000000E+00 0.  1.
         14    1    6    6    0    0  0.25633436340E+02 -0.46080307138E+02 -0.52270331745E+02  0.74247258167E+02  0.00000000000E+00 0. -1.
         -5    1    3    3    0  503 -0.55747128910E+02 -0.81185593418E+01 -0.74104095834E+02  0.93204937674E+02  0.47000000000E+01 0.  1.
         13    1    4    4    0    0  0.44992352325E+02  0.47416828655E+02 -0.12584119800E+03  0.14180505816E+03  0.00000000000E+00 0. -1.
        -14    1    4    4    0    0 -0.30851026439E+02  0.77868889731E+02 -0.21426427441E+03  0.23005331797E+03  0.00000000000E+00 0.  1.
</event>
<event>
12    1  0.8691829E-002  0.3043286E+03  0.7818608E-02  0.1083236E+00
         21   -1    0    0  503  502  0.00000000000E+00  0.00000000000E+00  0.71959905143E+03  0.71959905143E+03  0.00000000000E+00 0. -1.
         21   -1    0    0  501  503 -0.00000000000E+00 -0.00000000000E+00 -0.21821091214E+03  0.21821091214E+03  0.00000000000E+00 0. -1.
          6    2    1    2  501    0 -0.10634620558E+03 -0.22547502642E+03 -0.50144330695E+02  0.30843206429E+03  0.17454908020E+03 0.  0.
         24    2    3    3    0    0 -0.14570453771E+02 -0.12517347555E+03  0.26717021615E+02  0.15218563327E+03  0.81030677056E+02 0.  0.
         -6    2    1    2    0  502  0.10634620558E+03  0.22547502642E+03  0.55153246999E+03  0.62937789929E+03  0.17256874478E+03 0.  0.
        -24    2    5    5    0    0  0.12710638356E+03  0.23278099506E+03  0.53149375030E+03  0.59924482022E+03  0.79156323522E+02 0.  0.
          5    1    3    3  501    0 -0.91775751813E+02 -0.10030155087E+03 -0.76861352310E+02  0.15624643102E+03  0.47000000000E+01 0. -1.
        -13    1    4    4    0    0  0.22395964468E+02 -0.36160535785E+02  0.35500392582E+02  0.55402540070E+02  0.00000000000E+00 0.  1.
         14    1    4    4    0    0 -0.36966418239E+02 -0.89012939764E+02 -0.87833709668E+01  0.96783093195E+02  0.00000000000E+00 0. -1.
         -5    1    5    5    0  502 -0.20760177975E+02 -0.73059686330E+01  0.20038719691E+02  0.30133079067E+02  0.47000000000E+01 0.  1.
         13    1    6    6    0    0  0.68514854477E+02  0.13308624095E+03  0.38175503203E+03  0.41005260308E+03  0.00000000000E+00 0. -1.
        -14    1    6    6    0    0  0.58591529083E+02  0.99694754108E+02  0.14973871826E+03  0.18919221713E+03  0.00000000000E+00 0.  1.
</event>
<event>
12    1  0.8691829E-002  0.2639704E+03  0.7818608E-02  0.1104801E+00
         21   -1    0    0  503  502  0.00000000000E+00  0.00000000000E+00  0.57239467159E+03  0.57239467159E+03  0.00000000000E+00 0.  1.
         21   -1    0    0  501  503 -0.00000000000E+00 -0.00000000000E+00 -0.44292315668E+03  0.44292315668E+03  0.00000000000E+00 0. -1.
          6    2    1    2  501    0  0.19119998617E+03  0.59135650039E+02 -0.36760403543E+03  0.45256278455E+03  0.17212172228E+03 0.  0.
         24    2    3    3    0    0  0.12689742348E+03 -0.86327744810E+01 -0.30461051851E+03  0.33979021650E+03  0.80575072838E+02 0.  0.
         -6    2    1    2    0  502 -0.19119998617E+03 -0.59135650039E+02  0.49707555034E+03  0.56275504372E+03  0.17191473664E+03 0.  0.
        -24    2    5    5    0    0 -0.13769250610E+03 -0.54840238341E+02  0.21599344404E+03  0.27655451705E+03  0.88671049708E+02 0.  0.
          5    1    3    3  501    0  0.64302562694E+02  0.67768424520E+02 -0.62993516914E+02  0.11277256805E+03  0.47000000000E+01 0. -1.
        -13    1    4    4    0    0  0.31200517829E+02 -0.32703444593E+02 -0.14741942860E+03  0.15419298145E+03  0.00000000000E+00 0.  1.
         14    1    4    4    0    0  0.95696905649E+02  0.24070670112E+02 -0.15719108991E+03  0.18559723505E+03  0.00000000000E+00 0. -1.
         -5    1    5    5    0  502 -0.53507480073E+02 -0.42954116986E+01  0.28108210630E+03  0.28620052667E+03  0.47000000000E+01 0.  1.
         13    1    6    6    0    0  0.18858369821E+01 -0.15354917231E+02 -0.10443090941E+01  0.15505497276E+02  0.00000000000E+00 0. -1.
        -14    1    6    6    0    0 -0.13957834308E+03 -0.39485321110E+02  0.21703775313E+03  0.26104901977E+03  0.00000000000E+00 0.  1.
</event>
<event>
12    1  0.8691829E-002  0.2111789E+03  0.7818608E-02  0.1140728E+00
         21   -1    0    0  503  502  0.00000000000E+00  0.00000000000E+00  0.14059715981E+03  0.14059715981E+03  0.00000000000E+00 0. -1.
         21   -1    0    0  501  503 -0.00000000000E+00 -0.00000000000E+00 -0.35834432239E+03  0.35834432239E+03  0.00000000000E+00 0.  1.
          6    2    1    2  501    0 -0.12027712137E+03 -0.16194624310E+02 -0.19402279120E+03  0.28643411942E+03  0.17225216830E+03 0.  0.
         24    2    3    3    0    0 -0.20279717540E+02  0.32362820672E+02 -0.13221673651E+03  0.15915731623E+03  0.79944773368E+02 0.  0.
         -6    2    1    2    0  502  0.12027712137E+03  0.16194624310E+02 -0.23724371386E+02  0.21250736277E+03  0.17282268847E+03 0.  0.
        -24    2    5    5    0    0  0.12441171897E+03  0.54724074277E+02 -0.51240224671E+02  0.16474937293E+03  0.77741849302E+02 0.  0.
          5    1    3    3  501    0 -0.99997403833E+02 -0.48557444982E+02 -0.61806054685E+02  0.12727680320E+03  0.47000000000E+01 0. -1.
        -11    1    4    4    0    0 -0.41478180917E+02  0.17909732875E+02 -0.12437862442E+03  0.13233004284E+03  0.00000000000E+00 0.  1.
         12    1    4    4    0    0  0.21198463376E+02  0.14453087797E+02 -0.78381120902E+01  0.26827273390E+02  0.00000000000E+00 0. -1.
         -5    1    5    5    0  502 -0.41345975956E+01 -0.38529449967E+02  0.27515853284E+02  0.47757989844E+02  0.47000000000E+01 0.  1.
         13    1    6    6    0    0  0.86848833851E+02  0.83818042134E-01 -0.11925366880E+02  0.87663797214E+02  0.00000000000E+00 0. -1.
        -14    1    6    6    0    0  0.37562885118E+02  0.54640256235E+02 -0.39314857790E+02  0.77085575712E+02  0.00000000000E+00 0.  1.
</event>
<event>
12    1  0.8691829E-002  0.2123192E+03  0.7818608E-02  0.1140295E+00
         21   -1    0    0  503  502  0.00000000000E+00  0.00000000000E+00  0.24478903235E+03  0.24478903235E+03  0.00000000000E+00 0. -1.
         21   -1    0    0  501  503 -0.00000000000E+00 -0.00000000000E+00 -0.20958743752E+03  0.20958743752E+03  0.00000000000E+00 0. -1.
          6    2    1    2  501    0  0.11712767478E+03  0.23519549275E+02 -0.65125730840E+02  0.22208291036E+03  0.17552036025E+03 0.  0.
         24    2    3    3    0    0  0.14051102195E+03 -0.20216507478E+02 -0.43446973525E+02  0.16775352509E+03  0.78112426715E+02 0.  0.
         -6    2    1    2    0  502 -0.11712767478E+03 -0.23519549275E+02  0.10032732567E+03  0.23229355951E+03  0.17211235899E+03 0.  0.
        -24    2    5    5    0    0 -0.23237589990E+02 -0.66923805134E+02  0.32419793583E+02  0.10846787412E+03  0.75468241119E+02 0.  0.
          5    1    3    3  501    0 -0.23383347175E+02  0.43736056753E+02 -0.21678757315E+02  0.54329385273E+02  0.47000000000E+01 0. -1.
        -11    1    4    4    0    0  0.12775143849E+03 -0.16910438201E+02 -0.63574210594E+02  0.14369437431E+03  0.00000000000E+00 0.  1.
         12    1    4    4    0    0  0.12759583465E+02 -0.33060692773E+01  0.20127237069E+02  0.24059150781E+02  0.00000000000E+00 0. -1.
         -5    1    5    5    0  502 -0.93890084789E+02  0.43404255859E+02  0.67907532085E+02  0.12382568539E+03  0.47000000000E+01 0.  1.
         13    1    6    6    0    0  0.32749293525E+01 -0.17781231904E+02  0.47336210731E+02  0.50671631281E+02  0.00000000000E+00 0. -1.
        -14    1    6    6    0    0 -0.26512519342E+02 -0.49142573230E+02 -0.14916417149E+02  0.57796242837E+02  0.00000000000E+00 0.  1.
</event>
<event>
12    1  0.8691829E-002  0.1882417E+03  0.7818608E-02  0.1161015E+00
         21   -1    0    0  503  502  0.00000000000E+00  0.00000000000E+00  0.30818488776E+03  0.30818488776E+03  0.00000000000E+00 0.  1.
         21   -1    0    0  501  503 -0.00000000000E+00 -0.00000000000E+00 -0.12157090307E+03  0.12157090307E+03  0.00000000000E+00 0. -1.
          6    2    1    2  501    0 -0.64597237472E+02  0.17754179685E+02  0.33518253594E+02  0.18711767499E+03  0.17146876388E+03 0.  0.
         24    2    3    3    0    0 -0.60856386196E+02 -0.38982387047E+02  0.60189120217E+02  0.12413785998E+03  0.81020687773E+02 0.  0.
         -6    2    1    2    0  502  0.64597237472E+02 -0.17754179685E+02  0.15309573110E+03  0.24263811584E+03  0.17591741924E+03 0.  0.
        -24    2    5    5    0    0  0.95616867299E+02 -0.61404039733E+01  0.16622402486E+03  0.20670012316E+03  0.76903995992E+02 0.  0.
          5    1    3    3  501    0 -0.37408512752E+01  0.56736566732E+02 -0.26670866623E+02  0.62979815014E+02  0.47000000000E+01 0. -1.
        -13    1    4    4    0    0  0.13136442955E+01  0.11810553273E+02  0.39478856092E+02  0.41228569078E+02  0.00000000000E+00 0.  1.
         14    1    4    4    0    0 -0.62170030492E+02 -0.50792940320E+02  0.20710264126E+02  0.82909290902E+02  0.00000000000E+00 0. -1.
         -5    1    5    5    0  502 -0.31019629828E+02 -0.11613775712E+02 -0.13128293762E+02  0.35937992682E+02  0.47000000000E+01 0.  1.
         13    1    6    6    0    0  0.63449070512E+02 -0.17624218911E+02  0.42564293502E+02  0.78409927448E+02  0.00000000000E+00 0. -1.
        -14    1    6    6    0    0  0.32167796788E+02  0.11483814938E+02  0.12365973136E+03  0.12829019571E+03  0.00000000000E+00 0.  1.
</event>
<event>
12    1  0.8691829E-002  0.1745277E+03  0.7818608E-02  0.1174803E+00
         21   -1    0    0  503  502  0.00000000000E+00  0.00000000000E+00  0.14909682768E+04  0.14909682768E+04  0.00000000000E+00 0. -1.
         21   -1    0    0  501  503 -0.00000000000E+00 -0.00000000000E+00 -0.20392853506E+02  0.20392853506E+02  0.00000000000E+00 0. -1.
          6    2    1    2  501    0 -0.15489988876E+02 -0.14930799787E+02  0.86078515763E+03  0.87708668011E+03  0.16693438318E+03 0.  0.
         24    2    3    3    0    0  0.11385363796E+02  0.32733603521E+02  0.27221913805E+03  0.28596382542E+03  0.80442122193E+02 0.  0.
         -6    2    1    2    0  502  0.15489988876E+02  0.14930799787E+02  0.60979026564E+03  0.63427445018E+03  0.17319654020E+03 0.  0.
        -24    2    5    5    0    0 -0.34104257547E+02  0.51446231272E+02  0.26964369567E+03  0.28856540332E+03  0.82173318562E+02 0.  0.
          5    1    3    3  501    0 -0.26875352671E+02 -0.47664403308E+02  0.58856601959E+03  0.59112285469E+03  0.47000000000E+01 0. -1.
        -11    1    4    4    0    0 -0.27159798813E+02  0.16919977993E+02  0.46591024502E+02  0.56521357831E+02  0.00000000000E+00 0.  1.
         12    1    4    4    0    0  0.38545162609E+02  0.15813625528E+02  0.22562811355E+03  0.22944246759E+03  0.00000000000E+00 0. -1.
         -5    1    5    5    0  502  0.49594246422E+02 -0.36515431485E+02  0.34014656998E+03  0.34570904686E+03  0.47000000000E+01 0.  1.
         13    1    6    6    0    0 -0.31338149580E+02 -0.15514880876E+01  0.19181937543E+03  0.19436861765E+03  0.00000000000E+00 0. -1.
        -14    1    6    6    0    0 -0.27661079667E+01  0.52997719360E+02  0.77824320232E+02  0.94196785668E+02  0.00000000000E+00 0.  1.
</event>
<event>
12    1  0.8691829E-002  0.2229629E+03  0.7818608E-02  0.1131799E+00
         21   -1    0    0  503  502  0.00000000000E+00  0.00000000000E+00  0.62025919816E+03  0.62025919816E+03  0.00000000000E+00 0. -1.
         21   -1    0    0  501  503 -0.00000000000E+00 -0.00000000000E+00 -0.15823006369E+03  0.15823006369E+03  0.00000000000E+00 0. -1.
          6    2    1    2  501    0 -0.11092570317E+03 -0.88425190872E+02 -0.42632239759E+02  0.22700208940E+03  0.17201428638E+03 0.  0.
         24    2    3    3    0    0 -0.55357336253E+02  0.20985283886E+02 -0.26813874201E+02  0.10318445706E+03  0.80145065430E+02 0.  0.
         -6    2    1    2    0  502  0.11092570317E+03  0.88425190872E+02  0.50466137423E+03  0.55148717245E+03  0.17126433582E+03 0.  0.
        -24    2    5    5    0    0  0.12101135750E+03  0.17283660371E+02  0.38891030515E+03  0.41516682261E+03  0.78548020895E+02 0.  0.
          5    1    3    3  501    0 -0.55568366919E+02 -0.10941047476E+03 -0.15818365558E+02  0.12381763234E+03  0.47000000000E+01 0. -1.
        -13    1    4    4    0    0  0.15608513896E+02  0.22035814772E+00  0.11986429876E+02  0.19681177936E+02  0.00000000000E+00 0.  1.
         14    1    4    4    0    0 -0.70965850150E+02  0.20764925738E+02 -0.38800304077E+02  0.83503279126E+02  0.00000000000E+00 0. -1.
         -5    1    5    5    0  502 -0.10085654326E+02  0.71141530501E+02  0.11575106909E+03  0.13632034984E+03  0.47000000000E+01 0.  1.
         13    1    6    6    0    0 -0.79469319556E+01  0.73380119372E+01  0.73111687242E+02  0.73907502719E+02  0.00000000000E+00 0. -1.
        -14    1    6    6    0    0  0.12895828945E+03  0.99456484337E+01  0.31579861791E+03  0.34125931989E+03  0.00000000000E+00 0.  1.
</event>
<event>
12    1  0.8691829E-002  0.1951114E+03  0.7818608E-02  0.1154045E+00
         21   -1    0    0  501  502  0.00000000000E+00  0.00000000000E+00  0.19868311187E+04  0.19868311187E+04  0.00000000000E+00 0. -1.
         21   -1    0    0  502  503 -0.00000000000E+00 -0.00000000000E+00 -0.20900736219E+02  0.20900736219E+02  0.00000000000E+00 0.  1.
         -6    2    1    2    0  503  0.92047829917E+02 -0.12275880829E+02  0.12757033039E+04  0.12904579286E+04  0.17099487071E+03 0.  0.
        -24    2    3    3    0    0 -0.34796806475E+01  0.28383931873E+02  0.43061574706E+03  0.43900399898E+03  0.80478778165E+02 0.  0.
          6    2    1    2  501    0 -0.92047829917E+02  0.12275880829E+02  0.69022707855E+03  0.71727392623E+03  0.17159535263E+03 0.  0.
         24    2    5    5    0    0 -0.42465379965E+01  0.23921762741E+02  0.50839149671E+03  0.51495990732E+03  0.78303948769E+02 0.  0.
          5    1    5    5  501    0 -0.87801291920E+02 -0.11645881912E+02  0.18183558184E+03  0.20231401892E+03  0.47000000000E+01 0. -1.
        -13    1    6    6    0    0 -0.26730777632E+02  0.25165179480E+02  0.11065050843E+03  0.11658197008E+03  0.00000000000E+00 0.  1.
         14    1    6    6    0    0  0.22484239636E+02 -0.12434167385E+01  0.39774098828E+03  0.39837793723E+03  0.00000000000E+00 0. -1.
         -5    1    3    3    0  503  0.95527510564E+02 -0.40659812702E+02  0.84508755682E+03  0.85145392966E+03  0.47000000000E+01 0.  1.
         11    1    4    4    0    0  0.15989530469E+02  0.18542520463E+02  0.40331645425E+03  0.40405897146E+03  0.00000000000E+00 0. -1.
        -12    1    4    4    0    0 -0.19469211117E+02  0.98414114099E+01  0.27299292808E+02  0.34945027513E+02  0.00000000000E+00 0.  1.
</event>
<event>
12    1  0.8691829E-002  0.2129246E+03  0.7818608E-02  0.1139404E+00
         21   -1    0    0  503  502  0.00000000000E+00  0.00000000000E+00  0.19780051060E+03  0.19780051060E+03  0.00000000000E+00 0. -1.
         21   -1    0    0  501  503 -0.00000000000E+00 -0.00000000000E+00 -0.24729617513E+03  0.24729617513E+03  0.00000000000E+00 0.  1.
          6    2    1    2  501    0 -0.45266967699E+02 -0.11701605910E+03  0.36623540048E+02  0.21605134976E+03  0.17203210629E+03 0.  0.
         24    2    3    3    0    0 -0.21219468368E+02 -0.10309922443E+03  0.86980579751E+02  0.15834622036E+03  0.80175983511E+02 0.  0.
         -6    2    1    2    0  502  0.45266967699E+02  0.11701605910E+03 -0.86119204576E+02  0.22904533598E+03  0.17118233579E+03 0.  0.
        -24    2    5    5    0    0  0.42960092307E+02  0.51498735795E+02  0.16743543421E+02  0.10697700982E+03  0.81645851479E+02 0.  0.
          5    1    3    3  501    0 -0.24047499331E+02 -0.13916834662E+02 -0.50357039704E+02  0.57705129398E+02  0.47000000000E+01 0. -1.
        -11    1    4    4    0    0 -0.16239395138E+02 -0.88838063313E+02  0.23812023941E+02  0.93396637690E+02  0.00000000000E+00 0.  1.
         12    1    4    4    0    0 -0.49800732307E+01 -0.14261161121E+02  0.63168555810E+02  0.64949582670E+02  0.00000000000E+00 0. -1.
         -5    1    5    5    0  502  0.23068753925E+01  0.65517323301E+02 -0.10286274800E+03  0.12206832616E+03  0.47000000000E+01 0.  1.
         11    1    6    6    0    0  0.21769791891E+02  0.68734142965E+02  0.28118753619E+02  0.77388439403E+02  0.00000000000E+00 0. -1.
        -12    1    6    6    0    0  0.21190300416E+02 -0.17235407171E+02 -0.11375210199E+02  0.29588570414E+02  0.00000000000E+00 0.  1.
</event>
<event>
12    1  0.8691829E-002  0.2260669E+03  0.7818608E-02  0.1129492E+00
         21   -1    0    0  501  502  0.00000000000E+00  0.00000000000E+00  0.80278614916E+02  0.80278614916E+02  0.00000000000E+00 0. -1.
         21   -1    0    0  502  503 -0.00000000000E+00 -0.00000000000E+00 -0.89685168699E+03  0.89685168699E+03  0.00000000000E+00 0. -1.
         -6    2    1    2    0  503  0.11526174204E+03 -0.90617935188E+02 -0.67169329960E+03  0.70862257856E+03  0.17168922728E+03 0.  0.
        -24    2    3    3    0    0  0.92365402091E+02 -0.29189744547E+02 -0.59334526451E+03  0.60635738609E+03  0.78913041140E+02 0.  0.
          6    2    1    2  501    0 -0.11526174204E+03  0.90617935188E+02 -0.14487977247E+03  0.26850772334E+03  0.17207373323E+03 0.  0.
         24    2    5    5    0    0 -0.12620658379E+03  0.22958006693E+02 -0.12267328176E+03  0.19630748986E+03  0.83861341835E+02 0.  0.
          5    1    5    5  501    0  0.10944841756E+02  0.67659928495E+02 -0.22206490710E+02  0.72200233481E+02  0.47000000000E+01 0. -1.
        -13    1    6    6    0    0 -0.75598696349E+02  0.16756520643E+02 -0.12297158644E+03  0.14532018079E+03  0.00000000000E+00 0.  1.
         14    1    6    6    0    0 -0.50607887442E+02  0.62014860498E+01  0.29830467777E+00  0.50987309071E+02  0.00000000000E+00 0. -1.
         -5    1    3    3    0  503  0.22896339944E+02 -0.61428190642E+02 -0.78348035089E+02  0.10226519247E+03  0.47000000000E+01 0.  1.
         13    1    4    4    0    0  0.98237578180E+02 -0.22585903307E+02 -0.38986489873E+03  0.40268521708E+03  0.00000000000E+00 0. -1.
        -14    1    4    4    0    0 -0.58721760892E+01 -0.66038412393E+01 -0.20348036578E+03  0.20367216901E+03  0.00000000000E+00 0.  1.
</event>
<event>
12    1  0.8691829E-002  0.1804037E+03  0.7818608E-02  0.1168074E+00
         21   -1    0    0  501  502  0.00000000000E+00  0.00000000000E+00  0.18442084800E+03  0.18442084800E+03  0.00000000000E+00 0.  1.
         21   -1    0    0  502  503 -0.00000000000E+00 -0.00000000000E+00 -0.18213691722E+03  0.18213691722E+03  0.00000000000E+00 0.  1.
         -6    2    1    2    0  503 -0.32897979603E+02  0.28636315929E+02  0.40284773754E+02  0.18219518333E+03  0.17224954625E+03 0.  0.
        -24    2    3    3    0    0 -0.38537194281E+02  0.82717084641E+02  0.20569447465E+02  0.12416661815E+03  0.81651793974E+02 0.  0.
          6    2    1    2  501    0  0.32897979603E+02 -0.28636315929E+02 -0.38000842983E+02  0.18436258189E+03  0.17505194052E+03 0.  0.
         24    2    5    5    0    0  0.76041227344E+02  0.18660074128E+02 -0.44724349107E+02  0.11982124728E+03  0.78907523562E+02 0.  0.
          5    1    5    5  501    0 -0.43143247741E+02 -0.47296390056E+02  0.67235061247E+01  0.64541334605E+02  0.47000000000E+01 0. -1.
        -13    1    6    6    0    0 -0.12352885284E+02  0.14932622309E+02 -0.20242373384E+02  0.28023751784E+02  0.00000000000E+00 0.  1.
         14    1    6    6    0    0  0.88394112627E+02  0.37274518190E+01 -0.24481975724E+02  0.91797495497E+02  0.00000000000E+00 0. -1.
         -5    1    3    3    0  503  0.56392146783E+01 -0.54080768712E+02  0.19715326289E+02  0.58028565184E+02  0.47000000000E+01 0.  1.
         13    1    4    4    0    0 -0.54847344647E+00  0.66646779184E+02 -0.16552753366E+02  0.68673776965E+02  0.00000000000E+00 0. -1.
        -14    1    4    4    0    0 -0.37988720835E+02  0.16070305457E+02  0.37122200831E+02  0.55492841184E+02  0.00000000000E+00 0.  1.
</event>
<event>
12    1  0.8691829E-002  0.1917262E+03  0.7818608E-02  0.1157038E+00
         21   -1    0    0  503  502  0.00000000000E+00  0.00000000000E+00  0.29710895816E+03  0.29710895816E+03  0.00000000000E+00 0. -1.
         21   -1    0    0  501  503 -0.00000000000E+00 -0.00000000000E+00 -0.28133245110E+03  0.28133245110E+03  0.00000000000E+00 0. -1.
          6    2    1    2  501    0  0.48263079078E+02 -0.70898868466E+02 -0.20882971192E+03  0.28349386885E+03  0.17147288632E+03 0.  0.
         24    2    3    3    0    0  0.56450635100E+02 -0.98863281128E+02 -0.10298266147E+03  0.17360878097E+03  0.81079946401E+02 0.  0.
         -6    2    1    2    0  502 -0.48263079078E+02  0.70898868466E+02  0.22460621898E+03  0.29494754042E+03  0.17085117395E+03 0.  0.
        -24    2    5    5    0    0 -0.45474727792E+02 -0.39938958145E+01  0.60283466881E+02  0.11428000625E+03  0.85685012558E+02 0.  0.
          5    1    3    3  501    0 -0.81875560217E+01  0.27964412662E+02 -0.10584705045E+03  0.10988508788E+03  0.47000000000E+01 0. -1.
        -11    1    4    4    0    0 -0.89271081620E+01 -0.44726047106E+02 -0.81404551173E+01  0.46329035813E+02  0.00000000000E+00 0.  1.
         12    1    4    4    0    0  0.65377743262E+02 -0.54137234021E+02 -0.94842206355E+02  0.12727974516E+03  0.00000000000E+00 0. -1.
         -5    1    5    5    0  502 -0.27883512867E+01  0.74892764280E+02  0.16432275210E+03  0.18066753417E+03  0.47000000000E+01 0.  1.
         11    1    6    6    0    0 -0.67398760687E+02  0.10383524068E+02  0.54825815597E+02  0.87500174686E+02  0.00000000000E+00 0. -1.
        -12    1    6    6    0    0  0.21924032896E+02 -0.14377419883E+02  0.54576512849E+01  0.26779831561E+02  0.00000000000E+00 0.  1.
</event>
<event>
12    1  0.8691829E-002  0.2194162E+03  0.7818608E-02  0.1134595E+00
         21   -1    0    0  501  502  0.00000000000E+00  0.00000000000E+00  0.12462149007E+03  0.12462149007E+03  0.00000000000E+00 0.  1.
         21   -1    0    0  502  503 -0.00000000000E+00 -0.00000000000E+00 -0.87353282409E+03  0.87353282409E+03  0.00000000000E+00 0.  1.
         -6    2    1    2    0  503 -0.11939657944E+03  0.63847921944E+02 -0.74871723135E+03  0.78020571819E+03  0.17265969378E+03 0.  0.
        -24    2    3    3    0    0 -0.12127521932E+03  0.96710345814E+02 -0.50775020332E+03  0.53695550382E+03  0.80314222338E+02 0.  0.
          6    2    1    2  501    0  0.11939657944E+03 -0.63847921944E+02 -0.19410266903E+00  0.21794859597E+03  0.17079066863E+03 0.  0.
         24    2    5    5    0    0  0.17962707704E+02 -0.75000623646E+02  0.20628530945E+02  0.11369465043E+03  0.80951743842E+02 0.  0.
          5    1    5    5  501    0  0.10143387174E+03  0.11152701701E+02 -0.20822633614E+02  0.10425394554E+03  0.47000000000E+01 0. -1.
        -13    1    6    6    0    0  0.41730154915E+02 -0.51229687698E+02 -0.11647090063E+02  0.67093527540E+02  0.00000000000E+00 0.  1.
         14    1    6    6    0    0 -0.23767447211E+02 -0.23770935947E+02  0.32275621008E+02  0.46601122885E+02  0.00000000000E+00 0. -1.
         -5    1    3    3    0  503  0.18786398748E+01 -0.32862423870E+02 -0.24096702803E+03  0.24325021436E+03  0.47000000000E+01 0.  1.
         11    1    4    4    0    0  0.88662124212E+00 -0.23468567855E+01  0.21790494111E+01  0.33229640887E+01  0.00000000000E+00 0. -1.
        -12    1    4    4    0    0 -0.12216184056E+03  0.99057202600E+02 -0.50992925273E+03  0.53363253974E+03  0.00000000000E+00 0.  1.
</event>
<event>
12    1  0.8691829E-002  0.1844529E+03  0.7818608E-02  0.1163750E+00
         21   -1    0    0  501  502  0.00000000000E+00  0.00000000000E+00  0.17497986697E+03  0.17497986697E+03  0.00000000000E+00 0.  1.
         21   -1    0    0  502  503 -0.00000000000E+00 -0.00000000000E+00 -0.19365656649E+03  0.19365656649E+03  0.00000000000E+00 0.  1.
         -6    2    1    2    0  503  0.34557329051E+02 -0.55592350496E+02 -0.12626096895E+02  0.18488449612E+03  0.17244749972E+03 0.  0.
        -24    2    3    3    0    0  0.50336481159E+02  0.47097485681E+01 -0.53426735165E+02  0.11023794981E+03  0.82109965788E+02 0.  0.
          6    2    1    2  501    0 -0.34557329051E+02  0.55592350496E+02 -0.60506026215E+01  0.18375193734E+03  0.17159092709E+03 0.  0.
         24    2    5    5    0    0  0.81197882336E+01  0.54770603491E+02 -0.61061340354E+02  0.11396452534E+03  0.78699909674E+02 0.  0.
          5    1    5    5  501    0 -0.42677117285E+02  0.82174700467E+00  0.55010737732E+02  0.69787412000E+02  0.47000000000E+01 0. -1.
        -13    1    6    6    0    0  0.42675298557E+02  0.32529960337E+02 -0.24613106890E+02  0.59035450851E+02  0.00000000000E+00 0.  1.
         14    1    6    6    0    0 -0.34555510324E+02  0.22240643155E+02 -0.36448233464E+02  0.54929074490E+02  0.00000000000E+00 0. -1.
         -5    1    3    3    0  503 -0.15779152108E+02 -0.60302099064E+02  0.40800638269E+02  0.74646546310E+02  0.47000000000E+01 0.  1.
         11    1    4    4    0    0 -0.17941003064E+02  0.11946244536E+01  0.67033487875E+01  0.19189622286E+02  0.00000000000E+00 0. -1.
        -12    1    4    4    0    0  0.68277484223E+02  0.35151241145E+01 -0.60130083952E+02  0.91048327527E+02  0.00000000000E+00 0.  1.
</event>
<event>
12    1  0.8691829E-002  0.2696370E+03  0.7818608E-02  0.1101869E+00
         21   -1    0    0  501  502  0.00000000000E+00  0.00000000000E+00  0.26403853876E+03  0.26403853876E+03  0.00000000000E+00 0. -1.
         21   -1    0    0  502  503 -0.00000000000E+00 -0.00000000000E+00 -0.42681415022E+03  0.42681415022E+03  0.00000000000E+00 0.  1.
         -6    2    1    2    0  503 -0.29705610894E+01  0.20790614008E+03 -0.28923763881E+03  0.39542701927E+03  0.17166924172E+03 0.  0.
        -24    2    3    3    0    0  0.55228233273E+02  0.17144850621E+03 -0.18486920036E+03  0.27040254296E+03  0.80598796312E+02 0.  0.
          6    2    1    2  501    0  0.29705610894E+01 -0.20790614008E+03  0.12646202735E+03  0.29542566971E+03  0.16748102772E+03 0.  0.
         24    2    5    5    0    0  0.49624941740E+02 -0.18345204209E+03  0.13102704955E+03  0.24234494279E+03  0.73794965913E+02 0.  0.
          5    1    5    5  501    0 -0.46654380650E+02 -0.24454097987E+02 -0.45650222013E+01  0.53080726916E+02  0.47000000000E+01 0. -1.
        -11    1    6    6    0    0  0.79429621616E+01 -0.64321705707E+01 -0.83657478539E+01  0.13207921990E+02  0.00000000000E+00 0.  1.
         12    1    6    6    0    0  0.41681979578E+02 -0.17701987152E+03  0.13939279741E+03  0.22913702080E+03  0.00000000000E+00 0. -1.
         -5    1    3    3    0  503 -0.58198794363E+02  0.36457633867E+02 -0.10436843845E+03  0.12502447631E+03  0.47000000000E+01 0.  1.
         13    1    4    4    0    0  0.41136220193E+02  0.11407963995E+03 -0.66973335423E+02  0.13853440194E+03  0.00000000000E+00 0. -1.
        -14    1    4    4    0    0  0.14092013080E+02  0.57368866266E+02 -0.11789586493E+03  0.13186814103E+03  0.00000000000E+00 0.  1.
</event>
<event>
12    1  0.8691829E-002  0.1731039E+03  0.7818608E-02  0.1174728E+00
         21   -1    0    0  501  502  0.00000000000E+00  0.00000000000E+00  0.31939912634E+03  0.31939912634E+03  0.00000000000E+00 0. -1.
         21   -1    0    0  502  503 -0.00000000000E+00 -0.00000000000E+00 -0.10097819332E+03  0.10097819332E+03  0.00000000000E+00 0. -1.
         -6    2    1    2    0  503  0.14049405199E+02 -0.63351123274E+01  0.16574776710E+03  0.23943693787E+03  0.17210521631E+03 0.  0.
        -24    2    3    3    0    0  0.24436267077E+02  0.51423848472E+02  0.45264231982E+02  0.10533862808E+03  0.76196013865E+02 0.  0.
          6    2    1    2  501    0 -0.14049405199E+02  0.63351123274E+01  0.52673165912E+02  0.18094038179E+03  0.17241647230E+03 0.  0.
         24    2    5    5    0    0  0.18596068111E+02  0.65395255603E+01 -0.34660149574E+02  0.87586395765E+02  0.77983790693E+02 0.  0.
          5    1    5    5  501    0 -0.32645473310E+02 -0.20441323289E+00  0.87333315486E+02  0.93353986022E+02  0.47000000000E+01 0. -1.
        -11    1    6    6    0    0 -0.13571422505E+02  0.27224646574E+02 -0.38593017461E+02  0.49140470965E+02  0.00000000000E+00 0.  1.
         12    1    6    6    0    0  0.32167490617E+02 -0.20685121014E+02  0.39328678862E+01  0.38445924800E+02  0.00000000000E+00 0. -1.
         -5    1    3    3    0  503 -0.10386861878E+02 -0.57758960799E+02  0.12048353512E+03  0.13409830979E+03  0.47000000000E+01 0.  1.
         13    1    4    4    0    0  0.20464503208E+02 -0.60358683782E+01 -0.11697489734E+02  0.24332259754E+02  0.00000000000E+00 0. -1.
        -14    1    4    4    0    0  0.39717638685E+01  0.57459716850E+02  0.56961721717E+02  0.81006368328E+02  0.00000000000E+00 0.  1.
</event>
<event>
12    1  0.8691829E-002  0.2042220E+03  0.7818608E-02  0.1146557E+00
         21   -1    0    0  501  502  0.00000000000E+00  0.00000000000E+00  0.73229996894E+03  0.73229996894E+03  0.00000000000E+00 0.  1.
         21   -1    0    0  502  503 -0.00000000000E+00 -0.00000000000E+00 -0.28978534942E+03  0.28978534942E+03  0.00000000000E+00 0.  1.
         -6    2    1    2    0  503  0.10480206090E+03  0.29189519547E+02 -0.23709116582E+03  0.31291985026E+03  0.17283261195E+03 0.  0.
        -24    2    3    3    0    0  0.12610034403E+03  0.22125156681E+02 -0.12062620278E+03  0.19421980939E+03  0.82339748832E+02 0.  0.
          6    2    1    2  501    0 -0.10480206090E+03 -0.29189519547E+02  0.67960578534E+03  0.70916546810E+03  0.17092728766E+03 0.  0.
         24    2    5    5    0    0 -0.12990891447E+03 -0.56699403518E+02  0.46828685828E+03  0.49453805432E+03  0.72001091114E+02 0.  0.
          5    1    5    5  501    0  0.25106853564E+02  0.27509883971E+02  0.21131892706E+03  0.21462741378E+03  0.47000000000E+01 0. -1.
        -13    1    6    6    0    0 -0.68692927284E+02  0.69161264703E+01  0.17075638519E+03  0.18418548843E+03  0.00000000000E+00 0.  1.
         14    1    6    6    0    0 -0.61215987182E+02 -0.63615529988E+02  0.29753047309E+03  0.31035256590E+03  0.00000000000E+00 0. -1.
         -5    1    3    3    0  503 -0.21298283129E+02  0.70643628659E+01 -0.11646496304E+03  0.11870004087E+03  0.47000000000E+01 0.  1.
         11    1    4    4    0    0  0.44311480787E+02 -0.29196101202E+01  0.22937596609E+01  0.44466760464E+02  0.00000000000E+00 0. -1.
        -12    1    4    4    0    0  0.81788863245E+02  0.25044766801E+02 -0.12291996244E+03  0.14975304892E+03  0.00000000000E+00 0.  1.
</event>
<event>
12    1  0.8691829E-002  0.2359720E+03  0.7818608E-02  0.1122583E+00
         21   -1    0    0  501  502  0.00000000000E+00  0.00000000000E+00  0.33922790888E+03  0.33922790888E+03  0.00000000000E+00 0. -1.
         21   -1    0    0  502  503 -0.00000000000E+00 -0.00000000000E+00 -0.16382976109E+03  0.16382976109E+03  0.00000000000E+00 0.  1.
         -6    2    1    2    0  503  0.38223778857E+02 -0.15661969705E+03  0.86977147851E+02  0.25149121444E+03  0.17231372527E+03 0.  0.
        -24    2    3    3    0    0  0.80351242265E+02 -0.14702480280E+03  0.94280824239E+02  0.20742060226E+03  0.77857675600E+02 0.  0.
          6    2    1    2  501    0 -0.38223778857E+02  0.15661969705E+03  0.88420999939E+02  0.25156645553E+03  0.17168756957E+03 0.  0.
         24    2    5    5    0    0  0.11051616075E+02  0.16258060994E+03  0.57879761352E+02  0.19309890656E+03  0.85921638700E+02 0.  0.
          5    1    5    5  501    0 -0.49275394932E+02 -0.59609128837E+01  0.30541238587E+02  0.58467548970E+02  0.47000000000E+01 0. -1.
        -11    1    6    6    0    0 -0.26770360117E+02  0.13126295568E+03  0.32625718296E+02  0.13788057590E+03  0.00000000000E+00 0.  1.
         12    1    6    6    0    0  0.37821976192E+02  0.31317654253E+02  0.25254043056E+02  0.55218330667E+02  0.00000000000E+00 0. -1.
         -5    1    3    3    0  503 -0.42127463407E+02 -0.95948942483E+01 -0.73036763878E+01  0.44070612176E+02  0.47000000000E+01 0.  1.
         13    1    4    4    0    0  0.50964295342E+02 -0.52138278451E+02  0.37230499347E+01  0.73004250427E+02  0.00000000000E+00 0. -1.
        -14    1    4    4    0    0  0.29386946922E+02 -0.94886524353E+02  0.90557774305E+02  0.13441635183E+03  0.00000000000E+00 0.  1.
</event>
<event>
12    1  0.8691829E-002  0.1950781E+03  0.7818608E-02  0.1154451E+00
         21   -1    0    0  501  502  0.00000000000E+00  0.00000000000E+00  0.26619126968E+03  0.26619126968E+03  0.00000000000E+00 0. -1.
         21   -1    0    0  502  503 -0.00000000000E+00 -0.00000000000E+00 -0.13803815425E+04  0.13803815425E+04  0.00000000000E+00 0. -1.
         -6    2    1    2    0  503  0.40032967060E+01  0.87402862989E+02 -0.13367686217E+04  0.13506056371E+04  0.17184281242E+03 0.  0.
        -24    2    3    3    0    0 -0.29059544427E+02  0.53633262928E+02 -0.12204894096E+04  0.12250011685E+04  0.85513040019E+02 0.  0.
          6    2    1    2  501    0 -0.40032967060E+01 -0.87402862989E+02  0.22257834880E+03  0.29596717516E+03  0.17435641823E+03 0.  0.
         24    2    5    5    0    0  0.26010036312E+02 -0.12246339795E+03  0.17243021875E+03  0.22765197761E+03  0.80121387559E+02 0.  0.
          5    1    5    5  501    0 -0.30013333018E+02  0.35060534957E+02  0.50148130042E+02  0.68315197556E+02  0.47000000000E+01 0. -1.
        -13    1    6    6    0    0  0.47226200432E+02 -0.41383109982E+02  0.55606569956E+02  0.83874706684E+02  0.00000000000E+00 0.  1.
         14    1    6    6    0    0 -0.21216164120E+02 -0.81080287963E+02  0.11682364880E+03  0.14377727093E+03  0.00000000000E+00 0. -1.
         -5    1    3    3    0  503  0.33062841133E+02  0.33769600060E+02 -0.11627921208E+03  0.12560446853E+03  0.47000000000E+01 0.  1.
         13    1    4    4    0    0 -0.80681352708E+01  0.51273534289E+02 -0.11554965659E+04  0.11566617413E+04  0.00000000000E+00 0. -1.
        -14    1    4    4    0    0 -0.20991409156E+02  0.23597286396E+01 -0.64992843717E+02  0.68339427215E+02  0.00000000000E+00 0.  1.
</event>
<event>
12    1  0.8691829E-002  0.1986332E+03  0.7818608E-02  0.1151178E+00
         21   -1    0    0  503  502  0.00000000000E+00  0.00000000000E+00  0.10709275422E+03  0.10709275422E+03  0.00000000000E+00 0.  1.
         21   -1    0    0  501  503 -0.00000000000E+00 -0.00000000000E+00 -0.63967299325E+03  0.63967299325E+03  0.00000000000E+00 0.  1.
          6    2    1    2  501    0 -0.79217816327E+02 -0.54640008737E+02 -0.21551130462E+02  0.19849035277E+03  0.17225845680E+03 0.  0.
         24    2    3    3    0    0 -0.34540281237E+01  0.56404768553E+01  0.29301835893E+02  0.89028017999E+02  0.83807190101E+02 0.  0.
         -6    2    1    2    0  502  0.79217816327E+02  0.54640008737E+02 -0.51102910857E+03  0.54827539470E+03  0.17376468469E+03 0.  0.
        -24    2    5    5    0    0 -0.52508327868E+01  0.70511379964E+02 -0.27225281363E+03  0.29445840919E+03  0.87090379853E+02 0.  0.
          5    1    3    3  501    0 -0.75763788203E+02 -0.60280485593E+02 -0.50852966355E+02  0.10946233477E+03  0.47000000000E+01 0. -1.
        -13    1    4    4    0    0 -0.31390644507E+02  0.82867901412E+01  0.46053298818E+02  0.56346692764E+02  0.00000000000E+00 0.  1.
         14    1    4    4    0    0  0.27936616383E+02 -0.26463132860E+01 -0.16751462925E+02  0.32681325235E+02  0.00000000000E+00 0. -1.
         -5    1    5    5    0  502  0.84468649114E+02 -0.15871371227E+02 -0.23877629495E+03  0.25381698552E+03  0.47000000000E+01 0.  1.
         13    1    6    6    0    0  0.39379436214E+00 -0.17214865599E+02 -0.15846273510E+02  0.23401090909E+02  0.00000000000E+00 0. -1.
        -14    1    6    6    0    0 -0.56446271490E+01  0.87726245563E+02 -0.25640654012E+03  0.27105731828E+03  0.00000000000E+00 0.  1.
</event>
<event>
12    1  0.8691829E-002  0.2326885E+03  0.7818608E-02  0.1124764E+00
         21   -1    0    0  501  502  0.00000000000E+00  0.00000000000E+00  0.16023025570E+03  0.16023025570E+03  0.00000000000E+00 0.  1.
         21   -1    0    0  502  503 -0.00000000000E+00 -0.00000000000E+00 -0.50409856108E+03  0.50409856108E+03  0.00000000000E+00 0. -1.
         -6    2    1    2    0  503  0.70428355311E+01 -0.15632812126E+03 -0.36266551403E+03  0.43089465168E+03  0.17220871857E+03 0.  0.
        -24    2    3    3    0    0 -0.19404396907E+02 -0.17772657491E+03 -0.29279234219E+03  0.35303773120E+03  0.83336774365E+02 0.  0.
          6    2    1    2  501    0 -0.70428355311E+01  0.15632812126E+03  0.18797208648E+02  0.23343416510E+03  0.17219201884E+03 0.  0.
         24    2    5    5    0    0  0.56067479929E+02  0.78399405166E+02  0.34439848908E+02  0.13183407207E+03  0.83090855870E+02 0.  0.
          5    1    5    5  501    0 -0.63110315460E+02  0.77928716091E+02 -0.15642640260E+02  0.10160009303E+03  0.47000000000E+01 0. -1.
        -11    1    6    6    0    0  0.38620707596E+02  0.73611004194E+01  0.42907528482E+02  0.58196227154E+02  0.00000000000E+00 0.  1.
         12    1    6    6    0    0  0.17446772333E+02  0.71038304747E+02 -0.84676795739E+01  0.73637844914E+02  0.00000000000E+00 0. -1.
         -5    1    3    3    0  503  0.26447232438E+02  0.21398453652E+02 -0.69873171846E+02  0.77856920477E+02  0.47000000000E+01 0.  1.
         13    1    4    4    0    0 -0.36216962043E+02 -0.13148621112E+03 -0.15362402055E+03  0.20542792347E+03  0.00000000000E+00 0. -1.
        -14    1    4    4    0    0  0.16812565136E+02 -0.46240363794E+02 -0.13916832164E+03  0.14760980773E+03  0.00000000000E+00 0.  1.
</event>
<event>
12    1  0.8691829E-002  0.2717937E+03  0.7818608E-02  0.1100407E+00
         21   -1    0    0  501  502  0.00000000000E+00  0.00000000000E+00  0.38798523156E+03  0.38798523156E+03  0.00000000000E+00 0. -1.
         21   -1    0    0  502  503 -0.00000000000E+00 -0.00000000000E+00 -0.20343763189E+03  0.20343763189E+03  0.00000000000E+00 0. -1.
         -6    2    1    2    0  503 -0.17059341234E+03  0.11987938460E+03  0.15160748377E+02  0.27116713873E+03  0.17270955286E+03 0.  0.
        -24    2    3    3    0    0 -0.19141243493E+03  0.12060708250E+03  0.34570822173E+02  0.24230882605E+03  0.79584149430E+02 0.  0.
          6    2    1    2  501    0  0.17059341234E+03 -0.11987938460E+03  0.16938685129E+03  0.32025572473E+03  0.17435207095E+03 0.  0.
         24    2    5    5    0    0  0.10860453662E+03 -0.98756349323E+02  0.35284201426E+02  0.17094258387E+03  0.80178739097E+02 0.  0.
          5    1    5    5  501    0  0.61988875716E+02 -0.21123035273E+02  0.13410264987E+03  0.14931314086E+03  0.47000000000E+01 0. -1.
        -11    1    6    6    0    0  0.60919400305E+02 -0.20624811824E+02 -0.15648862254E+02  0.66192470011E+02  0.00000000000E+00 0.  1.
         12    1    6    6    0    0  0.47685136314E+02 -0.78131537499E+02  0.50933063679E+02  0.10475011386E+03  0.00000000000E+00 0. -1.
         -5    1    3    3    0  503  0.20819022592E+02 -0.72769790855E+00 -0.19410073795E+02  0.28858312679E+02  0.47000000000E+01 0.  1.
         13    1    4    4    0    0 -0.11651009125E+03  0.10677013560E+03 -0.14765343273E+01  0.15804000561E+03  0.00000000000E+00 0. -1.
        -14    1    4    4    0    0 -0.74902343679E+02  0.13836946908E+02  0.36047356500E+02  0.84268820444E+02  0.00000000000E+00 0.  1.
</event>
<event>
12    1  0.8691829E-002  0.2572781E+03  0.7818608E-02  0.1108930E+00
         21   -1    0    0  503  502  0.00000000000E+00  0.00000000000E+00  0.10978076721E+04  0.10978076721E+04  0.00000000000E+00 0.  1.
         21   -1    0    0  501  503 -0.00000000000E+00 -0.00000000000E+00 -0.10007335615E+03  0.10007335615E+03  0.00000000000E+00 0.  1.
          6    2    1    2  501    0 -0.12590128796E+03  0.14290141963E+03  0.12076652263E+03  0.28421223513E+03  0.17297425117E+03 0.  0.
         24    2    3    3    0    0 -0.13121959744E+03  0.13177265974E+03  0.15016263669E+03  0.25198871523E+03  0.79792722339E+02 0.  0.
         -6    2    1    2    0  502  0.12590128796E+03 -0.14290141963E+03  0.87696779336E+03  0.91366879316E+03  0.17159895966E+03 0.  0.
        -24    2    5    5    0    0  0.10153413679E+03 -0.73687444608E+02  0.76712991611E+03  0.78149170863E+03  0.80634744674E+02 0.  0.
          5    1    3    3  501    0  0.53183094774E+01  0.11128759889E+02 -0.29396114067E+02  0.32223519898E+02  0.47000000000E+01 0. -1.
        -13    1    4    4    0    0 -0.11009015756E+03  0.55688789408E+02  0.93399028145E+02  0.15473998357E+03  0.00000000000E+00 0.  1.
         14    1    4    4    0    0 -0.21129439880E+02  0.76083870327E+02  0.56763608548E+02  0.97248731657E+02  0.00000000000E+00 0. -1.
         -5    1    5    5    0  502  0.24367151170E+02 -0.69213975017E+02  0.10983787726E+03  0.13217708453E+03  0.47000000000E+01 0.  1.
         13    1    6    6    0    0  0.23167295135E+02 -0.60013483288E+02  0.24353679314E+03  0.25188987942E+03  0.00000000000E+00 0. -1.
        -14    1    6    6    0    0  0.78366841657E+02 -0.13673961320E+02  0.52359312297E+03  0.52960182921E+03  0.00000000000E+00 0.  1.
</event>
<event>
12    1  0.8691829E-002  0.1962920E+03  0.7818608E-02  0.1153543E+00
         21   -1    0    0  503  502  0.00000000000E+00  0.00000000000E+00  0.22381774054E+03  0.22381774054E+03  0.00000000000E+00 0.  1.
         21   -1    0    0  501  503 -0.00000000000E+00 -0.00000000000E+00 -0.76003348410E+03  0.76003348410E+03  0.00000000000E+00 0.  1.
          6    2    1    2  501    0  0.68156144434E+02 -0.62970570645E+02 -0.70123693594E+03  0.72740911392E+03  0.16964735747E+03 0.  0.
         24    2    3    3    0    0 -0.10405991742E+02 -0.22799334533E+01 -0.44868206767E+03  0.45600275038E+03  0.80681024697E+02 0.  0.
         -6    2    1    2    0  502 -0.68156144434E+02  0.62970570645E+02  0.16502119238E+03  0.25644211072E+03  0.17297401372E+03 0.  0.
        -24    2    5    5    0    0  0.81487652749E+01  0.75195386666E+02  0.60694569250E+02  0.12652667797E+03  0.81267588559E+02 0.  0.
          5    1    3    3  501    0  0.78562136176E+02 -0.60690637192E+02 -0.25255486828E+03  0.27140636355E+03  0.47000000000E+01 0. -1.
        -13    1    4    4    0    0  0.11684646340E+02 -0.36843512547E+02 -0.17148535942E+03  0.17578738258E+03  0.00000000000E+00 0.  1.
         14    1    4    4    0    0 -0.22090638082E+02  0.34563579094E+02 -0.27719670824E+03  0.28021536780E+03  0.00000000000E+00 0. -1.
         -5    1    5    5    0  502 -0.76304909709E+02 -0.12224816021E+02  0.10432662313E+03  0.12991543275E+03  0.47000000000E+01 0.  1.
         13    1    6    6    0    0  0.27199261995E+02  0.22544738068E+02 -0.96470196526E+01  0.36621442569E+02  0.00000000000E+00 0. -1.
        -14    1    6    6    0    0 -0.19050496720E+02  0.52650648598E+02  0.70341588903E+02  0.89905235401E+02  0.00000000000E+00 0.  1.
</event>
<event>
12    1  0.8691829E-002  0.3744705E+03  0.7818608E-02  0.1053386E+00
         21   -1    0    0  501  502  0.00000000000E+00  0.00000000000E+00  0.86688221418E+03  0.86688221418E+03  0.00000000000E+00 0. -1.
         21   -1    0    0  502  503 -0.00000000000E+00 -0.00000000000E+00 -0.27922733137E+03  0.27922733137E+03  0.00000000000E+00 0.  1.
         -6    2    1    2    0  503 -0.29362085225E+03 -0.14615174071E+03 -0.81571148590E+02  0.37923821058E+03  0.17202974130E+03 0.  0.
        -24    2    3    3    0    0 -0.27388009876E+03 -0.15431718390E+03 -0.11072873054E+03  0.34278788279E+03  0.80116035085E+02 0.  0.
          6    2    1    2  501    0  0.29362085225E+03  0.14615174071E+03  0.66922603140E+03  0.76687133498E+03  0.18070591336E+03 0.  0.
         24    2    5    5    0    0  0.23888320298E+03  0.47412337078E+02  0.40054018867E+03  0.47539260135E+03  0.79073183207E+02 0.  0.
          5    1    5    5  501    0  0.54737649271E+02  0.98739403630E+02  0.26868584273E+03  0.29147873363E+03  0.47000000000E+01 0. -1.
        -13    1    6    6    0    0  0.10169214654E+03 -0.16479367836E+02  0.18958214933E+03  0.21576434733E+03  0.00000000000E+00 0.  1.
         14    1    6    6    0    0  0.13719105644E+03  0.63891704914E+02  0.21095803934E+03  0.25962825402E+03  0.00000000000E+00 0. -1.
         -5    1    3    3    0  503 -0.19740753495E+02  0.81654431919E+01  0.29157581946E+02  0.36450327790E+02  0.47000000000E+01 0.  1.
         13    1    4    4    0    0  0.47251935205E+01 -0.40647530380E+01  0.23448523054E+01  0.66594296603E+01  0.00000000000E+00 0. -1.
        -14    1    4    4    0    0 -0.27860529228E+03 -0.15025243086E+03 -0.11307358284E+03  0.33612845313E+03  0.00000000000E+00 0.  1.
</event>
<event>
12    1  0.8691829E-002  0.1742935E+03  0.7818608E-02  0.1173486E+00
         21   -1    0    0  503  502  0.00000000000E+00  0.00000000000E+00  0.75556132296E+03  0.75556132296E+03  0.00000000000E+00 0. -1.
         21   -1    0    0  501  503 -0.00000000000E+00 -0.00000000000E+00 -0.74809114896E+02  0.74809114896E+02  0.00000000000E+00 0. -1.
          6    2    1    2  501    0  0.24060176924E+02  0.36307239340E+00  0.57753348915E+02  0.18345019726E+03  0.17245144716E+03 0.  0.
         24    2    3    3    0    0  0.49978677341E+02  0.51386961634E+02  0.69015344728E+02  0.12493414402E+03  0.75544255369E+02 0.  0.
         -6    2    1    2    0  502 -0.24060176924E+02 -0.36307239340E+00  0.62299885915E+03  0.64692024059E+03  0.17262443412E+03 0.  0.
        -24    2    5    5    0    0  0.45006671508E+02 -0.33150105983E+02  0.38949203091E+03  0.40117088056E+03  0.78163311466E+02 0.  0.
          5    1    3    3  501    0 -0.25918500418E+02 -0.51023889241E+02 -0.11261995813E+02  0.58516053240E+02  0.47000000000E+01 0. -1.
        -13    1    4    4    0    0  0.40692806801E+02  0.15391815615E+02 -0.32919872541E+01  0.43630834204E+02  0.00000000000E+00 0.  1.
         14    1    4    4    0    0  0.92858705408E+01  0.35995146019E+02  0.72307331983E+02  0.81303309816E+02  0.00000000000E+00 0. -1.
         -5    1    5    5    0  502 -0.69066848432E+02  0.32787033589E+02  0.23350682824E+03  0.24574936003E+03  0.47000000000E+01 0.  1.
         13    1    6    6    0    0  0.24018254257E+02 -0.58356597266E+02  0.26792092166E+03  0.27525259172E+03  0.00000000000E+00 0. -1.
        -14    1    6    6    0    0  0.20988417252E+02  0.25206491283E+02  0.12157110925E+03  0.12591828884E+03  0.00000000000E+00 0.  1.
</event>
<event>
12    1  0.8691829E-002  0.1962111E+03  0.7818608E-02  0.1153176E+00
         21   -1    0    0  501  502  0.00000000000E+00  0.00000000000E+00  0.28478451443E+03  0.28478451443E+03  0.00000000000E+00 0.  1.
         21   -1    0    0  502  503 -0.00000000000E+00 -0.00000000000E+00 -0.13876374071E+03  0.13876374071E+03  0.00000000000E+00 0.  1.
         -6    2    1    2    0  503 -0.89895494559E+02  0.27132800671E+02  0.11008138156E+03  0.22498153472E+03  0.17228288244E+03 0.  0.
        -24    2    3    3    0    0 -0.84382630246E+02 -0.34362761330E+02  0.10911656151E+03  0.16305321570E+03  0.79866760924E+02 0.  0.
          6    2    1    2  501    0  0.89895494559E+02 -0.27132800671E+02  0.35939392160E+02  0.19856672042E+03  0.17123000244E+03 0.  0.
         24    2    5    5    0    0  0.75086212222E+02  0.44307157871E+02  0.33076754731E+02  0.12540069543E+03  0.83846283201E+02 0.  0.
          5    1    5    5  501    0  0.14809282338E+02 -0.71439958542E+02  0.28626374283E+01  0.73166024990E+02  0.47000000000E+01 0. -1.
        -13    1    6    6    0    0  0.40615921621E+02 -0.19800472325E+02 -0.62525839595E+00  0.45189630906E+02  0.00000000000E+00 0.  1.
         14    1    6    6    0    0  0.34470290601E+02  0.64107630195E+02  0.33702013127E+02  0.80211064525E+02  0.00000000000E+00 0. -1.
         -5    1    3    3    0  503 -0.55128643132E+01  0.61495562001E+02  0.96482005419E+00  0.61928319019E+02  0.47000000000E+01 0.  1.
         13    1    4    4    0    0 -0.82131656963E+02 -0.45266218848E+02  0.56962458127E+02  0.10972402326E+03  0.00000000000E+00 0. -1.
        -14    1    4    4    0    0 -0.22509732826E+01  0.10903457518E+02  0.52154103384E+02  0.53329192440E+02  0.00000000000E+00 0.  1.
</event>
<event>
12    1  0.8691829E-002  0.1917283E+03  0.7818608E-02  0.1157041E+00
         21   -1    0    0  503  502  0.00000000000E+00  0.00000000000E+00  0.12877734117E+03  0.12877734117E+03  0.00000000000E+00 0. -1.
         21   -1    0    0  501  503 -0.00000000000E+00 -0.00000000000E+00 -0.32376270910E+03  0.32376270910E+03  0.00000000000E+00 0.  1.
          6    2    1    2  501    0  0.85064049288E+02 -0.20026245433E+01 -0.18657755770E+02  0.19205750983E+03  0.17116679657E+03 0.  0.
         24    2    3    3    0    0  0.56087798992E+02  0.57690928966E+02 -0.43719481948E+02  0.12097218413E+03  0.79049299489E+02 0.  0.
         -6    2    1    2    0  502 -0.85064049288E+02  0.20026245433E+01 -0.17632761216E+03  0.26048254043E+03  0.17181334079E+03 0.  0.
        -24    2    5    5    0    0 -0.99221364691E+02  0.49739625775E+01 -0.19655261973E+03  0.23517642734E+03  0.82494849152E+02 0.  0.
          5    1    3    3  501    0  0.28976250296E+02 -0.59693553510E+02  0.25061726178E+02  0.71085325707E+02  0.47000000000E+01 0. -1.
        -13    1    4    4    0    0  0.54003534578E+02  0.35311278735E+02  0.75777459776E+01  0.64966840672E+02  0.00000000000E+00 0.  1.
         14    1    4    4    0    0  0.20842644148E+01  0.22379650231E+02 -0.51297227926E+02  0.56005343455E+02  0.00000000000E+00 0. -1.
         -5    1    5    5    0  502  0.14157315403E+02 -0.29713380343E+01  0.20225007565E+02  0.25306113098E+02  0.47000000000E+01 0.  1.
         13    1    6    6    0    0 -0.28555986402E+02 -0.33788460868E+02 -0.42670042231E+02  0.61464111083E+02  0.00000000000E+00 0. -1.
        -14    1    6    6    0    0 -0.70665378289E+02  0.38762423445E+02 -0.15388257750E+03  0.17371231625E+03  0.00000000000E+00 0.  1.
</event>
<event>
12    1  0.8691829E-002  0.1801979E+03  0.7818608E-02  0.1169006E+00
         21   -1    0    0  503  502  0.00000000000E+00  0.00000000000E+00  0.20740570505E+04  0.20740570505E+04  0.00000000000E+00 0.  1.
         21   -1    0    0  501  503 -0.00000000000E+00 -0.00000000000E+00 -0.15191340226E+02  0.15191340226E+02  0.00000000000E+00 0.  1.
          6    2    1    2  501    0 -0.33691952793E+02 -0.94746350411E+01  0.97113439931E+03  0.98669195038E+03  0.17097972695E+03 0.  0.
         24    2    3    3    0    0 -0.85394646872E+01  0.15292911238E+02  0.92367633769E+03  0.92735868299E+03  0.80680570854E+02 0.  0.
         -6    2    1    2    0  502  0.33691952793E+02  0.94746350411E+01  0.10877313110E+04  0.11025564404E+04  0.17676646433E+03 0.  0.
        -24    2    5    5    0    0 -0.27593000572E+02 -0.17430837827E+02  0.30744820906E+03  0.31939390352E+03  0.80142726192E+02 0.  0.
          5    1    3    3  501    0 -0.25152488105E+02 -0.24767546279E+02  0.47458061620E+02  0.59333267391E+02  0.47000000000E+01 0. -1.
        -13    1    4    4    0    0  0.10620437664E+02  0.38793262980E+02  0.26998264322E+03  0.27296215596E+03  0.00000000000E+00 0.  1.
         14    1    4    4    0    0 -0.19159902351E+02 -0.23500351743E+02  0.65369369447E+03  0.65439652702E+03  0.00000000000E+00 0. -1.
         -5    1    5    5    0  502  0.61284953365E+02  0.26905472868E+02  0.78028310195E+03  0.78316253688E+03  0.47000000000E+01 0.  1.
         13    1    6    6    0    0  0.56245955922E+01  0.26488153811E+02  0.15404009528E+03  0.15640207582E+03  0.00000000000E+00 0. -1.
        -14    1    6    6    0    0 -0.33217596164E+02 -0.43918991638E+02  0.15340811378E+03  0.16299182770E+03  0.00000000000E+00 0.  1.
</event>
<event>
12    1  0.8691829E-002  0.1981472E+03  0.7818608E-02  0.1151382E+00
         21   -1    0    0  501  502  0.00000000000E+00  0.00000000000E+00  0.28267180897E+03  0.28267180897E+03  0.00000000000E+00 0.  1.
         21   -1    0    0  502  503 -0.00000000000E+00 -0.00000000000E+00 -0.14120283307E+03  0.14120283307E+03  0.00000000000E+00 0.  1.
         -6    2    1    2    0  503  0.97693449588E+02  0.72393927876E+01  0.42266051419E+02  0.20228148192E+03  0.17185738251E+03 0.  0.
        -24    2    3    3    0    0  0.27464679970E+02  0.62274395222E+02  0.33180243096E+01  0.10481369036E+03  0.79639760521E+02 0.  0.
          6    2    1    2  501    0 -0.97693449588E+02 -0.72393927876E+01  0.99202924481E+02  0.22159316013E+03  0.17223788633E+03 0.  0.
         24    2    5    5    0    0  0.13350468412E+02 -0.24832035586E+02  0.32400451734E+02  0.90730968602E+02  0.79921551491E+02 0.  0.
          5    1    5    5  501    0 -0.11104391800E+03  0.17592642799E+02  0.66802472748E+02  0.13086219152E+03  0.47000000000E+01 0. -1.
        -13    1    6    6    0    0 -0.18157374841E+02  0.10686366060E+02  0.37464397965E+02  0.42982203242E+02  0.00000000000E+00 0.  1.
         14    1    6    6    0    0  0.31507843253E+02 -0.35518401646E+02 -0.50639462309E+01  0.47748765360E+02  0.00000000000E+00 0. -1.
         -5    1    3    3    0  503  0.70228769618E+02 -0.55035002434E+02  0.38948027109E+02  0.97467791555E+02  0.47000000000E+01 0.  1.
         11    1    4    4    0    0  0.17857231201E+01  0.34812093303E+02 -0.36209189087E+02  0.50261078595E+02  0.00000000000E+00 0. -1.
        -12    1    4    4    0    0  0.25678956850E+02  0.27462301919E+02  0.39527213397E+02  0.54552611766E+02  0.00000000000E+00 0.  1.
</event>
<event>
12    1  0.8691829E-002  0.1779458E+03  0.7818608E-02  0.1169871E+00
         21   -1    0    0  501  502  0.00000000000E+00  0.00000000000E+00  0.17894759281E+03  0.17894759281E+03  0.00000000000E+00 0. -1.
         21   -1    0    0  502  503 -0.00000000000E+00 -0.00000000000E+00 -0.27567652876E+03  0.27567652876E+03  0.00000000000E+00 0. -1.
         -6    2    1    2    0  503  0.73089370105E+01  0.41635231803E+02 -0.18455403811E+03  0.25618529506E+03  0.17257983467E+03 0.  0.
        -24    2    3    3    0    0 -0.20499900157E+02 -0.20638891640E+01 -0.18645712785E+03  0.20414054174E+03  0.80514562098E+02 0.  0.
          6    2    1    2  501    0 -0.73089370105E+01 -0.41635231803E+02  0.87825102154E+02  0.19843882651E+03  0.17285197774E+03 0.  0.
         24    2    5    5    0    0  0.22783951437E+02 -0.24763827548E+02 -0.18857220226E+02  0.86218355447E+02  0.77108070028E+02 0.  0.
          5    1    5    5  501    0 -0.30092888448E+02 -0.16871404255E+02  0.10668232238E+03  0.11222047106E+03  0.47000000000E+01 0. -1.
        -11    1    6    6    0    0 -0.49371958769E+01 -0.35819193990E+02 -0.36640615244E+02  0.51477424631E+02  0.00000000000E+00 0.  1.
         12    1    6    6    0    0  0.27721147314E+02  0.11055366441E+02  0.17783395019E+02  0.34740930816E+02  0.00000000000E+00 0. -1.
         -5    1    3    3    0  503  0.27808837167E+02  0.43699120967E+02  0.19030897390E+01  0.52044753323E+02  0.47000000000E+01 0.  1.
         13    1    4    4    0    0 -0.97934180425E+01  0.38883623424E+02 -0.77660587032E+02  0.87401452996E+02  0.00000000000E+00 0. -1.
        -14    1    4    4    0    0 -0.10706482114E+02 -0.40947512588E+02 -0.10879654082E+03  0.11673908874E+03  0.00000000000E+00 0.  1.
</event>
<event>
12    1  0.8691829E-002  0.2085744E+03  0.7818608E-02  0.1143338E+00
         21   -1    0    0  501  502  0.00000000000E+00  0.00000000000E+00  0.12057180202E+03  0.12057180202E+03  0.00000000000E+00 0.  1.
         21   -1    0    0  502  503 -0.00000000000E+00 -0.00000000000E+00 -0.64535012557E+03  0.64535012557E+03  0.00000000000E+00 0.  1.
         -6    2    1    2    0  503  0.22293449197E+02  0.11106698684E+03 -0.51799867137E+03  0.55723739111E+03  0.17134180188E+03 0.  0.
        -24    2    3    3    0    0  0.19340796279E+02  0.95677354965E+02 -0.52438204750E+03  0.53967617192E+03  0.82131699968E+02 0.  0.
          6    2    1    2  501    0 -0.22293449197E+02 -0.11106698684E+03 -0.67796521856E+01  0.20868453648E+03  0.17512966237E+03 0.  0.
         24    2    5    5    0    0 -0.60046562396E+02 -0.47827068617E+02  0.42274665554E+02  0.12006737730E+03  0.82073196571E+02 0.  0.
          5    1    5    5  501    0  0.37753113199E+02 -0.63239918222E+02 -0.49054317740E+02  0.88617159184E+02  0.47000000000E+01 0. -1.
        -13    1    6    6    0    0 -0.99466083546E+01 -0.57581976277E+02  0.36020815780E+02  0.68644870014E+02  0.00000000000E+00 0.  1.
         14    1    6    6    0    0 -0.50099954042E+02  0.97549076594E+01  0.62538497738E+01  0.51422507284E+02  0.00000000000E+00 0. -1.
         -5    1    3    3    0  503  0.29526529185E+01  0.15389631874E+02  0.63833761387E+01  0.17561219189E+02  0.47000000000E+01 0.  1.
         13    1    4    4    0    0  0.44700352370E+02  0.33501228609E+02 -0.16860728349E+03  0.17762001539E+03  0.00000000000E+00 0. -1.
        -14    1    4    4    0    0 -0.25359556092E+02  0.62176126356E+02 -0.35577476401E+03  0.36205615653E+03  0.00000000000E+00 0.  1.
</event>
<event>
12    1  0.8691829E-002  0.2325301E+03  0.7818608E-02  0.1124923E+00
         21   -1    0    0  501  502  0.00000000000E+00  0.00000000000E+00  0.64976066058E+03  0.64976066058E+03  0.00000000000E+00 0. -1.
         21   -1    0    0  502  503 -0.00000000000E+00 -0.00000000000E+00 -0.84196300673E+02  0.84196300673E+02  0.00000000000E+00 0. -1.
         -6    2    1    2    0  503 -0.15038693088E+03 -0.41869492544E+02  0.24093174986E+03  0.33463679592E+03  0.17194299552E+03 0.  0.
        -24    2    3    3    0    0 -0.10754697582E+03  0.54021035501E+01  0.23418714576E+03  0.27031382001E+03  0.81427313084E+02 0.  0.
          6    2    1    2  501    0  0.15038693088E+03  0.41869492544E+02  0.32463261004E+03  0.39932016533E+03  0.17233972134E+03 0.  0.
         24    2    5    5    0    0  0.76462145835E+02  0.59080969956E+02  0.88781042382E+02  0.15151144723E+03  0.75740506988E+02 0.  0.
          5    1    5    5  501    0  0.73924785042E+02 -0.17211477412E+02  0.23585156766E+03  0.24780871810E+03  0.47000000000E+01 0. -1.
        -13    1    6    6    0    0  0.16127643589E+02 -0.18197900921E+02  0.12838285153E+02  0.27497018954E+02  0.00000000000E+00 0.  1.
         14    1    6    6    0    0  0.60334502246E+02  0.77278870877E+02  0.75942757230E+02  0.12401442828E+03  0.00000000000E+00 0. -1.
         -5    1    3    3    0  503 -0.42839955056E+02 -0.47271596094E+02  0.67446041049E+01  0.64322975919E+02  0.47000000000E+01 0.  1.
         13    1    4    4    0    0 -0.16926355201E+02 -0.31638858736E+02  0.47669330287E+02  0.59664762905E+02  0.00000000000E+00 0. -1.
        -14    1    4    4    0    0 -0.90620620620E+02  0.37040962286E+02  0.18651781547E+03  0.21064905710E+03  0.00000000000E+00 0.  1.
</event>
<event>
12    1  0.8691829E-002  0.1787450E+03  0.7818608E-02  0.1169415E+00
         21   -1    0    0  501  502  0.00000000000E+00  0.00000000000E+00  0.15908198798E+03  0.15908198798E+03  0.00000000000E+00 0. -1.
         21   -1    0    0  502  503 -0.00000000000E+00 -0.00000000000E+00 -0.20057732033E+03  0.20057732033E+03  0.00000000000E+00 0. -1.
         -6    2    1    2    0  503  0.28902039429E+02 -0.33074841899E+02 -0.36547465977E+02  0.18244312179E+03  0.17326425589E+03 0.  0.
        -24    2    3    3    0    0 -0.68976028108E+01  0.48590125715E+02 -0.32621196461E+02  0.93065904828E+02  0.72031541296E+02 0.  0.
          6    2    1    2  501    0 -0.28902039429E+02  0.33074841899E+02 -0.49478663771E+01  0.17721618651E+03  0.17161533245E+03 0.  0.
         24    2    5    5    0    0 -0.19808401798E+02 -0.17506131292E+02 -0.59088700445E+02  0.10242013710E+03  0.79369846597E+02 0.  0.
          5    1    5    5  501    0 -0.90936376307E+01  0.50580973191E+02  0.54140834068E+02  0.74796049413E+02  0.47000000000E+01 0. -1.
        -11    1    6    6    0    0 -0.40797346258E+01  0.30182852276E+02 -0.35985676259E+02  0.47144646589E+02  0.00000000000E+00 0.  1.
         12    1    6    6    0    0 -0.15728667172E+02 -0.47688983568E+02 -0.23103024186E+02  0.55275490511E+02  0.00000000000E+00 0. -1.
         -5    1    3    3    0  503  0.35799642239E+02 -0.81664967615E+02 -0.39262695168E+01  0.89377216965E+02  0.47000000000E+01 0.  1.
         13    1    4    4    0    0  0.70486314380E+01 -0.12330126933E+02 -0.26760047983E+02  0.30295468364E+02  0.00000000000E+00 0. -1.
        -14    1    4    4    0    0 -0.13946234249E+02  0.60920252649E+02 -0.58611484778E+01  0.62770436465E+02  0.00000000000E+00 0.  1.
</event>
<event>
12    1  0.8691829E-002  0.2211588E+03  0.7818608E-02  0.1133298E+00
         21   -1    0    0  501  502  0.00000000000E+00  0.00000000000E+00  0.46025580837E+03  0.46025580837E+03  0.00000000000E+00 0.  1.
         21   -1    0    0  502  503 -0.00000000000E+00 -0.00000000000E+00 -0.12543512760E+03  0.12543512760E+03  0.00000000000E+00 0.  1.
         -6    2    1    2    0  503 -0.12211786853E+03 -0.64416256425E+02  0.50361252976E+02  0.22537386773E+03  0.17086514140E+03 0.  0.
        -24    2    3    3    0    0 -0.24894095658E+02 -0.63515968517E+02 -0.18413329575E+02  0.10618785456E+03  0.79264213198E+02 0.  0.
          6    2    1    2  501    0  0.12211786853E+03  0.64416256425E+02  0.28445942780E+03  0.36031706824E+03  0.17276861896E+03 0.  0.
         24    2    5    5    0    0  0.14630541589E+02 -0.95521948354E+01  0.15509884649E+03  0.17652069387E+03  0.82453659766E+02 0.  0.
          5    1    5    5  501    0  0.10748732694E+03  0.73968451261E+02  0.12936058130E+03  0.18379637437E+03  0.47000000000E+01 0. -1.
        -13    1    6    6    0    0  0.36652268068E+02 -0.17312438222E+02  0.14589775866E+03  0.15142412375E+03  0.00000000000E+00 0.  1.
         14    1    6    6    0    0 -0.22021726479E+02  0.77602433870E+01  0.92010878310E+01  0.25096570121E+02  0.00000000000E+00 0. -1.
         -5    1    3    3    0  503 -0.97223772875E+02 -0.90028790847E+00  0.68774582551E+02  0.11918601317E+03  0.47000000000E+01 0.  1.
         13    1    4    4    0    0  0.29332441546E+01  0.17629854099E+02 -0.86312855574E+01  0.19847286142E+02  0.00000000000E+00 0. -1.
        -14    1    4    4    0    0 -0.27827339812E+02 -0.81145822616E+02 -0.97820440172E+01  0.86340568415E+02  0.00000000000E+00 0.  1.
</event>
<event>
12    1  0.8691829E-002  0.1775007E+03  0.7818608E-02  0.1170276E+00
         21   -1    0    0  501  502  0.00000000000E+00  0.00000000000E+00  0.79235755892E+03  0.79235755892E+03  0.00000000000E+00 0.  1.
         21   -1    0    0  502  503 -0.00000000000E+00 -0.00000000000E+00 -0.58994619353E+02  0.58994619353E+02  0.00000000000E+00 0. -1.
         -6    2    1    2    0  503  0.92698543269E+01  0.43732846010E+02  0.12354658072E+03  0.21626435839E+03  0.17177899489E+03 0.  0.
        -24    2    3    3    0    0  0.37391413279E+02 -0.18035084882E+01  0.13119389776E+03  0.16199693615E+03  0.87348715417E+02 0.  0.
          6    2    1    2  501    0 -0.92698543269E+01 -0.43732846010E+02  0.60981635884E+03  0.63508781988E+03  0.17164514390E+03 0.  0.
         24    2    5    5    0    0 -0.17000160710E+02  0.33337441394E+02  0.43262067342E+03  0.44164535358E+03  0.80557934429E+02 0.  0.
          5    1    5    5  501    0  0.77303063828E+01 -0.77070287404E+02  0.17719568542E+03  0.19344246630E+03  0.47000000000E+01 0. -1.
        -13    1    6    6    0    0 -0.22361874935E+02 -0.18351216406E+02  0.77125893511E+02  0.82372471397E+02  0.00000000000E+00 0.  1.
         14    1    6    6    0    0  0.53617142252E+01  0.51688657800E+02  0.35549477991E+03  0.35927288218E+03  0.00000000000E+00 0. -1.
         -5    1    3    3    0  503 -0.28121558952E+02  0.45536354498E+02 -0.76473170334E+01  0.54267422241E+02  0.47000000000E+01 0.  1.
         13    1    4    4    0    0  0.45810973138E+02 -0.22498404403E+02  0.31824156880E+02  0.60146491349E+02  0.00000000000E+00 0. -1.
        -14    1    4    4    0    0 -0.84195598587E+01  0.20694895915E+02  0.99369740876E+02  0.10185044480E+03  0.00000000000E+00 0.  1.
</event>
<event>
12    1  0.8691829E-002  0.3739001E+03  0.7818608E-02  0.1053234E+00
         21   -1    0    0  501  502  0.00000000000E+00  0.00000000000E+00  0.16235076570E+03  0.16235076570E+03  0.00000000000E+00 0.  1.
         21   -1    0    0  502  503 -0.00000000000E+00 -0.00000000000E+00 -0.12991110988E+04  0.12991110988E+04  0.00000000000E+00 0.  1.
         -6    2    1    2    0  503  0.25021089968E+03 -0.21873285548E+03 -0.99282618624E+03  0.10608144598E+04  0.17080376362E+03 0.  0.
        -24    2    3    3    0    0  0.49932230665E+02 -0.58340596361E+02 -0.24391554291E+03  0.26915388624E+03  0.83977196681E+02 0.  0.
          6    2    1    2  501    0 -0.25021089968E+03  0.21873285548E+03 -0.14393414684E+03  0.40064740468E+03  0.17132351813E+03 0.  0.
         24    2    5    5    0    0 -0.15756880662E+03  0.82798567652E+02 -0.23332637906E+02  0.19661921552E+03  0.80194590191E+02 0.  0.
          5    1    5    5  501    0 -0.92642093055E+02  0.13593428782E+03 -0.12060150893E+03  0.20402818915E+03  0.47000000000E+01 0. -1.
        -13    1    6    6    0    0 -0.13847018732E+03  0.48804052323E+02 -0.42947273797E+02  0.15297155496E+03  0.00000000000E+00 0.  1.
         14    1    6    6    0    0 -0.19098619302E+02  0.33994515330E+02  0.19614635891E+02  0.43647660566E+02  0.00000000000E+00 0. -1.
         -5    1    3    3    0  503  0.20027866901E+03 -0.16039225912E+03 -0.74891064332E+03  0.79166057356E+03  0.47000000000E+01 0.  1.
         13    1    4    4    0    0  0.31345871328E+02 -0.14390362398E+02 -0.19296768132E+02  0.39522290414E+02  0.00000000000E+00 0. -1.
        -14    1    4    4    0    0  0.18586359337E+02 -0.43950233963E+02 -0.22461877478E+03  0.22963159583E+03  0.00000000000E+00 0.  1.
</event>
<event>
12    1  0.8691829E-002  0.2333818E+03  0.7818608E-02  0.1124674E+00
         21   -1    0    0  501  502  0.00000000000E+00  0.00000000000E+00  0.10447807500E+03  0.10447807500E+03  0.00000000000E+00 0. -1.
         21   -1    0    0  502  503 -0.00000000000E+00 -0.00000000000E+00 -0.52650897091E+03  0.52650897091E+03  0.00000000000E+00 0.  1.
         -6    2    1    2    0  503 -0.14878439839E+03  0.45884079811E+02 -0.16604879232E+03  0.28458567297E+03  0.17080590693E+03 0.  0.
        -24    2    3    3    0    0 -0.17051106356E+03  0.66856744856E+02 -0.15271032162E+03  0.25124042654E+03  0.79104124209E+02 0.  0.
          6    2    1    2  501    0  0.14878439839E+03 -0.45884079811E+02 -0.25598210358E+03  0.34640137294E+03  0.17385317897E+03 0.  0.
         24    2    5    5    0    0  0.16121996622E+03 -0.70352497694E+02 -0.25259798845E+03  0.31834983009E+03  0.81237424320E+02 0.  0.
          5    1    5    5  501    0 -0.12435567833E+02  0.24468417883E+02 -0.33841151320E+01  0.28051542850E+02  0.47000000000E+01 0. -1.
        -11    1    6    6    0    0  0.10425348124E+03 -0.40167945963E+02 -0.90092244303E+02  0.14352304594E+03  0.00000000000E+00 0.  1.
         12    1    6    6    0    0  0.56966484979E+02 -0.30184551731E+02 -0.16250574415E+03  0.17482678415E+03  0.00000000000E+00 0. -1.
         -5    1    3    3    0  503  0.21726665176E+02 -0.20972665045E+02 -0.13338470696E+02  0.33345246427E+02  0.47000000000E+01 0.  1.
         11    1    4    4    0    0 -0.12782697389E+03  0.12333252915E+02 -0.11504191726E+03  0.17241370916E+03  0.00000000000E+00 0. -1.
        -12    1    4    4    0    0 -0.42684089676E+02  0.54523491940E+02 -0.37668404362E+02  0.78826717375E+02  0.00000000000E+00 0.  1.
</event>
<event>
12    1  0.8691829E-002  0.2575062E+03  0.7818608E-02  0.1108800E+00
         21   -1    0    0  503  502  0.00000000000E+00  0.00000000000E+00  0.12629700582E+03  0.12629700582E+03  0.00000000000E+00 0.  1.
         21   -1    0    0  501  503 -0.00000000000E+00 -0.00000000000E+00 -0.93502160073E+03  0.93502160073E+03  0.00000000000E+00 0. -1.
          6    2    1    2  501    0  0.18746140459E+03  0.36156065315E+02 -0.75617727917E+03  0.79850560877E+03  0.17134202764E+03 0.  0.
         24    2    3    3    0    0  0.27372036195E+02  0.19326047238E+02 -0.16997638180E+03  0.19058666890E+03  0.79426592041E+02 0.  0.
         -6    2    1    2    0  502 -0.18746140459E+03 -0.36156065315E+02 -0.52547315735E+02  0.26281299778E+03  0.17280165549E+03 0.  0.
        -24    2    5    5    0    0 -0.15147865850E+03 -0.87224869157E+02 -0.47252363440E+02  0.19994084765E+03  0.84791479098E+02 0.  0.
          5    1    3    3  501    0  0.16008936839E+03  0.16830018077E+02 -0.58620089737E+03  0.60791893988E+03  0.47000000000E+01 0. -1.
        -11    1    4    4    0    0  0.35863483484E+02 -0.85925898500E+01 -0.29824753729E+02  0.47429294565E+02  0.00000000000E+00 0.  1.
         12    1    4    4    0    0 -0.84914472896E+01  0.27918637088E+02 -0.14015162807E+03  0.14315737433E+03  0.00000000000E+00 0. -1.
         -5    1    5    5    0  502 -0.35982746089E+02  0.51068803842E+02 -0.52949522957E+01  0.62872150129E+02  0.47000000000E+01 0.  1.
         11    1    6    6    0    0 -0.40037904745E+02  0.14351149150E+02 -0.18758754371E+02  0.46485268245E+02  0.00000000000E+00 0. -1.
        -12    1    6    6    0    0 -0.11144075376E+03 -0.10157601831E+03 -0.28493609069E+02  0.15345557940E+03  0.00000000000E+00 0.  1.
</event>
<event>
12    1  0.8691829E-002  0.1992127E+03  0.7818608E-02  0.1150535E+00
         21   -1    0    0  503  502  0.00000000000E+00  0.00000000000E+00  0.96788934044E+03  0.96788934044E+03  0.00000000000E+00 0. -1.
         21   -1    0    0  501  503 -0.00000000000E+00 -0.00000000000E+00 -0.10965372905E+03  0.10965372905E+03  0.00000000000E+00 0. -1.
          6    2    1    2  501    0 -0.96309350310E+02 -0.26900170225E+02  0.21765368876E+01  0.19861029288E+03  0.17158729850E+03 0.  0.
         24    2    3    3    0    0 -0.62375041135E+02 -0.76168575637E+02  0.33395811494E+02  0.13096676977E+03  0.79653731163E+02 0.  0.
         -6    2    1    2    0  502  0.96309350310E+02  0.26900170225E+02  0.85605907450E+03  0.87893277662E+03  0.17229792994E+03 0.  0.
        -24    2    5    5    0    0 -0.83866609543E+01  0.43890495773E+02  0.34848125226E+03  0.36037008844E+03  0.80191681399E+02 0.  0.
          5    1    3    3  501    0 -0.33934309174E+02  0.49268405411E+02 -0.31219274606E+02  0.67643523103E+02  0.47000000000E+01 0. -1.
        -11    1    4    4    0    0 -0.34628345358E+02 -0.86210633003E+02  0.10259710744E+02  0.93470087245E+02  0.00000000000E+00 0.  1.
         12    1    4    4    0    0 -0.27746695777E+02  0.10042057366E+02  0.23136100749E+02  0.37496682527E+02  0.00000000000E+00 0. -1.
         -5    1    5    5    0  502  0.10469601126E+03 -0.16990325548E+02  0.50757782224E+03  0.51856268818E+03  0.47000000000E+01 0.  1.
         11    1    6    6    0    0  0.68434051119E+01 -0.80832471916E+01  0.22834151141E+03  0.22858700075E+03  0.00000000000E+00 0. -1.
        -12    1    6    6    0    0 -0.15230066066E+02  0.51973742965E+02  0.12013974085E+03  0.13178308769E+03  0.00000000000E+00 0.  1.
</event>
<event>
12    1  0.8691829E-002  0.2143297E+03  0.7818608E-02  0.1139066E+00
         21   -1    0    0  501  502  0.00000000000E+00  0.00000000000E+00  0.94143943469E+02  0.94143943469E+02  0.00000000000E+00 0. -1.
         21   -1    0    0  502  503 -0.00000000000E+00 -0.00000000000E+00 -0.48226113078E+03  0.48226113078E+03  0.00000000000E+00 0. -1.
         -6    2    1    2    0  503 -0.11807970392E+03 -0.45799393186E+02 -0.22416282396E+03  0.31013901440E+03  0.17290701465E+03 0.  0.
        -24    2    3    3    0    0 -0.15744962424E+02 -0.25360696595E+02 -0.17604649219E+03  0.19512853219E+03  0.78687406171E+02 0.  0.
          6    2    1    2  501    0  0.11807970392E+03  0.45799393186E+02 -0.16395436335E+03  0.26626605985E+03  0.16726081571E+03 0.  0.
         24    2    5    5    0    0  0.25139040727E+02 -0.30512120323E+02 -0.65352620764E+02  0.11068390274E+03  0.80106182220E+02 0.  0.
          5    1    5    5  501    0  0.92940663192E+02  0.76311513509E+02 -0.98601742590E+02  0.15558215711E+03  0.47000000000E+01 0. -1.
        -13    1    6    6    0    0 -0.27279055082E+02 -0.11648627874E+01 -0.10246202155E+02  0.29163134435E+02  0.00000000000E+00 0.  1.
         14    1    6    6    0    0  0.52418095810E+02 -0.29347257536E+02 -0.55106418609E+02  0.81520768305E+02  0.00000000000E+00 0. -1.
         -5    1    3    3    0  503 -0.10233474150E+03 -0.20438696591E+02 -0.48116331770E+02  0.11501048221E+03  0.47000000000E+01 0.  1.
         11    1    4    4    0    0 -0.23478726935E+02  0.24256669370E+02 -0.64519399109E+02  0.72817508120E+02  0.00000000000E+00 0. -1.
        -12    1    4    4    0    0  0.77337645106E+01 -0.49617365965E+02 -0.11152709308E+03  0.12231102407E+03  0.00000000000E+00 0.  1.
</event>
<event>
12    1  0.8691829E-002  0.2610752E+03  0.7818608E-02  0.1106571E+00
         21   -1    0    0  501  502  0.00000000000E+00  0.00000000000E+00  0.62284209236E+03  0.62284209236E+03  0.00000000000E+00 0. -1.
         21   -1    0    0  502  503 -0.00000000000E+00 -0.00000000000E+00 -0.13251222241E+03  0.13251222241E+03  0.00000000000E+00 0.  1.
         -6    2    1    2    0  503 -0.17841608359E+03  0.81474708168E+02  0.40365367267E+03  0.48072502961E+03  0.17230739880E+03 0.  0.
        -24    2    3    3    0    0 -0.13527814257E+02  0.68296810558E+02  0.20362282378E+03  0.22111719294E+03  0.50824232039E+02 0.  0.
          6    2    1    2  501    0  0.17841608359E+03 -0.81474708168E+02  0.86676197284E+02  0.27462928516E+03  0.17157521422E+03 0.  0.
         24    2    5    5    0    0  0.58989798708E+02  0.17793625265E+02  0.60151012993E+02  0.11701420039E+03  0.79232375186E+02 0.  0.
          5    1    5    5  501    0  0.11942628488E+03 -0.99268333432E+02  0.26525184291E+02  0.15761508476E+03  0.47000000000E+01 0. -1.
        -11    1    6    6    0    0  0.42582252568E+02 -0.16401772506E+00 -0.91618428263E+01  0.43557025835E+02  0.00000000000E+00 0.  1.
         12    1    6    6    0    0  0.16407546140E+02  0.17957642990E+02  0.69312855819E+02  0.73457174557E+02  0.00000000000E+00 0. -1.
         -5    1    3    3    0  503 -0.16488826933E+03  0.13177897609E+02  0.20003084890E+03  0.25960783667E+03  0.47000000000E+01 0.  1.
         11    1    4    4    0    0 -0.31947476681E+02  0.31072291417E+02  0.10001173640E+03  0.10949189915E+03  0.00000000000E+00 0. -1.
        -12    1    4    4    0    0  0.18419662424E+02  0.37224519142E+02  0.10361108737E+03  0.11162529380E+03  0.00000000000E+00 0.  1.
</event>
<event>
12    1  0.8691829E-002  0.2508960E+03  0.7818608E-02  0.1112779E+00
         21   -1    0    0  501  502  0.00000000000E+00  0.00000000000E+00  0.75282018005E+03  0.75282018005E+03  0.00000000000E+00 0.  1.
         21   -1    0    0  502  503 -0.00000000000E+00 -0.00000000000E+00 -0.96535479890E+02  0.96535479890E+02  0.00000000000E+00 0. -1.
         -6    2    1    2    0  503  0.12128135505E+03 -0.13651065099E+03  0.17243214359E+03  0.30443663246E+03  0.17205956563E+03 0.  0.
        -24    2    3    3    0    0  0.31424212358E+02 -0.26190635219E+02  0.15667110708E+02  0.92676916019E+02  0.81670814306E+02 0.  0.
          6    2    1    2  501    0 -0.12128135505E+03  0.13651065099E+03  0.48385255656E+03  0.54491902748E+03  0.17169486043E+03 0.  0.
         24    2    5    5    0    0 -0.95451384354E+02  0.14452757273E+02  0.26090452137E+03  0.28939362130E+03  0.79734871993E+02 0.  0.
          5    1    5    5  501    0 -0.25829970698E+02  0.12205789371E+03  0.22294803519E+03  0.25552540617E+03  0.47000000000E+01 0. -1.
        -11    1    6    6    0    0 -0.25743722934E+02 -0.30729807231E+02  0.61902876911E+02  0.73749755884E+02  0.00000000000E+00 0.  1.
         12    1    6    6    0    0 -0.69707661420E+02  0.45182564504E+02  0.19900164446E+03  0.21564386542E+03  0.00000000000E+00 0. -1.
         -5    1    3    3    0  503  0.89857142693E+02 -0.11032001577E+03  0.15676503289E+03  0.21175971644E+03  0.47000000000E+01 0.  1.
         13    1    4    4    0    0 -0.13356194872E+02 -0.38095449034E+02  0.21895177906E+02  0.45924394325E+02  0.00000000000E+00 0. -1.
        -14    1    4    4    0    0  0.44780407231E+02  0.11904813816E+02 -0.62280671979E+01  0.46752521694E+02  0.00000000000E+00 0.  1.
</event>
<event>
12    1  0.8691829E-002  0.2350337E+03  0.7818608E-02  0.1126258E+00
         21   -1    0    0  503  502  0.00000000000E+00  0.00000000000E+00  0.10807147846E+03  0.10807147846E+03  0.00000000000E+00 0. -1.
         21   -1    0    0  501  503 -0.00000000000E+00 -0.00000000000E+00 -0.10796955543E+04  0.10796955543E+04  0.00000000000E+00 0.  1.
          6    2    1    2  501    0  0.48319322229E+01 -0.13383331314E+03 -0.92229489552E+03  0.94761250882E+03  0.17148437039E+03 0.  0.
         24    2    3    3    0    0 -0.41500307473E+02 -0.97160209287E+02 -0.39847273303E+03  0.42044712595E+03  0.82661266377E+02 0.  0.
         -6    2    1    2    0  502 -0.48319322229E+01  0.13383331314E+03 -0.49329180362E+02  0.24015452399E+03  0.19314793316E+03 0.  0.
        -24    2    5    5    0    0  0.73538745050E+02  0.54544279835E+02 -0.82470378170E+01  0.12124890472E+03  0.79058571807E+02 0.  0.
          5    1    3    3  501    0  0.46332239696E+02 -0.36673103852E+02 -0.52382216249E+03  0.52716538287E+03  0.47000000000E+01 0. -1.
        -13    1    4    4    0    0 -0.35276087099E+02 -0.14938840785E+02 -0.22663458922E+03  0.22984953408E+03  0.00000000000E+00 0.  1.
         14    1    4    4    0    0 -0.62242203738E+01 -0.82221368503E+02 -0.17183814380E+03  0.19059759186E+03  0.00000000000E+00 0. -1.
         -5    1    5    5    0  502 -0.78370677273E+02  0.79289033305E+02 -0.41082142545E+02  0.11890561927E+03  0.47000000000E+01 0.  1.
         13    1    6    6    0    0  0.11024744064E+02  0.55116946913E+02  0.76913995886E+01  0.56732534285E+02  0.00000000000E+00 0. -1.
        -14    1    6    6    0    0  0.62514000986E+02 -0.57266707842E+00 -0.15938437406E+02  0.64516370433E+02  0.00000000000E+00 0.  1.
</event>
<event>
12    1  0.8691829E-002  0.2251308E+03  0.7818608E-02  0.1131962E+00
         21   -1    0    0  503  502  0.00000000000E+00  0.00000000000E+00  0.13986948792E+03  0.13986948792E+03  0.00000000000E+00 0. -1.
         21   -1    0    0  501  503 -0.00000000000E+00 -0.00000000000E+00 -0.41686459335E+03  0.41686459335E+03  0.00000000000E+00 0.  1.
          6    2    1    2  501    0 -0.25901591080E+02  0.14364936164E+03 -0.25023440171E+03  0.33001840934E+03  0.15807866138E+03 0.  0.
         24    2    3    3    0    0 -0.39567042279E+02  0.90958060037E+02 -0.24363030242E+03  0.27498367533E+03  0.80133500595E+02 0.  0.
         -6    2    1    2    0  502  0.25901591080E+02 -0.14364936164E+03 -0.26760703720E+02  0.22671567193E+03  0.17139961819E+03 0.  0.
        -24    2    5    5    0    0  0.22242581800E+02 -0.15914225228E+03 -0.59853898892E+02  0.18969314397E+03  0.81117265446E+02 0.  0.
          5    1    3    3  501    0  0.13665451199E+02  0.52691301601E+02 -0.66040992942E+01  0.55034734017E+02  0.47000000000E+01 0. -1.
        -13    1    4    4    0    0  0.87970611293E+01  0.41214244211E+02 -0.16418898643E+03  0.16951113673E+03  0.00000000000E+00 0.  1.
         14    1    4    4    0    0 -0.48364103409E+02  0.49743815826E+02 -0.79441315987E+02  0.10547253859E+03  0.00000000000E+00 0. -1.
         -5    1    5    5    0  502  0.36590092797E+01  0.15492890639E+02  0.33093195172E+02  0.37022527952E+02  0.47000000000E+01 0.  1.
         13    1    6    6    0    0  0.12665509046E+02 -0.12343212295E+03 -0.58143576484E+01  0.12421638721E+03  0.00000000000E+00 0. -1.
        -14    1    6    6    0    0  0.95770727545E+01 -0.35710129324E+02 -0.54039541243E+02  0.65476756767E+02  0.00000000000E+00 0.  1.
</event>
<event>
12    1  0.8691829E-002  0.2310120E+03  0.7818608E-02  0.1125942E+00
         21   -1    0    0  503  502  0.00000000000E+00  0.00000000000E+00  0.11189361572E+03  0.11189361572E+03  0.00000000000E+00 0. -1.
         21   -1    0    0  501  503 -0.00000000000E+00 -0.00000000000E+00 -0.48828861191E+03  0.48828861191E+03  0.00000000000E+00 0. -1.
          6    2    1    2  501    0 -0.10637159063E+03  0.11360952375E+03 -0.14211879121E+03  0.27116565703E+03  0.17061952866E+03 0.  0.
         24    2    3    3    0    0 -0.17986846087E+02  0.63681608089E+02 -0.82285875193E+01  0.10307836878E+03  0.78603858786E+02 0.  0.
         -6    2    1    2    0  502  0.10637159063E+03 -0.11360952375E+03 -0.23427620498E+03  0.32901657060E+03  0.17071767433E+03 0.  0.
        -24    2    5    5    0    0 -0.68448971263E+01 -0.78148989381E+02 -0.11538459739E+03  0.16099059953E+03  0.80313452580E+02 0.  0.
          5    1    3    3  501    0 -0.88384744540E+02  0.49927915662E+02 -0.13389020369E+03  0.16808728826E+03  0.47000000000E+01 0. -1.
        -11    1    4    4    0    0  0.20344678830E+02  0.39332743298E+02 -0.29215631339E+02  0.53052085412E+02  0.00000000000E+00 0.  1.
         12    1    4    4    0    0 -0.38331524916E+02  0.24348864791E+02  0.20987043819E+02  0.50026283365E+02  0.00000000000E+00 0. -1.
         -5    1    5    5    0  502  0.11321648775E+03 -0.35460534369E+02 -0.11889160759E+03  0.16802597107E+03  0.47000000000E+01 0.  1.
         11    1    6    6    0    0  0.36678693119E+02 -0.36980553928E+02 -0.59291602323E+02  0.78920098858E+02  0.00000000000E+00 0. -1.
        -12    1    6    6    0    0 -0.43523590245E+02 -0.41168435453E+02 -0.56092995066E+02  0.82070500675E+02  0.00000000000E+00 0.  1.
</event>
<event>
12    1  0.8691829E-002  0.2045259E+03  0.7818608E-02  0.1146926E+00
         21   -1    0    0  503  502  0.00000000000E+00  0.00000000000E+00  0.15205505197E+03  0.15205505197E+03  0.00000000000E+00 0. -1.
         21   -1    0    0  501  503 -0.00000000000E+00 -0.00000000000E+00 -0.41218959365E+03  0.41218959365E+03  0.00000000000E+00 0.  1.
          6    2    1    2  501    0 -0.99736745723E+02 -0.22042395423E+02 -0.29731827614E+03  0.36087253343E+03  0.17719351684E+03 0.  0.
         24    2    3    3    0    0 -0.11125289938E+03 -0.35222139596E+02 -0.30868244062E+03  0.33948184186E+03  0.79657172067E+02 0.  0.
         -6    2    1    2    0  502  0.99736745723E+02  0.22042395423E+02  0.37183734463E+02  0.20337211220E+03  0.17188455506E+03 0.  0.
        -24    2    5    5    0    0  0.95463060411E+02 -0.15825784041E+02  0.77649629105E+02  0.14758822535E+03  0.79932271450E+02 0.  0.
          5    1    3    3  501    0  0.11516153660E+02  0.13179744173E+02  0.11364164482E+02  0.21390691573E+02  0.47000000000E+01 0. -1.
        -13    1    4    4    0    0 -0.42652005166E+02  0.20280274276E+02 -0.15752848854E+03  0.16445579275E+03  0.00000000000E+00 0.  1.
         14    1    4    4    0    0 -0.68600894217E+02 -0.55502413872E+02 -0.15115395209E+03  0.17502604910E+03  0.00000000000E+00 0. -1.
         -5    1    5    5    0  502  0.42736853116E+01  0.37868179464E+02 -0.40465894642E+02  0.55783886842E+02  0.47000000000E+01 0.  1.
         11    1    6    6    0    0 -0.63253076019E+01 -0.22550463721E+02  0.16573253650E+02  0.28691560900E+02  0.00000000000E+00 0. -1.
        -12    1    6    6    0    0  0.10178836801E+03  0.67246796796E+01  0.61076375454E+02  0.11889666445E+03  0.00000000000E+00 0.  1.
</event>
<event>
12    1  0.8691829E-002  0.1827082E+03  0.7818608E-02  0.1165976E+00
         21   -1    0    0  503  502  0.00000000000E+00  0.00000000000E+00  0.11448023880E+04  0.11448023880E+04  0.00000000000E+00 0. -1.
         21   -1    0    0  501  503 -0.00000000000E+00 -0.00000000000E+00 -0.58745532794E+02  0.58745532794E+02  0.00000000000E+00 0. -1.
          6    2    1    2  501    0 -0.50472173294E+02 -0.16451164721E+01  0.11466147510E+03  0.21570707759E+03  0.17559083907E+03 0.  0.
         24    2    3    3    0    0  0.34168204489E+02 -0.29961452367E+02  0.35790463600E+02  0.96507518508E+02  0.77250171637E+02 0.  0.
         -6    2    1    2    0  502  0.50472173294E+02  0.16451164721E+01  0.97139538009E+03  0.98784084319E+03  0.17225098063E+03 0.  0.
        -24    2    5    5    0    0 -0.10989649625E+02 -0.13835730010E+02  0.81704126182E+03  0.82091422425E+03  0.77662991391E+02 0.  0.
          5    1    3    3  501    0 -0.84640377783E+02  0.28316335895E+02  0.78871011501E+02  0.11919955908E+03  0.47000000000E+01 0. -1.
        -11    1    4    4    0    0  0.29565241948E+02  0.15273099122E+02  0.38586126356E+02  0.50953510531E+02  0.00000000000E+00 0.  1.
         12    1    4    4    0    0  0.46029625408E+01 -0.45234551489E+02 -0.27956627563E+01  0.45554007977E+02  0.00000000000E+00 0. -1.
         -5    1    5    5    0  502  0.61461822920E+02  0.15480846482E+02  0.15435411827E+03  0.16692661894E+03  0.47000000000E+01 0.  1.
         11    1    6    6    0    0 -0.32389113157E+02 -0.35658590364E+02  0.55816789113E+03  0.56024279059E+03  0.00000000000E+00 0. -1.
        -12    1    6    6    0    0  0.21399463532E+02  0.21822860354E+02  0.25887337069E+03  0.26067143366E+03  0.00000000000E+00 0.  1.
</event>
<event>
12    1  0.8691829E-002  0.2524190E+03  0.7818608E-02  0.1112340E+00
         21   -1    0    0  503  502  0.00000000000E+00  0.00000000000E+00  0.84773862194E+02  0.84773862194E+02  0.00000000000E+00 0. -1.
         21   -1    0    0  501  503 -0.00000000000E+00 -0.00000000000E+00 -0.83163706435E+03  0.83163706435E+03  0.00000000000E+00 0.  1.
          6    2    1    2  501    0 -0.18205648301E+03  0.31382910834E+02 -0.22461680140E+03  0.33788764116E+03  0.17200552458E+03 0.  0.
         24    2    3    3    0    0 -0.53069205688E+02 -0.35591492521E+02 -0.71392219718E+02  0.12664571624E+03  0.82820247969E+02 0.  0.
         -6    2    1    2    0  502  0.18205648301E+03 -0.31382910834E+02 -0.52224640076E+03  0.57852328537E+03  0.16678860429E+03 0.  0.
        -24    2    5    5    0    0  0.82712466015E+02  0.21593261725E+02 -0.17190183510E+03  0.21050275163E+03  0.86333924662E+02 0.  0.
          5    1    3    3  501    0 -0.12898727732E+03  0.66974403355E+02 -0.15322458168E+03  0.21124192492E+03  0.47000000000E+01 0. -1.
        -11    1    4    4    0    0 -0.15668065958E+02  0.19205540080E+02 -0.51871764711E+02  0.57489312353E+02  0.00000000000E+00 0.  1.
         12    1    4    4    0    0 -0.37401139729E+02 -0.54797032601E+02 -0.19520455008E+02  0.69156403888E+02  0.00000000000E+00 0. -1.
         -5    1    5    5    0  502  0.99344016993E+02 -0.52976172559E+02 -0.35034456566E+03  0.36802053374E+03  0.47000000000E+01 0.  1.
         11    1    6    6    0    0  0.10059161844E+03  0.23174679564E+02 -0.15155804371E+03  0.18337278993E+03  0.00000000000E+00 0. -1.
        -12    1    6    6    0    0 -0.17879152425E+02 -0.15814178391E+01 -0.20343791388E+02  0.27129961700E+02  0.00000000000E+00 0.  1.
</event>
<event>
12    1  0.8691829E-002  0.2055269E+03  0.7818608E-02  0.1145198E+00
         21   -1    0    0  501  502  0.00000000000E+00  0.00000000000E+00  0.42468994428E+03  0.42468994428E+03  0.00000000000E+00 0. -1.
         21   -1    0    0  502  503 -0.00000000000E+00 -0.00000000000E+00 -0.19504679113E+03  0.19504679113E+03  0.00000000000E+00 0. -1.
         -6    2    1    2    0  503 -0.30502820986E+02 -0.10778613600E+03 -0.10217730078E+03  0.22952453393E+03  0.17231667847E+03 0.  0.
        -24    2    3    3    0    0 -0.30832621005E+02 -0.23919988169E+01 -0.90179072597E+02  0.12334506134E+03  0.78264722873E+02 0.  0.
          6    2    1    2  501    0  0.30502820986E+02  0.10778613600E+03  0.33182045393E+03  0.39021220148E+03  0.17208275724E+03 0.  0.
         24    2    5    5    0    0  0.37768786676E+00  0.57525644358E+02  0.31401448423E+03  0.32878921538E+03  0.78663266126E+02 0.  0.
          5    1    5    5  501    0  0.30125133119E+02  0.50260491638E+02  0.17805969704E+02  0.61422986107E+02  0.47000000000E+01 0. -1.
        -11    1    6    6    0    0  0.16353185353E+02 -0.86134796448E+00  0.19086859142E+03  0.19156979872E+03  0.00000000000E+00 0.  1.
         12    1    6    6    0    0 -0.15975497486E+02  0.58386992322E+02  0.12314589281E+03  0.13721941666E+03  0.00000000000E+00 0. -1.
         -5    1    3    3    0  503  0.32980001952E+00 -0.10539413718E+03 -0.11998228184E+02  0.10617947259E+03  0.47000000000E+01 0.  1.
         13    1    4    4    0    0 -0.43070711189E+02 -0.14866678559E+02 -0.94875574420E+02  0.10524960292E+03  0.00000000000E+00 0. -1.
        -14    1    4    4    0    0  0.12238090184E+02  0.12474679742E+02  0.46965018226E+01  0.18095458419E+02  0.00000000000E+00 0.  1.
</event>
<event>
12    1  0.8691829E-002  0.2238732E+03  0.7818608E-02  0.1131208E+00
         21   -1    0    0  501  502  0.00000000000E+00  0.00000000000E+00  0.21120728541E+03  0.21120728541E+03  0.00000000000E+00 0.  1.
         21   -1    0    0  502  503 -0.00000000000E+00 -0.00000000000E+00 -0.23755710657E+03  0.23755710657E+03  0.00000000000E+00 0. -1.
         -6    2    1    2    0  503  0.31933844060E+02 -0.13866485414E+03  0.34187281934E+01  0.22389934428E+03  0.17283378286E+03 0.  0.
        -24    2    3    3    0    0  0.65138741305E+02 -0.15180804960E+03  0.19690942679E+02  0.18437487399E+03  0.79483466142E+02 0.  0.
          6    2    1    2  501    0 -0.31933844060E+02  0.13866485414E+03 -0.29768549350E+02  0.22486504770E+03  0.17155293928E+03 0.  0.
         24    2    5    5    0    0  0.41008670535E+02  0.97020579393E+02  0.83949477250E+01  0.13248865156E+03  0.79925363680E+02 0.  0.
          5    1    5    5  501    0 -0.72942514596E+02  0.41644274743E+02 -0.38163497075E+02  0.92376396138E+02  0.47000000000E+01 0. -1.
        -13    1    6    6    0    0 -0.22547031185E+02  0.27453696317E+02  0.13785910110E+02  0.38106762842E+02  0.00000000000E+00 0.  1.
         14    1    6    6    0    0  0.63555701721E+02  0.69566883076E+02 -0.53909623847E+01  0.94381888716E+02  0.00000000000E+00 0. -1.
         -5    1    3    3    0  503 -0.33204897245E+02  0.13143195468E+02 -0.16272214485E+02  0.39524470299E+02  0.47000000000E+01 0.  1.
         11    1    4    4    0    0  0.50594279411E+02 -0.43501641695E+02 -0.17429828150E+02  0.68963561745E+02  0.00000000000E+00 0. -1.
        -12    1    4    4    0    0  0.14544461894E+02 -0.10830640791E+03  0.37120770828E+02  0.11541131224E+03  0.00000000000E+00 0.  1.
</event>
<event>
12    1  0.8691829E-002  0.1807466E+03  0.7818608E-02  0.1168504E+00
         21   -1    0    0  501  502  0.00000000000E+00  0.00000000000E+00  0.41569618850E+02  0.41569618850E+02  0.00000000000E+00 0.  1.
         21   -1    0    0  502  503 -0.00000000000E+00 -0.00000000000E+00 -0.17766333260E+04  0.17766333260E+04  0.00000000000E+00 0.  1.
         -6    2    1    2    0  503 -0.37327571288E+01 -0.51229071188E+02 -0.15488345365E+04  0.15586829538E+04  0.16722971619E+03 0.  0.
        -24    2    3    3    0    0  0.46502539808E+01 -0.29299037523E+02 -0.15132110336E+04  0.15157606379E+04  0.82720134034E+02 0.  0.
          6    2    1    2  501    0  0.37327571288E+01  0.51229071188E+02 -0.18622917066E+03  0.25951999100E+03  0.17329446187E+03 0.  0.
         24    2    5    5    0    0 -0.12477083470E+02  0.91916077919E+02 -0.88560990961E+02  0.15237824016E+03  0.82291165752E+02 0.  0.
          5    1    5    5  501    0  0.16209840599E+02 -0.40687006731E+02 -0.97668179700E+02  0.10714175085E+03  0.47000000000E+01 0. -1.
        -13    1    6    6    0    0 -0.46342421411E+02  0.38493147069E+02 -0.36351231040E+02  0.70361597421E+02  0.00000000000E+00 0.  1.
         14    1    6    6    0    0  0.33865337940E+02  0.53422930851E+02 -0.52209759920E+02  0.82016642734E+02  0.00000000000E+00 0. -1.
         -5    1    3    3    0  503 -0.83830111095E+01 -0.21930033665E+02 -0.35623502829E+02  0.42922315940E+02  0.47000000000E+01 0.  1.
         13    1    4    4    0    0  0.31221744580E+02 -0.46493562575E+02 -0.91365380691E+03  0.91536862934E+03  0.00000000000E+00 0. -1.
        -14    1    4    4    0    0 -0.26571490600E+02  0.17194525052E+02 -0.59955722672E+03  0.60039200854E+03  0.00000000000E+00 0.  1.
</event>
<event>
12    1  0.8691829E-002  0.2008728E+03  0.7818608E-02  0.1149509E+00
         21   -1    0    0  501  502  0.00000000000E+00  0.00000000000E+00  0.47836569460E+02  0.47836569460E+02  0.00000000000E+00 0. -1.
         21   -1    0    0  502  503 -0.00000000000E+00 -0.00000000000E+00 -0.90140769198E+03  0.90140769198E+03  0.00000000000E+00 0.  1.
         -6    2    1    2    0  503  0.10415331320E+03 -0.58127589684E+01 -0.55470683393E+03  0.58914742209E+03  0.16885885388E+03 0.  0.
        -24    2    3    3    0    0  0.63630028483E+02 -0.43038802712E+02 -0.49653154590E+03  0.50893290299E+03  0.81043226797E+02 0.  0.
          6    2    1    2  501    0 -0.10415331320E+03  0.58127589684E+01 -0.29886428859E+03  0.36009683935E+03  0.17166295435E+03 0.  0.
         24    2    5    5    0    0 -0.60439016532E+01  0.25289701658E+02 -0.65356467998E+02  0.10602440832E+03  0.79332272707E+02 0.  0.
          5    1    5    5  501    0 -0.98109411548E+02 -0.19476942690E+02 -0.23350782059E+03  0.25407243103E+03  0.47000000000E+01 0. -1.
        -11    1    6    6    0    0 -0.29730439713E+02  0.30280681439E+02 -0.69533543399E+02  0.81460004736E+02  0.00000000000E+00 0.  1.
         12    1    6    6    0    0  0.23686538060E+02 -0.49909797809E+01  0.41770754011E+01  0.24564403582E+02  0.00000000000E+00 0. -1.
         -5    1    3    3    0  503  0.40523284718E+02  0.37226043744E+02 -0.58175288026E+02  0.80214519098E+02  0.47000000000E+01 0.  1.
         11    1    4    4    0    0  0.15809776878E+02  0.24131262816E+02 -0.11149846309E+03  0.11517019649E+03  0.00000000000E+00 0. -1.
        -12    1    4    4    0    0  0.47820251606E+02 -0.67170065528E+02 -0.38503308282E+03  0.39376270650E+03  0.00000000000E+00 0.  1.
</event>
<event>
12    1  0.8691829E-002  0.2420528E+03  0.7818608E-02  0.1118889E+00
         21   -1    0    0  501  502  0.00000000000E+00  0.00000000000E+00  0.35951804243E+03  0.35951804243E+03  0.00000000000E+00 0. -1.
         21   -1    0    0  502  503 -0.00000000000E+00 -0.00000000000E+00 -0.16150234361E+03  0.16150234361E+03  0.00000000000E+00 0.  1.
         -6    2    1    2    0  503  0.41657511768E+02 -0.16659274694E+03  0.11227420756E+03  0.26682399048E+03  0.17059030628E+03 0.  0.
        -24    2    3    3    0    0  0.56020318977E+02 -0.28611646965E+02  0.33606109552E+02  0.10727514585E+03  0.80135409386E+02 0.  0.
          6    2    1    2  501    0 -0.41657511768E+02  0.16659274694E+03  0.85741491256E+02  0.25419639555E+03  0.16666047092E+03 0.  0.
         24    2    5    5    0    0  0.37494466573E+02  0.11700610568E+03  0.50555516285E+02  0.15427636002E+03  0.78416013942E+02 0.  0.
          5    1    5    5  501    0 -0.79151978341E+02  0.49586641256E+02  0.35185974971E+02  0.99920035533E+02  0.47000000000E+01 0. -1.
        -11    1    6    6    0    0  0.35339017834E+02  0.12746217198E+03  0.37644058026E+02  0.13752282200E+03  0.00000000000E+00 0.  1.
         12    1    6    6    0    0  0.21554487393E+01 -0.10456066295E+02  0.12911458259E+02  0.16753538015E+02  0.00000000000E+00 0. -1.
         -5    1    3    3    0  503 -0.14362807209E+02 -0.13798109997E+03  0.78668098009E+02  0.15954884464E+03  0.47000000000E+01 0.  1.
         13    1    4    4    0    0  0.57342965710E+02 -0.22316138796E+02 -0.10741980584E+02  0.62462916311E+02  0.00000000000E+00 0. -1.
        -14    1    4    4    0    0 -0.13226467329E+01 -0.62955081697E+01  0.44348090136E+02  0.44812229539E+02  0.00000000000E+00 0.  1.
</event>
<event>
12    1  0.8691829E-002  0.2258772E+03  0.7818608E-02  0.1129620E+00
         21   -1    0    0  503  502  0.00000000000E+00  0.00000000000E+00  0.60024689988E+03  0.60024689988E+03  0.00000000000E+00 0.  1.
         21   -1    0    0  501  503 -0.00000000000E+00 -0.00000000000E+00 -0.12434450167E+03  0.12434450167E+03  0.00000000000E+00 0. -1.
          6    2    1    2  501    0  0.30588081071E+02 -0.14369430474E+03  0.33829114306E+02  0.22815481706E+03  0.17124989827E+03 0.  0.
         24    2    3    3    0    0 -0.24172226117E+02 -0.11986462909E+02  0.77836284715E+01  0.83082062295E+02  0.78192534136E+02 0.  0.
         -6    2    1    2    0  502 -0.30588081071E+02  0.14369430474E+03  0.44207328391E+03  0.49643658448E+03  0.17157158899E+03 0.  0.
        -24    2    5    5    0    0  0.33219847368E+02  0.85120150034E+02  0.15833721156E+03  0.19973701913E+03  0.80468664977E+02 0.  0.
          5    1    3    3  501    0  0.54760307189E+02 -0.13170784183E+03  0.26045485834E+02  0.14507275477E+03  0.47000000000E+01 0. -1.
        -13    1    4    4    0    0 -0.33373085796E+01 -0.82542456747E+01  0.41953313440E+02  0.42887652172E+02  0.00000000000E+00 0.  1.
         14    1    4    4    0    0 -0.20834917538E+02 -0.37322172342E+01 -0.34169684969E+02  0.40194410123E+02  0.00000000000E+00 0. -1.
         -5    1    5    5    0  502 -0.63807928440E+02  0.58574154708E+02  0.28373607235E+03  0.29669956536E+03  0.47000000000E+01 0.  1.
         11    1    6    6    0    0  0.36570122658E+02  0.24046312368E+02  0.19287455778E+02  0.47828913432E+02  0.00000000000E+00 0. -1.
        -12    1    6    6    0    0 -0.33502752903E+01  0.61073837666E+02  0.13904975578E+03  0.15190810569E+03  0.00000000000E+00 0.  1.
</event>
<event>
12    1  0.8691829E-002  0.1744573E+03  0.7818608E-02  0.1173598E+00
         21   -1    0    0  501  502  0.00000000000E+00  0.00000000000E+00  0.18270017485E+03  0.18270017485E+03  0.00000000000E+00 0. -1.
         21   -1    0    0  502  503 -0.00000000000E+00 -0.00000000000E+00 -0.41609229820E+03  0.41609229820E+03  0.00000000000E+00 0. -1.
         -6    2    1    2    0  503 -0.18874867480E+02 -0.23359765096E+02 -0.34926613842E+03  0.39041285387E+03  0.17185290735E+03 0.  0.
        -24    2    3    3    0    0  0.56493329708E+01 -0.86472080250E+01 -0.35200244958E+03  0.36130146190E+03  0.80785720843E+02 0.  0.
          6    2    1    2  501    0  0.18874867480E+02  0.23359765096E+02  0.11587401508E+03  0.20837961919E+03  0.17056769646E+03 0.  0.
         24    2    5    5    0    0  0.43765711380E+02 -0.41493378163E+02  0.88618965555E+02  0.13361056125E+03  0.79757903044E+02 0.  0.
          5    1    5    5  501    0 -0.24890843900E+02  0.64853143259E+02  0.27255049521E+02  0.74769057939E+02  0.47000000000E+01 0. -1.
        -11    1    6    6    0    0 -0.83707334508E+01 -0.33922364309E+02  0.57456497585E+01  0.35409157996E+02  0.00000000000E+00 0.  1.
         12    1    6    6    0    0  0.52136444831E+02 -0.75710138539E+01  0.82873315796E+02  0.98201403256E+02  0.00000000000E+00 0. -1.
         -5    1    3    3    0  503 -0.24524200451E+02 -0.14712557071E+02  0.27363111560E+01  0.29111391964E+02  0.47000000000E+01 0.  1.
         11    1    4    4    0    0  0.27764840981E+02  0.27447073114E+02 -0.16135056995E+03  0.16600673071E+03  0.00000000000E+00 0. -1.
        -12    1    4    4    0    0 -0.22115508010E+02 -0.36094281138E+02 -0.19065187963E+03  0.19529473119E+03  0.00000000000E+00 0.  1.
</event>
<event>
12    1  0.8691829E-002  0.3866432E+03  0.7818608E-02  0.1048517E+00
         21   -1    0    0  501  502  0.00000000000E+00  0.00000000000E+00  0.31196228233E+03  0.31196228233E+03  0.00000000000E+00 0. -1.
         21   -1    0    0  502  503 -0.00000000000E+00 -0.00000000000E+00 -0.56762532781E+03  0.56762532781E+03  0.00000000000E+00 0.  1.
         -6    2    1    2    0  503  0.33748443418E+03  0.77515241048E+02 -0.30159079234E+03  0.49035694531E+03  0.17201328986E+03 0.  0.
        -24    2    3    3    0    0  0.34610579202E+03  0.74023572775E+02 -0.30971720772E+03  0.47714149279E+03  0.80439708997E+02 0.  0.
          6    2    1    2  501    0 -0.33748443418E+03 -0.77515241048E+02  0.45927746855E+02  0.38923066482E+03  0.17171719948E+03 0.  0.
         24    2    5    5    0    0 -0.68153696286E+02  0.25837043828E+01  0.39985174378E+01  0.10509154799E+03  0.79853888270E+02 0.  0.
          5    1    5    5  501    0 -0.26933073789E+03 -0.80098945431E+02  0.41929229418E+02  0.28413911683E+03  0.47000000000E+01 0. -1.
        -11    1    6    6    0    0 -0.81980983106E+02 -0.48754581299E+01  0.17967786996E+02  0.84068383192E+02  0.00000000000E+00 0.  1.
         12    1    6    6    0    0  0.13827286820E+02  0.74591625128E+01 -0.13969269558E+02  0.21023164799E+02  0.00000000000E+00 0. -1.
         -5    1    3    3    0  503 -0.86213578443E+01  0.34916682725E+01  0.81264153872E+01  0.13215452525E+02  0.47000000000E+01 0.  1.
         11    1    4    4    0    0  0.93161697566E+02  0.40013323342E+02 -0.50139115212E+02  0.11311100217E+03  0.00000000000E+00 0. -1.
        -12    1    4    4    0    0  0.25294409445E+03  0.34010249433E+02 -0.25957809251E+03  0.36403049062E+03  0.00000000000E+00 0.  1.
</event>
<event>
12    1  0.8691829E-002  0.2489974E+03  0.7818608E-02  0.1114840E+00
         21   -1    0    0  503  502  0.00000000000E+00  0.00000000000E+00  0.11492626752E+03  0.11492626752E+03  0.00000000000E+00 0.  1.
         21   -1    0    0  501  503 -0.00000000000E+00 -0.00000000000E+00 -0.55867946943E+03  0.55867946943E+03  0.00000000000E+00 0. -1.
          6    2    1    2  501    0 -0.53582399723E+01 -0.17165729802E+03 -0.29916684572E+03  0.38567356127E+03  0.17247711611E+03 0.  0.
         24    2    3    3    0    0 -0.35499688294E+01 -0.24780127061E+02 -0.60720085486E+02  0.10557514881E+03  0.82659096833E+02 0.  0.
         -6    2    1    2    0  502  0.53582399723E+01  0.17165729802E+03 -0.14458635618E+03  0.28793217568E+03  0.18029083364E+03 0.  0.
        -24    2    5    5    0    0  0.80346000609E+02  0.10537297643E+03 -0.11298230399E+03  0.18287180422E+03  0.55840413590E+02 0.  0.
          5    1    3    3  501    0 -0.18082711429E+01 -0.14687717096E+03 -0.23844676024E+03  0.28009841246E+03  0.47000000000E+01 0. -1.
        -11    1    4    4    0    0  0.43452989468E+01  0.26221494358E+02 -0.43854260098E+02  0.51280059653E+02  0.00000000000E+00 0.  1.
         12    1    4    4    0    0 -0.78952677762E+01 -0.51001621419E+02 -0.16865825388E+02  0.54295089157E+02  0.00000000000E+00 0. -1.
         -5    1    5    5    0  502 -0.74987760636E+02  0.66284321593E+02 -0.31604052195E+02  0.10506037145E+03  0.47000000000E+01 0.  1.
         11    1    6    6    0    0  0.11586101926E+02 -0.55540154884E+01 -0.63113928593E+01  0.14314975575E+02  0.00000000000E+00 0. -1.
        -12    1    6    6    0    0  0.68759898683E+02  0.11092699192E+03 -0.10667091113E+03  0.16855682865E+03  0.00000000000E+00 0.  1.
</event>
<event>
12    1  0.8691829E-002  0.2020498E+03  0.7818608E-02  0.1149541E+00
         21   -1    0    0  501  502  0.00000000000E+00  0.00000000000E+00  0.19902469891E+02  0.19902469891E+02  0.00000000000E+00 0. -1.
         21   -1    0    0  502  503 -0.00000000000E+00 -0.00000000000E+00 -0.19973140374E+04  0.19973140374E+04  0.00000000000E+00 0. -1.
         -6    2    1    2    0  503  0.57444690052E+02  0.88744493811E+02 -0.10672446034E+04  0.10848925262E+04  0.16372315776E+03 0.  0.
        -24    2    3    3    0    0  0.67003856753E+02  0.19818842508E+01 -0.51203517121E+03  0.52284383468E+03  0.81805954657E+02 0.  0.
          6    2    1    2  501    0 -0.57444690052E+02 -0.88744493811E+02 -0.91016696415E+03  0.93232398110E+03  0.17218776237E+03 0.  0.
         24    2    5    5    0    0 -0.12691351500E+02  0.25789895438E+01 -0.22218061481E+03  0.23684562285E+03  0.81017910820E+02 0.  0.
          5    1    5    5  501    0 -0.44753338552E+02 -0.91323483354E+02 -0.68798634933E+03  0.69547835825E+03  0.47000000000E+01 0. -1.
        -11    1    6    6    0    0 -0.41459544737E+02  0.17319603867E+02 -0.87766581728E+02  0.98599368132E+02  0.00000000000E+00 0.  1.
         12    1    6    6    0    0  0.28768193237E+02 -0.14740614323E+02 -0.13441403309E+03  0.13824625472E+03  0.00000000000E+00 0. -1.
         -5    1    3    3    0  503 -0.95591667009E+01  0.86762609560E+02 -0.55520943215E+03  0.56204869152E+03  0.47000000000E+01 0.  1.
         11    1    4    4    0    0 -0.10575731013E+02  0.26360664308E+01 -0.98171954935E+01  0.14668751141E+02  0.00000000000E+00 0. -1.
        -12    1    4    4    0    0  0.77579587766E+02 -0.65418217994E+00 -0.50221797572E+03  0.50817508354E+03  0.00000000000E+00 0.  1.
</event>
<event>
12    1  0.8691829E-002  0.2887808E+03  0.7818608E-02  0.1091102E+00
         21   -1    0    0  503  502  0.00000000000E+00  0.00000000000E+00  0.53563530148E+02  0.53563530148E+02  0.00000000000E+00 0.  1.
         21   -1    0    0  501  503 -0.00000000000E+00 -0.00000000000E+00 -0.18119194202E+04  0.18119194202E+04  0.00000000000E+00 0. -1.
          6    2    1    2  501    0  0.22272097042E+03  0.64121753553E+02 -0.12334504741E+04  0.12668048011E+04  0.17227333500E+03 0.  0.
         24    2    3    3    0    0  0.16091030519E+03 -0.33396825608E+01 -0.58683488183E+03  0.61373097837E+03  0.79920307062E+02 0.  0.
         -6    2    1    2    0  502 -0.22272097042E+03 -0.64121753553E+02 -0.52490541593E+03  0.59867814928E+03  0.17080281266E+03 0.  0.
        -24    2    5    5    0    0 -0.21157148680E+03 -0.85821704144E+02 -0.51961900864E+03  0.57327667408E+03  0.80711659460E+02 0.  0.
          5    1    3    3  501    0  0.61810665231E+02  0.67461436113E+02 -0.64661559232E+03  0.65307382272E+03  0.47000000000E+01 0. -1.
        -11    1    4    4    0    0  0.13878289740E+03  0.20409125455E+02 -0.39498168833E+03  0.41915123658E+03  0.00000000000E+00 0.  1.
         12    1    4    4    0    0  0.22127407791E+02 -0.23748808015E+02 -0.19185319350E+03  0.19457974178E+03  0.00000000000E+00 0. -1.
         -5    1    5    5    0  502 -0.11149483613E+02  0.21699950591E+02 -0.52864072902E+01  0.25401475204E+02  0.47000000000E+01 0.  1.
         11    1    6    6    0    0 -0.11609186409E+03 -0.44905691417E+02 -0.18557889352E+03  0.22345775384E+03  0.00000000000E+00 0. -1.
        -12    1    6    6    0    0 -0.95479622717E+02 -0.40916012727E+02 -0.33404011512E+03  0.34981892024E+03  0.00000000000E+00 0.  1.
</event>
<event>
12    1  0.8691829E-002  0.1811591E+03  0.7818608E-02  0.1168340E+00
         21   -1    0    0  503  502  0.00000000000E+00  0.00000000000E+00  0.11346936634E+04  0.11346936634E+04  0.00000000000E+00 0. -1.
         21   -1    0    0  501  503 -0.00000000000E+00 -0.00000000000E+00 -0.59387824027E+02  0.59387824027E+02  0.00000000000E+00 0. -1.
          6    2    1    2  501    0  0.32602140640E+02 -0.51674028734E+02  0.96787682925E+03  0.98346431379E+03  0.16335052826E+03 0.  0.
         24    2    3    3    0    0 -0.40960170901E+02 -0.28481233976E+02  0.44448806208E+03  0.45440173620E+03  0.80139779396E+02 0.  0.
         -6    2    1    2    0  502 -0.32602140640E+02  0.51674028734E+02  0.10742901011E+03  0.21061717362E+03  0.17054470614E+03 0.  0.
        -24    2    5    5    0    0 -0.31361131290E+02 -0.38418146200E+02  0.37848942765E+02  0.96680279420E+02  0.73858374251E+02 0.  0.
          5    1    3    3  501    0  0.73562311541E+02 -0.23192794758E+02  0.52338876717E+03  0.52906257759E+03  0.47000000000E+01 0. -1.
        -11    1    4    4    0    0 -0.42909606338E+02  0.15137523397E+02  0.15173200533E+03  0.15840763988E+03  0.00000000000E+00 0.  1.
         12    1    4    4    0    0  0.19494354374E+01 -0.43618757373E+02  0.29275605675E+03  0.29599409632E+03  0.00000000000E+00 0. -1.
         -5    1    5    5    0  502 -0.12410093499E+01  0.90092174934E+02  0.69580067342E+02  0.11393689420E+03  0.47000000000E+01 0.  1.
         11    1    6    6    0    0  0.13795240911E+02  0.12849053666E+02  0.58834967431E+00  0.18861415833E+02  0.00000000000E+00 0. -1.
        -12    1    6    6    0    0 -0.45156372201E+02 -0.51267199866E+02  0.37260593091E+02  0.77818863587E+02  0.00000000000E+00 0.  1.
</event>
<event>
12    1  0.8691829E-002  0.2068830E+03  0.7818608E-02  0.1144183E+00
         21   -1    0    0  503  502  0.00000000000E+00  0.00000000000E+00  0.24482592977E+03  0.24482592977E+03  0.00000000000E+00 0. -1.
         21   -1    0    0  501  503 -0.00000000000E+00 -0.00000000000E+00 -0.37269206081E+03  0.37269206081E+03  0.00000000000E+00 0.  1.
          6    2    1    2  501    0 -0.10006638870E+03  0.54144424925E+02 -0.28916013523E+03  0.35518934859E+03  0.17204937852E+03 0.  0.
         24    2    3    3    0    0 -0.72441408424E+02 -0.17341814138E+02 -0.88703214507E+02  0.14053034231E+03  0.79573994966E+02 0.  0.
         -6    2    1    2    0  502  0.10006638870E+03 -0.54144424925E+02  0.16129400418E+03  0.26232864198E+03  0.17278790386E+03 0.  0.
        -24    2    5    5    0    0 -0.59094208257E+01 -0.60662645118E+02  0.71046224742E+02  0.12290084313E+03  0.79637763807E+02 0.  0.
          5    1    3    3  501    0 -0.27624980278E+02  0.71486239063E+02 -0.20045692073E+03  0.21465900628E+03  0.47000000000E+01 0. -1.
        -13    1    4    4    0    0 -0.51701982762E+02  0.49261593348E+01 -0.96080206222E+02  0.10921889990E+03  0.00000000000E+00 0.  1.
         14    1    4    4    0    0 -0.20739425662E+02 -0.22267973473E+02  0.73769917147E+01  0.31311442416E+02  0.00000000000E+00 0. -1.
         -5    1    5    5    0  502  0.10597580953E+03  0.65182201929E+01  0.90247779443E+02  0.13942779886E+03  0.47000000000E+01 0.  1.
         11    1    6    6    0    0 -0.71198906166E+01 -0.70167727706E+02  0.82125165369E+02  0.10825315534E+03  0.00000000000E+00 0. -1.
        -12    1    6    6    0    0  0.12104697909E+01  0.95050825888E+01 -0.11078940627E+02  0.14647687789E+02  0.00000000000E+00 0.  1.
</event>
<event>
12    1  0.8691829E-002  0.1961693E+03  0.7818608E-02  0.1153732E+00
         21   -1    0    0  503  502  0.00000000000E+00  0.00000000000E+00  0.75971607893E+03  0.75971607893E+03  0.00000000000E+00 0.  1.
         21   -1    0    0  501  503 -0.00000000000E+00 -0.00000000000E+00 -0.49861643952E+02  0.49861643952E+02  0.00000000000E+00 0.  1.
          6    2    1    2  501    0  0.80791298182E+02 -0.49156754371E+02  0.34434598954E+03  0.39630360763E+03  0.17186846291E+03 0.  0.
         24    2    3    3    0    0  0.85908590301E+02  0.20490206435E+02  0.26538984314E+03  0.29079034362E+03  0.79543199905E+02 0.  0.
         -6    2    1    2    0  502 -0.80791298182E+02  0.49156754371E+02  0.36550844543E+03  0.41327411525E+03  0.16809357599E+03 0.  0.
        -24    2    5    5    0    0 -0.92289106114E+01  0.75162653397E+02  0.16384640678E+03  0.19766532616E+03  0.80568845681E+02 0.  0.
          5    1    3    3  501    0 -0.51172921192E+01 -0.69646960806E+02  0.78956146400E+02  0.10551326401E+03  0.47000000000E+01 0. -1.
        -13    1    4    4    0    0  0.48185111763E+02  0.23644873695E+02  0.54363406206E+02  0.76395451317E+02  0.00000000000E+00 0.  1.
         14    1    4    4    0    0  0.37723478538E+02 -0.31546672605E+01  0.21102643694E+03  0.21439489230E+03  0.00000000000E+00 0. -1.
         -5    1    5    5    0  502 -0.71562387570E+02 -0.26005899027E+02  0.20166203865E+03  0.21560878909E+03  0.47000000000E+01 0.  1.
         11    1    6    6    0    0  0.18504879079E+02 -0.14539921059E+01  0.51341091400E+01  0.19258860803E+02  0.00000000000E+00 0. -1.
        -12    1    6    6    0    0 -0.27733789691E+02  0.76616645503E+02  0.15871229764E+03  0.17840646536E+03  0.00000000000E+00 0.  1.
</event>
<event>
12    1  0.8691829E-002  0.1812676E+03  0.7818608E-02  0.1167110E+00
         21   -1    0    0  501  502  0.00000000000E+00  0.00000000000E+00  0.18611518109E+03  0.18611518109E+03  0.00000000000E+00 0. -1.
         21   -1    0    0  502  503 -0.00000000000E+00 -0.00000000000E+00 -0.20877771654E+03  0.20877771654E+03  0.00000000000E+00 0.  1.
         -6    2    1    2    0  503 -0.56767297028E+02  0.34167736995E+01 -0.91369458024E+02  0.20104094556E+03  0.16980837310E+03 0.  0.
        -24    2    3    3    0    0 -0.17353210277E+02 -0.42304204607E+02  0.99763739321E+00  0.90597981057E+02  0.78206260983E+02 0.  0.
          6    2    1    2  501    0  0.56767297028E+02 -0.34167736995E+01  0.68706922579E+02  0.19385195207E+03  0.17211547797E+03 0.  0.
         24    2    5    5    0    0 -0.49704166566E+00  0.49707087484E+02  0.67013161991E+02  0.11558121720E+03  0.79982574929E+02 0.  0.
          5    1    5    5  501    0  0.57264338694E+02 -0.53123861183E+02  0.16937605880E+01  0.78270734876E+02  0.47000000000E+01 0. -1.
        -11    1    6    6    0    0  0.23166348335E+02 -0.11336205992E+02  0.68954121025E+01  0.26697115378E+02  0.00000000000E+00 0.  1.
         12    1    6    6    0    0 -0.23663390000E+02  0.61043293475E+02  0.60117749889E+02  0.88884101820E+02  0.00000000000E+00 0. -1.
         -5    1    3    3    0  503 -0.39414086751E+02  0.45720978306E+02 -0.92367095417E+02  0.11044296450E+03  0.47000000000E+01 0.  1.
         13    1    4    4    0    0 -0.47294776826E+02 -0.15183594258E+02 -0.42801114777E+01  0.49856361719E+02  0.00000000000E+00 0. -1.
        -14    1    4    4    0    0  0.29941566549E+02 -0.27120610349E+02  0.52777488709E+01  0.40741619338E+02  0.00000000000E+00 0.  1.
</event>
<event>
12    1  0.8691829E-002  0.1740259E+03  0.7818608E-02  0.1174947E+00
         21   -1    0    0  501  502  0.00000000000E+00  0.00000000000E+00  0.88700402648E+03  0.88700402648E+03  0.00000000000E+00 0.  1.
         21   -1    0    0  502  503 -0.00000000000E+00 -0.00000000000E+00 -0.35703369289E+02  0.35703369289E+02  0.00000000000E+00 0.  1.
         -6    2    1    2    0  503  0.26545607906E+02 -0.93336031516E+00  0.30919829108E+03  0.35480784335E+03  0.17198686588E+03 0.  0.
        -24    2    3    3    0    0  0.44201926962E+02 -0.56365105231E+02  0.24835017563E+03  0.27049291525E+03  0.79735638377E+02 0.  0.
          6    2    1    2  501    0 -0.26545607906E+02  0.93336031516E+00  0.54210236611E+03  0.56789955243E+03  0.16712087194E+03 0.  0.
         24    2    5    5    0    0 -0.22020000480E+02 -0.55462136276E+02  0.43828413956E+03  0.44957268598E+03  0.80384600556E+02 0.  0.
          5    1    5    5  501    0 -0.45256074257E+01  0.56395496592E+02  0.10381822656E+03  0.11832686645E+03  0.47000000000E+01 0. -1.
        -13    1    6    6    0    0 -0.34222335362E+02 -0.43260320380E+02  0.42281475360E+03  0.42639763064E+03  0.00000000000E+00 0.  1.
         14    1    6    6    0    0  0.12202334881E+02 -0.12201815896E+02  0.15469385957E+02  0.23175055331E+02  0.00000000000E+00 0. -1.
         -5    1    3    3    0  503 -0.17656319055E+02  0.55431744916E+02  0.60848115446E+02  0.84314928099E+02  0.47000000000E+01 0.  1.
         13    1    4    4    0    0  0.54333426105E+01 -0.43750867010E+01  0.16373196303E+03  0.16388050010E+03  0.00000000000E+00 0. -1.
        -14    1    4    4    0    0  0.38768584351E+02 -0.51990018530E+02  0.84618212604E+02  0.10661241515E+03  0.00000000000E+00 0.  1.
</event>
<event>
12    1  0.8691829E-002  0.1822716E+03  0.7818608E-02  0.1166115E+00
         21   -1    0    0  503  502  0.00000000000E+00  0.00000000000E+00  0.22710685875E+03  0.22710685875E+03  0.00000000000E+00 0.  1.
         21   -1    0    0  501  503 -0.00000000000E+00 -0.00000000000E+00 -0.17917488256E+03  0.17917488256E+03  0.00000000000E+00 0.  1.
          6    2    1    2  501    0  0.57157270268E+02 -0.20970555523E+02 -0.65323488139E+02  0.19168975131E+03  0.16962041419E+03 0.  0.
         24    2    3    3    0    0  0.89366348476E+02  0.27757015260E+02 -0.55568432625E+02  0.13228392683E+03  0.75195681114E+02 0.  0.
         -6    2    1    2    0  502 -0.57157270268E+02  0.20970555523E+02  0.11325546433E+03  0.21459199001E+03  0.17180280624E+03 0.  0.
        -24    2    5    5    0    0  0.20398066822E+02 -0.38958186531E+01  0.96586340732E+01  0.82730092119E+02  0.79496669093E+02 0.  0.
          5    1    3    3  501    0 -0.32209078209E+02 -0.48727570783E+02 -0.97550555138E+01  0.59405824475E+02  0.47000000000E+01 0. -1.
        -13    1    4    4    0    0  0.43415474923E+02  0.10803675589E+02 -0.68326619827E+02  0.81670985337E+02  0.00000000000E+00 0.  1.
         14    1    4    4    0    0  0.45950873554E+02  0.16953339671E+02  0.12758187202E+02  0.50612941497E+02  0.00000000000E+00 0. -1.
         -5    1    5    5    0  502 -0.77555337090E+02  0.24866374177E+02  0.10359683025E+03  0.13186189789E+03  0.47000000000E+01 0.  1.
         11    1    6    6    0    0 -0.16943769751E+02  0.26056655466E+02  0.15093656214E+02  0.34552265994E+02  0.00000000000E+00 0. -1.
        -12    1    6    6    0    0  0.37341836573E+02 -0.29952474119E+02 -0.54350221408E+01  0.48177826125E+02  0.00000000000E+00 0.  1.
</event>
<event>
12    1  0.8691829E-002  0.1878392E+03  0.7818608E-02  0.1160432E+00
         21   -1    0    0  503  502  0.00000000000E+00  0.00000000000E+00  0.15010811581E+03  0.15010811581E+03  0.00000000000E+00 0.  1.
         21   -1    0    0  501  503 -0.00000000000E+00 -0.00000000000E+00 -0.30108305295E+03  0.30108305295E+03  0.00000000000E+00 0.  1.
          6    2    1    2  501    0  0.53480552164E+02 -0.52535877121E+02 -0.18116050844E+03  0.26094199943E+03  0.17219584607E+03 0.  0.
         24    2    3    3    0    0 -0.46743238685E+00  0.33238399071E+02 -0.90378862920E+02  0.12481335198E+03  0.79404183164E+02 0.  0.
         -6    2    1    2    0  502 -0.53480552164E+02  0.52535877121E+02  0.30185571306E+02  0.19024916932E+03  0.17223062988E+03 0.  0.
        -24    2    5    5    0    0  0.34255846222E+02  0.49213393661E+02  0.22385506525E+02  0.10197887133E+03  0.79392431493E+02 0.  0.
          5    1    3    3  501    0  0.53947984551E+02 -0.85774276192E+02 -0.90781645522E+02  0.13612864745E+03  0.47000000000E+01 0. -1.
        -13    1    4    4    0    0 -0.15672877346E+02  0.16425761490E+02 -0.98233086928E+02  0.10082253762E+03  0.00000000000E+00 0.  1.
         14    1    4    4    0    0  0.15205444960E+02  0.16812637581E+02  0.78542240080E+01  0.23990814359E+02  0.00000000000E+00 0. -1.
         -5    1    5    5    0  502 -0.87736398386E+02  0.33224834604E+01  0.78000647810E+01  0.88270297998E+02  0.47000000000E+01 0.  1.
         11    1    6    6    0    0  0.50573241156E+02  0.24056208569E+02 -0.11033076675E+02  0.57079616963E+02  0.00000000000E+00 0. -1.
        -12    1    6    6    0    0 -0.16317394934E+02  0.25157185092E+02  0.33418583200E+02  0.44899254363E+02  0.00000000000E+00 0.  1.
</event>
<event>
12    1  0.8691829E-002  0.3015378E+03  0.7818608E-02  0.1084475E+00
         21   -1    0    0  503  502  0.00000000000E+00  0.00000000000E+00  0.14365013855E+03  0.14365013855E+03  0.00000000000E+00 0.  1.
         21   -1    0    0  501  503 -0.00000000000E+00 -0.00000000000E+00 -0.70679676997E+03  0.70679676997E+03  0.00000000000E+00 0. -1.
          6    2    1    2  501    0  0.12796866620E+03  0.21140632410E+03 -0.14412966106E+03  0.33421312882E+03  0.17279017009E+03 0.  0.
         24    2    3    3    0    0  0.77710454594E+02  0.38599738161E+02 -0.26576962416E+02  0.11920445240E+03  0.77294967501E+02 0.  0.
         -6    2    1    2    0  502 -0.12796866620E+03 -0.21140632410E+03 -0.41901697035E+03  0.51623377971E+03  0.17278159759E+03 0.  0.
        -24    2    5    5    0    0 -0.11273790220E+03 -0.14858300042E+03 -0.40018480843E+03  0.44873943555E+03  0.80202602901E+02 0.  0.
          5    1    3    3  501    0  0.50258211607E+02  0.17280658594E+03 -0.11755269865E+03  0.21500867642E+03  0.47000000000E+01 0. -1.
        -11    1    4    4    0    0 -0.11639245970E+02  0.16284633613E+02 -0.17635620461E+02  0.26677264621E+02  0.00000000000E+00 0.  1.
         12    1    4    4    0    0  0.89349700564E+02  0.22315104548E+02 -0.89413419559E+01  0.92527187777E+02  0.00000000000E+00 0. -1.
         -5    1    5    5    0  502 -0.15230764003E+02 -0.62823323680E+02 -0.18832161921E+02  0.67494344156E+02  0.47000000000E+01 0.  1.
         11    1    6    6    0    0 -0.60385067179E+02 -0.21534406970E+02 -0.10297290051E+03  0.12129923850E+03  0.00000000000E+00 0. -1.
        -12    1    6    6    0    0 -0.52352835019E+02 -0.12704859345E+03 -0.29721190792E+03  0.32744019705E+03  0.00000000000E+00 0.  1.
</event>
<event>
12    1  0.8691829E-002  0.1839574E+03  0.7818608E-02  0.1164111E+00
         21   -1    0    0  503  502  0.00000000000E+00  0.00000000000E+00  0.11935885437E+03  0.11935885437E+03  0.00000000000E+00 0. -1.
         21   -1    0    0  501  503 -0.00000000000E+00 -0.00000000000E+00 -0.39697369362E+03  0.39697369362E+03  0.00000000000E+00 0. -1.
          6    2    1    2  501    0 -0.45871214502E+02 -0.42347535414E+02 -0.27725326750E+03  0.33273065681E+03  0.17303997677E+03 0.  0.
         24    2    3    3    0    0 -0.83607295466E+01  0.32905800300E+02 -0.20300724714E+03  0.22046016844E+03  0.78981326819E+02 0.  0.
         -6    2    1    2    0  502  0.45871214502E+02  0.42347535414E+02 -0.36157175012E+00  0.18360189118E+03  0.17266163916E+03 0.  0.
        -24    2    5    5    0    0  0.58976853852E+02  0.71738455984E+02  0.43180655126E+02  0.12925486260E+03  0.78851602208E+02 0.  0.
          5    1    3    3  501    0 -0.37510484955E+02 -0.75253335714E+02 -0.74246020360E+02  0.11227048836E+03  0.47000000000E+01 0. -1.
        -13    1    4    4    0    0 -0.15339453642E+02 -0.44010785293E+01 -0.22137825425E+01  0.16111150282E+02  0.00000000000E+00 0.  1.
         14    1    4    4    0    0  0.69787240952E+01  0.37306878829E+02 -0.20079346460E+03  0.20434901816E+03  0.00000000000E+00 0. -1.
         -5    1    5    5    0  502 -0.13105639350E+02 -0.29390920570E+02 -0.43542226876E+02  0.54347028585E+02  0.47000000000E+01 0.  1.
         11    1    6    6    0    0  0.76450180258E+02  0.50794691027E+02  0.44380817304E+02  0.10195286971E+03  0.00000000000E+00 0. -1.
        -12    1    6    6    0    0 -0.17473326406E+02  0.20943764957E+02 -0.12001621782E+01  0.27301992885E+02  0.00000000000E+00 0.  1.
</event>
<event>
12    1  0.8691829E-002  0.2027737E+03  0.7818608E-02  0.1147495E+00
         21   -1    0    0  501  502  0.00000000000E+00  0.00000000000E+00  0.27199027158E+03  0.27199027158E+03  0.00000000000E+00 0.  1.
         21   -1    0    0  502  503 -0.00000000000E+00 -0.00000000000E+00 -0.32421811953E+03  0.32421811953E+03  0.00000000000E+00 0.  1.
         -6    2    1    2    0  503 -0.98034834928E+02  0.43806281357E+02 -0.24408045515E+03  0.31732071561E+03  0.17200973468E+03 0.  0.
        -24    2    3    3    0    0 -0.67215275013E+02  0.12030155351E+02 -0.45297581921E+02  0.11361433833E+03  0.78700248493E+02 0.  0.
          6    2    1    2  501    0  0.98034834928E+02 -0.43806281357E+02  0.19185260720E+03  0.27888767549E+03  0.17158407124E+03 0.  0.
         24    2    5    5    0    0  0.90477384179E+02 -0.17727804252E+02  0.21298344613E+03  0.24416298134E+03  0.75849726672E+02 0.  0.
          5    1    5    5  501    0  0.75574507490E+01 -0.26078477104E+02 -0.21130838933E+02  0.34724694151E+02  0.47000000000E+01 0. -1.
        -13    1    6    6    0    0  0.51705275789E+01 -0.41188252910E+01  0.10802225295E+03  0.10822433280E+03  0.00000000000E+00 0.  1.
         14    1    6    6    0    0  0.85306856600E+02 -0.13608978961E+02  0.10496119318E+03  0.13593864853E+03  0.00000000000E+00 0. -1.
         -5    1    3    3    0  503 -0.30819559915E+02  0.31776126006E+02 -0.19878287323E+03  0.20370637729E+03  0.47000000000E+01 0.  1.
         11    1    4    4    0    0 -0.81977726607E+02  0.17671948334E+02 -0.49343723454E+02  0.97300814292E+02  0.00000000000E+00 0. -1.
        -12    1    4    4    0    0  0.14762451594E+02 -0.56417929838E+01  0.40461415330E+01  0.16313524035E+02  0.00000000000E+00 0.  1.
</event>
<event>
12    1  0.8691829E-002  0.2628198E+03  0.7818608E-02  0.1105466E+00
         21   -1    0    0  503  502  0.00000000000E+00  0.00000000000E+00  0.76398070161E+03  0.76398070161E+03  0.00000000000E+00 0.  1.
         21   -1    0    0  501  503 -0.00000000000E+00 -0.00000000000E+00 -0.13639085815E+03  0.13639085815E+03  0.00000000000E+00 0. -1.
          6    2    1    2  501    0 -0.12354569421E+03 -0.15582963360E+03  0.52366884720E+02  0.26795104119E+03  0.17178200311E+03 0.  0.
         24    2    3    3    0    0 -0.43827381789E+02 -0.92265633423E+02  0.91473627368E+02  0.15864953720E+03  0.79802660639E+02 0.  0.
         -6    2    1    2    0  502  0.12354569421E+03  0.15582963360E+03  0.57522295874E+03  0.63242051856E+03  0.17183668635E+03 0.  0.
        -24    2    5    5    0    0  0.94780958603E+02  0.68173890345E+02  0.19408033384E+03  0.24024360714E+03  0.80116823133E+02 0.  0.
          5    1    3    3  501    0 -0.79718312421E+02 -0.63564000175E+02 -0.39106742647E+02  0.10930150399E+03  0.47000000000E+01 0. -1.
        -13    1    4    4    0    0 -0.57959563888E+02 -0.61537368566E+02  0.91843277913E+02  0.12482526376E+03  0.00000000000E+00 0.  1.
         14    1    4    4    0    0  0.14132182100E+02 -0.30728264857E+02 -0.36965054522E+00  0.33824273437E+02  0.00000000000E+00 0. -1.
         -5    1    5    5    0  502  0.28764735606E+02  0.87655743253E+02  0.38114262490E+03  0.39217691142E+03  0.47000000000E+01 0.  1.
         13    1    6    6    0    0  0.10051647642E+03  0.72353997619E+02  0.19689589027E+03  0.23260837175E+03  0.00000000000E+00 0. -1.
        -14    1    6    6    0    0 -0.57355178187E+01 -0.41801072743E+01 -0.28155564260E+01  0.76352353901E+01  0.00000000000E+00 0.  1.
</event>
<event>
12    1  0.8691829E-002  0.3463629E+03  0.7818608E-02  0.1064271E+00
         21   -1    0    0  501  502  0.00000000000E+00  0.00000000000E+00  0.29806792294E+03  0.29806792294E+03  0.00000000000E+00 0.  1.
         21   -1    0    0  502  503 -0.00000000000E+00 -0.00000000000E+00 -0.90030720547E+03  0.90030720547E+03  0.00000000000E+00 0.  1.
         -6    2    1    2    0  503 -0.28385083358E+03  0.90125714936E+02 -0.74715639833E+03  0.82291778883E+03  0.17394557595E+03 0.  0.
        -24    2    3    3    0    0 -0.19215245715E+03  0.34836092205E+02 -0.32457775309E+03  0.38695868980E+03  0.79058141236E+02 0.  0.
          6    2    1    2  501    0  0.28385083358E+03 -0.90125714936E+02  0.14491711580E+03  0.37545733957E+03  0.17684259433E+03 0.  0.
         24    2    5    5    0    0  0.16664946331E+03 -0.10358628695E+03  0.29939412614E+02  0.21065651912E+03  0.70552378790E+02 0.  0.
          5    1    5    5  501    0  0.11720137027E+03  0.13460572013E+02  0.11497770319E+03  0.16480082045E+03  0.47000000000E+01 0. -1.
        -13    1    6    6    0    0  0.13251358351E+03 -0.55201965212E+02  0.43327372497E+02  0.14994788423E+03  0.00000000000E+00 0.  1.
         14    1    6    6    0    0  0.34135879799E+02 -0.48384321737E+02 -0.13387959883E+02  0.60708634883E+02  0.00000000000E+00 0. -1.
         -5    1    3    3    0  503 -0.91698376425E+02  0.55289622731E+02 -0.42257864524E+03  0.43595909904E+03  0.47000000000E+01 0.  1.
         13    1    4    4    0    0 -0.10337456809E+03 -0.10560593574E+02 -0.21506213579E+03  0.23885047565E+03  0.00000000000E+00 0. -1.
        -14    1    4    4    0    0 -0.88777889060E+02  0.45396685779E+02 -0.10951561730E+03  0.14810821415E+03  0.00000000000E+00 0.  1.
</event>
<event>
12    1  0.8691829E-002  0.2265970E+03  0.7818608E-02  0.1129490E+00
         21   -1    0    0  501  502  0.00000000000E+00  0.00000000000E+00  0.77538910745E+02  0.77538910745E+02  0.00000000000E+00 0. -1.
         21   -1    0    0  502  503 -0.00000000000E+00 -0.00000000000E+00 -0.65616993589E+03  0.65616993589E+03  0.00000000000E+00 0.  1.
         -6    2    1    2    0  503 -0.91014684655E+02 -0.11254237352E+03 -0.30176513576E+03  0.37593670949E+03  0.17122135884E+03 0.  0.
        -24    2    3    3    0    0 -0.56303255474E+02 -0.14019197817E+03 -0.18877321927E+03  0.25445153695E+03  0.79286878007E+02 0.  0.
          6    2    1    2  501    0  0.91014684655E+02  0.11254237352E+03 -0.27686588938E+03  0.35777213714E+03  0.17434655934E+03 0.  0.
         24    2    5    5    0    0 -0.26573594408E+01  0.10836501392E+03 -0.18741992126E+03  0.22810111728E+03  0.71790354640E+02 0.  0.
          5    1    5    5  501    0  0.93672044096E+02  0.41773595982E+01 -0.89445968120E+02  0.12967101986E+03  0.47000000000E+01 0. -1.
        -13    1    6    6    0    0  0.27324659762E+02  0.19199519427E+02 -0.70706829650E+02  0.78196638908E+02  0.00000000000E+00 0.  1.
         14    1    6    6    0    0 -0.29982019203E+02  0.89165494492E+02 -0.11671309161E+03  0.14990447837E+03  0.00000000000E+00 0. -1.
         -5    1    3    3    0  503 -0.34711429181E+02  0.27649604657E+02 -0.11299191650E+03  0.12148517254E+03  0.47000000000E+01 0.  1.
         13    1    4    4    0    0 -0.64678253500E+02 -0.13028159149E+03 -0.13267936262E+03  0.19687656748E+03  0.00000000000E+00 0. -1.
        -14    1    4    4    0    0  0.83749980259E+01 -0.99103866798E+01 -0.56093856649E+02  0.57574969473E+02  0.00000000000E+00 0.  1.
</event>
<event>
12    1  0.8691829E-002  0.1811681E+03  0.7818608E-02  0.1167873E+00
         21   -1    0    0  501  502  0.00000000000E+00  0.00000000000E+00  0.91801867062E+02  0.91801867062E+02  0.00000000000E+00 0.  1.
         21   -1    0    0  502  503 -0.00000000000E+00 -0.00000000000E+00 -0.64913679207E+03  0.64913679207E+03  0.00000000000E+00 0.  1.
         -6    2    1    2    0  503 -0.50354586211E+02  0.13429782153E+02 -0.53307476008E+03  0.56301917789E+03  0.17351066663E+03 0.  0.
        -24    2    3    3    0    0 -0.55191836720E+02  0.38945843498E+02 -0.17172024875E+03  0.20070213269E+03  0.78934052673E+02 0.  0.
          6    2    1    2  501    0  0.50354586211E+02 -0.13429782153E+02 -0.24260164925E+02  0.17791948124E+03  0.16837708514E+03 0.  0.
         24    2    5    5    0    0  0.74154673952E+01 -0.20527317351E+02  0.47408372267E+02  0.93939649412E+02  0.78107259946E+02 0.  0.
          5    1    5    5  501    0  0.42939118816E+02  0.70975351985E+01 -0.71668537191E+02  0.83979831827E+02  0.47000000000E+01 0. -1.
        -11    1    6    6    0    0  0.17057334814E+02  0.22179421214E+02  0.41079180950E+02  0.49702902369E+02  0.00000000000E+00 0.  1.
         12    1    6    6    0    0 -0.96418674193E+01 -0.42706738566E+02  0.63291913169E+01  0.44236747043E+02  0.00000000000E+00 0. -1.
         -5    1    3    3    0  503  0.48372505088E+01 -0.25516061345E+02 -0.36135451134E+03  0.36231704520E+03  0.47000000000E+01 0.  1.
         13    1    4    4    0    0 -0.22759328216E+02 -0.19055400811E+02 -0.93322444898E+02  0.97929433995E+02  0.00000000000E+00 0. -1.
        -14    1    4    4    0    0 -0.32432508504E+02  0.58001244308E+02 -0.78397803848E+02  0.10277269870E+03  0.00000000000E+00 0.  1.
</event>
<event>
12    1  0.8691829E-002  0.2120301E+03  0.7818608E-02  0.1140462E+00
         21   -1    0    0  501  502  0.00000000000E+00  0.00000000000E+00  0.17871222837E+04  0.17871222837E+04  0.00000000000E+00 0.  1.
         21   -1    0    0  502  503 -0.00000000000E+00 -0.00000000000E+00 -0.38037480593E+02  0.38037480593E+02  0.00000000000E+00 0. -1.
         -6    2    1    2    0  503 -0.78635013670E+02 -0.92765515584E+02  0.34079918401E+03  0.40137369857E+03  0.17368896288E+03 0.  0.
        -24    2    3    3    0    0 -0.20133895522E+02 -0.11654217047E+03  0.18775633551E+03  0.23574787444E+03  0.79606328472E+02 0.  0.
          6    2    1    2  501    0  0.78635013670E+02  0.92765515584E+02  0.14082856191E+04  0.14237860657E+04  0.17061497512E+03 0.  0.
         24    2    5    5    0    0 -0.71124561967E+01  0.59708370244E+01  0.42715232009E+03  0.43508460156E+03  0.82178269816E+02 0.  0.
          5    1    5    5  501    0  0.85747469866E+02  0.86794678560E+02  0.98113329903E+03  0.98870146418E+03  0.47000000000E+01 0. -1.
        -11    1    6    6    0    0  0.62338465029E+01  0.34264689877E+02  0.35147294354E+03  0.35319422398E+03  0.00000000000E+00 0.  1.
         12    1    6    6    0    0 -0.13346302700E+02 -0.28293852853E+02  0.75679376557E+02  0.81890377586E+02  0.00000000000E+00 0. -1.
         -5    1    3    3    0  503 -0.58501118148E+02  0.23776654881E+02  0.15304284850E+03  0.16562582413E+03  0.47000000000E+01 0.  1.
         13    1    4    4    0    0 -0.43527393040E+02 -0.10827332205E+03  0.16489101426E+03  0.20200691274E+03  0.00000000000E+00 0. -1.
        -14    1    4    4    0    0  0.23393497519E+02 -0.82688484122E+01  0.22865321258E+02  0.33740961700E+02  0.00000000000E+00 0.  1.
</event>
<event>
12    1  0.8691829E-002  0.3121090E+03  0.7818608E-02  0.1079411E+00
         21   -1    0    0  503  502  0.00000000000E+00  0.00000000000E+00  0.42823120972E+03  0.42823120972E+03  0.00000000000E+00 0.  1.
         21   -1    0    0  501  503 -0.00000000000E+00 -0.00000000000E+00 -0.28661047445E+03  0.28661047445E+03  0.00000000000E+00 0.  1.
          6    2    1    2  501    0  0.23910294970E+03  0.10316325508E+03 -0.92197570483E+02  0.32486343942E+03  0.17094731504E+03 0.  0.
         24    2    3    3    0    0  0.31435848309E+02  0.22216542377E+02 -0.20527342178E+02  0.90691052233E+02  0.79509168428E+02 0.  0.
         -6    2    1    2    0  502 -0.23910294970E+03 -0.10316325508E+03  0.23381830575E+03  0.38997824474E+03  0.17204404527E+03 0.  0.
        -24    2    5    5    0    0 -0.20280044398E+03 -0.22908255586E+02  0.13373569078E+03  0.25657151071E+03  0.79315174264E+02 0.  0.
          5    1    3    3  501    0  0.20766710139E+03  0.80946712699E+02 -0.71670228305E+02  0.23417238719E+03  0.47000000000E+01 0. -1.
        -11    1    4    4    0    0  0.47801949964E+02  0.37790643236E+02 -0.27771761663E+02  0.66965885960E+02  0.00000000000E+00 0.  1.
         12    1    4    4    0    0 -0.16366101655E+02 -0.15574100860E+02  0.72444194850E+01  0.23725166273E+02  0.00000000000E+00 0. -1.
         -5    1    5    5    0  502 -0.36302505722E+02 -0.80254999490E+02  0.10008261497E+03  0.13340673403E+03  0.47000000000E+01 0.  1.
         11    1    6    6    0    0 -0.34301255116E+02 -0.19676187879E+02 -0.28445898281E+01  0.39646187247E+02  0.00000000000E+00 0. -1.
        -12    1    6    6    0    0 -0.16849918886E+03 -0.32320677067E+01  0.13658028061E+03  0.21692532346E+03  0.00000000000E+00 0.  1.
</event>
<event>
12    1  0.8691829E-002  0.1793845E+03  0.7818608E-02  0.1169116E+00
         21   -1    0    0  503  502  0.00000000000E+00  0.00000000000E+00  0.46037053710E+02  0.46037053710E+02  0.00000000000E+00 0. -1.
         21   -1    0    0  501  503 -0.00000000000E+00 -0.00000000000E+00 -0.79523233645E+03  0.79523233645E+03  0.00000000000E+00 0. -1.
          6    2    1    2  501    0 -0.43193576608E+02 -0.21263923163E+02 -0.53196552350E+03  0.56139658937E+03  0.17280327797E+03 0.  0.
         24    2    3    3    0    0 -0.79143091257E+02 -0.42621071698E+02 -0.32076679122E+03  0.34604689721E+03  0.93685303404E+02 0.  0.
         -6    2    1    2    0  502  0.43193576608E+02  0.21263923163E+02 -0.21722975924E+03  0.27987280079E+03  0.16977095403E+03 0.  0.
        -24    2    5    5    0    0  0.74039834003E+02  0.47407261670E+02 -0.20520095217E+03  0.23742579921E+03  0.80834608193E+02 0.  0.
          5    1    3    3  501    0  0.35949514649E+02  0.21357148534E+02 -0.21119873228E+03  0.21534969216E+03  0.47000000000E+01 0. -1.
        -11    1    4    4    0    0 -0.10908633132E+02 -0.16912564026E+02 -0.22390245523E+03  0.22480512129E+03  0.00000000000E+00 0.  1.
         12    1    4    4    0    0 -0.68234458125E+02 -0.25708507672E+02 -0.96864335984E+02  0.12124177592E+03  0.00000000000E+00 0. -1.
         -5    1    5    5    0  502 -0.30846257395E+02 -0.26143338507E+02 -0.12028807077E+02  0.42447001582E+02  0.47000000000E+01 0.  1.
         11    1    6    6    0    0  0.63953733032E+02 -0.67761653592E+01 -0.11150973988E+03  0.12872613749E+03  0.00000000000E+00 0. -1.
        -12    1    6    6    0    0  0.10086100971E+02  0.54183427030E+02 -0.93691212286E+02  0.10869966172E+03  0.00000000000E+00 0.  1.
</event>
<event>
12    1  0.8691829E-002  0.1828830E+03  0.7818608E-02  0.1165988E+00
         21   -1    0    0  503  502  0.00000000000E+00  0.00000000000E+00  0.11370614672E+03  0.11370614672E+03  0.00000000000E+00 0. -1.
         21   -1    0    0  501  503 -0.00000000000E+00 -0.00000000000E+00 -0.19905378971E+04  0.19905378971E+04  0.00000000000E+00 0. -1.
          6    2    1    2  501    0 -0.50597914881E+02 -0.38706953502E+01 -0.19129708158E+04  0.19216928789E+04  0.17570158721E+03 0.  0.
         24    2    3    3    0    0 -0.10240249318E+03 -0.10789634342E+02 -0.13148766409E+04  0.13213010752E+04  0.79581804494E+02 0.  0.
         -6    2    1    2    0  502  0.50597914881E+02  0.38706953502E+01  0.36139065412E+02  0.18255116484E+03  0.17159185430E+03 0.  0.
        -24    2    5    5    0    0 -0.27253358425E+02 -0.36324291733E+02  0.28312892365E+02  0.94461456435E+02  0.77840523909E+02 0.  0.
          5    1    3    3  501    0  0.51804578300E+02  0.69189389922E+01 -0.59809417483E+03  0.60039180375E+03  0.47000000000E+01 0. -1.
        -13    1    4    4    0    0 -0.31331253673E+02  0.33692136079E+02 -0.42485091008E+03  0.42733488424E+03  0.00000000000E+00 0.  1.
         14    1    4    4    0    0 -0.71071239508E+02 -0.44481770421E+02 -0.89002573086E+03  0.89396619096E+03  0.00000000000E+00 0. -1.
         -5    1    5    5    0  502  0.77851273306E+02  0.40194987083E+02  0.78261730469E+01  0.88089708403E+02  0.47000000000E+01 0.  1.
         11    1    6    6    0    0 -0.28501841748E+02  0.12233705089E+02  0.33449294540E+02  0.45616595976E+02  0.00000000000E+00 0. -1.
        -12    1    6    6    0    0  0.12484833228E+01 -0.48557996822E+02 -0.51364021751E+01  0.48844860459E+02  0.00000000000E+00 0.  1.
</event>
<event>
12    1  0.8691829E-002  0.1845633E+03  0.7818608E-02  0.1163536E+00
         21   -1    0    0  503  502  0.00000000000E+00  0.00000000000E+00  0.25386137670E+03  0.25386137670E+03  0.00000000000E+00 0.  1.
         21   -1    0    0  501  503 -0.00000000000E+00 -0.00000000000E+00 -0.13490827630E+03  0.13490827630E+03  0.00000000000E+00 0.  1.
          6    2    1    2  501    0  0.43392118313E+02 -0.48015945774E+02  0.75884443424E+02  0.19924786573E+03  0.17249016281E+03 0.  0.
         24    2    3    3    0    0 -0.26639642740E+02 -0.57167404446E+02  0.99214264777E+01  0.10249350481E+03  0.80179181397E+02 0.  0.
         -6    2    1    2    0  502 -0.43392118313E+02  0.48015945774E+02  0.43068656982E+02  0.18952178726E+03  0.17284441458E+03 0.  0.
        -24    2    5    5    0    0 -0.56563683999E+02 -0.31650009012E+02  0.22104544592E+02  0.10596498920E+03  0.80862813618E+02 0.  0.
          5    1    3    3  501    0  0.70031761053E+02  0.91514586713E+01  0.65963016947E+02  0.96754360918E+02  0.47000000000E+01 0. -1.
        -11    1    4    4    0    0 -0.87403648789E+01 -0.81037589070E+01  0.40333263685E+02  0.42057544462E+02  0.00000000000E+00 0.  1.
         12    1    4    4    0    0 -0.17899277861E+02 -0.49063645539E+02 -0.30411837208E+02  0.60435960353E+02  0.00000000000E+00 0. -1.
         -5    1    5    5    0  502  0.13171565686E+02  0.79665954786E+02  0.20964112390E+02  0.83556798065E+02  0.47000000000E+01 0.  1.
         13    1    6    6    0    0 -0.46396629824E+02 -0.30973851549E+02  0.50839829137E+02  0.75476585545E+02  0.00000000000E+00 0. -1.
        -14    1    6    6    0    0 -0.10167054174E+02 -0.67615746316E+00 -0.28735284544E+02  0.30488403654E+02  0.00000000000E+00 0.  1.
</event>
<event>
12    1  0.8691829E-002  0.2126483E+03  0.7818608E-02  0.1142412E+00
         21   -1    0    0  503  502  0.00000000000E+00  0.00000000000E+00  0.17916365165E+03  0.17916365165E+03  0.00000000000E+00 0. -1.
         21   -1    0    0  501  503 -0.00000000000E+00 -0.00000000000E+00 -0.23565678636E+03  0.23565678636E+03  0.00000000000E+00 0.  1.
          6    2    1    2  501    0 -0.38082301008E+02 -0.93479126035E+02 -0.34372976256E+02  0.21540847967E+03  0.18716490847E+03 0.  0.
         24    2    3    3    0    0  0.10394860717E+02 -0.19183083123E+02 -0.77207129657E+02  0.11678398018E+03  0.84861730774E+02 0.  0.
         -6    2    1    2    0  502  0.38082301008E+02  0.93479126035E+02 -0.22120158448E+02  0.19941195834E+03  0.17054975539E+03 0.  0.
        -24    2    5    5    0    0  0.85113149844E+02  0.36292457602E+02  0.40740241625E+01  0.12073260278E+03  0.77449163621E+02 0.  0.
          5    1    3    3  501    0 -0.48477161725E+02 -0.74296042913E+02  0.42834153402E+02  0.98624499487E+02  0.47000000000E+01 0. -1.
        -11    1    4    4    0    0  0.25419594444E+02  0.89008877956E+00  0.90185836421E+01  0.26986716930E+02  0.00000000000E+00 0.  1.
         12    1    4    4    0    0 -0.15024733727E+02 -0.20073171902E+02 -0.86225713299E+02  0.89797263253E+02  0.00000000000E+00 0. -1.
         -5    1    5    5    0  502 -0.47030848836E+02  0.57186668433E+02 -0.26194182610E+02  0.78679355560E+02  0.47000000000E+01 0.  1.
         11    1    6    6    0    0  0.59002209439E+02  0.55047368425E+02 -0.16770296911E+02  0.82417937050E+02  0.00000000000E+00 0. -1.
        -12    1    6    6    0    0  0.26110940405E+02 -0.18754910823E+02  0.20844321074E+02  0.38314665728E+02  0.00000000000E+00 0.  1.
</event>
<event>
12    1  0.8691829E-002  0.2386342E+03  0.7818608E-02  0.1120725E+00
         21   -1    0    0  501  502  0.00000000000E+00  0.00000000000E+00  0.56711118763E+03  0.56711118763E+03  0.00000000000E+00 0.  1.
         21   -1    0    0  502  503 -0.00000000000E+00 -0.00000000000E+00 -0.11745025964E+03  0.11745025964E+03  0.00000000000E+00 0.  1.
         -6    2    1    2    0  503 -0.89623511556E+02 -0.13802119751E+03  0.94246923913E+02  0.25646639137E+03  0.17265660268E+03 0.  0.
        -24    2    3    3    0    0  0.10066451089E+02 -0.10828595235E+03  0.40491887882E+02  0.13927438073E+03  0.77010254068E+02 0.  0.
          6    2    1    2  501    0  0.89623511556E+02  0.13802119751E+03  0.35541400408E+03  0.42809505590E+03  0.17281214600E+03 0.  0.
         24    2    5    5    0    0  0.67290279209E+02  0.60486221584E+02  0.31574627181E+03  0.33806136919E+03  0.80020100610E+02 0.  0.
          5    1    5    5  501    0  0.22333232347E+02  0.77534975926E+02  0.39667732275E+02  0.90033686711E+02  0.47000000000E+01 0. -1.
        -11    1    6    6    0    0  0.22816052024E+02  0.61350760551E+02  0.11387137818E+03  0.13134374298E+03  0.00000000000E+00 0.  1.
         12    1    6    6    0    0  0.44474227185E+02 -0.86453896682E+00  0.20187489363E+03  0.20671762622E+03  0.00000000000E+00 0. -1.
         -5    1    3    3    0  503 -0.99689962646E+02 -0.29735245164E+02  0.53755036032E+02  0.11719201063E+03  0.47000000000E+01 0.  1.
         11    1    4    4    0    0 -0.44129081539E+01 -0.22127781497E+02  0.46516981557E+02  0.51700503339E+02  0.00000000000E+00 0. -1.
        -12    1    4    4    0    0  0.14479359243E+02 -0.86158170850E+02 -0.60250936753E+01  0.87573877395E+02  0.00000000000E+00 0.  1.
</event>
<event>
12    1  0.8691829E-002  0.2981251E+03  0.7818608E-02  0.1086243E+00
         21   -1    0    0  501  502  0.00000000000E+00  0.00000000000E+00  0.34938513784E+03  0.34938513784E+03  0.00000000000E+00 0.  1.
         21   -1    0    0  502  503 -0.00000000000E+00 -0.00000000000E+00 -0.33239774156E+03  0.33239774156E+03  0.00000000000E+00 0. -1.
         -6    2    1    2    0  503 -0.24039462925E+03  0.32048358236E+02 -0.15709964002E+03  0.33655128109E+03  0.17253925024E+03 0.  0.
        -24    2    3    3    0    0 -0.12005523401E+03 -0.15052830196E+02 -0.14618927796E+03  0.20677756265E+03  0.82132871096E+02 0.  0.
          6    2    1    2  501    0  0.24039462925E+03 -0.32048358236E+02  0.17408703630E+03  0.34523159830E+03  0.17338363598E+03 0.  0.
         24    2    5    5    0    0  0.39597783212E+02 -0.26272050388E+02  0.25678419017E+02  0.95431784869E+02  0.78674260678E+02 0.  0.
          5    1    5    5  501    0  0.20079684603E+03 -0.57763078478E+01  0.14840861728E+03  0.24979981343E+03  0.47000000000E+01 0. -1.
        -13    1    6    6    0    0  0.20731323227E+02 -0.44278110443E+02 -0.11301720065E+02  0.50180351769E+02  0.00000000000E+00 0.  1.
         14    1    6    6    0    0  0.18866459985E+02  0.18006060055E+02  0.36980139083E+02  0.45251433101E+02  0.00000000000E+00 0. -1.
         -5    1    3    3    0  503 -0.12033939524E+03  0.47101188432E+02 -0.10910362054E+02  0.12977371844E+03  0.47000000000E+01 0.  1.
         11    1    4    4    0    0 -0.46397237849E+02  0.76773533985E+01 -0.11385507926E+03  0.12318532587E+03  0.00000000000E+00 0. -1.
        -12    1    4    4    0    0 -0.73657996161E+02 -0.22730183595E+02 -0.32334198699E+02  0.83592236782E+02  0.00000000000E+00 0.  1.
</event>
<event>
12    1  0.8691829E-002  0.1848664E+03  0.7818608E-02  0.1163176E+00
         21   -1    0    0  503  502  0.00000000000E+00  0.00000000000E+00  0.27767661491E+03  0.27767661491E+03  0.00000000000E+00 0. -1.
         21   -1    0    0  501  503 -0.00000000000E+00 -0.00000000000E+00 -0.12571956388E+03  0.12571956388E+03  0.00000000000E+00 0. -1.
          6    2    1    2  501    0 -0.53269667339E+02  0.42872575545E+02  0.46715790193E+02  0.19067760750E+03  0.17175526122E+03 0.  0.
         24    2    3    3    0    0  0.34730104689E+02  0.20542544363E+02  0.46441565654E+01  0.90504245141E+02  0.80878142274E+02 0.  0.
         -6    2    1    2    0  502  0.53269667339E+02 -0.42872575545E+02  0.10524126083E+03  0.21271857130E+03  0.17174909723E+03 0.  0.
        -24    2    5    5    0    0  0.72580161688E+02 -0.76805591897E+02  0.46506138572E+02  0.14203441906E+03  0.82728329217E+02 0.  0.
          5    1    3    3  501    0 -0.87999772028E+02  0.22330031182E+02  0.42071633628E+02  0.10017336236E+03  0.47000000000E+01 0. -1.
        -11    1    4    4    0    0 -0.35270650592E+01 -0.14020901956E+02 -0.26559009031E+02  0.30239160707E+02  0.00000000000E+00 0.  1.
         12    1    4    4    0    0  0.38257169748E+02  0.34563446318E+02  0.31203165596E+02  0.60265084434E+02  0.00000000000E+00 0. -1.
         -5    1    5    5    0  502 -0.19310494349E+02  0.33933016352E+02  0.58735122260E+02  0.70684152239E+02  0.47000000000E+01 0.  1.
         13    1    6    6    0    0  0.50165064261E+02 -0.50224879830E+02  0.70297236558E+02  0.99903822219E+02  0.00000000000E+00 0. -1.
        -14    1    6    6    0    0  0.22415097428E+02 -0.26580712067E+02 -0.23791097986E+02  0.42130596840E+02  0.00000000000E+00 0.  1.
</event>
<event>
12    1  0.8691829E-002  0.1835509E+03  0.7818608E-02  0.1164671E+00
         21   -1    0    0  501  502  0.00000000000E+00  0.00000000000E+00  0.36049562494E+02  0.36049562494E+02  0.00000000000E+00 0. -1.
         21   -1    0    0  502  503 -0.00000000000E+00 -0.00000000000E+00 -0.93451913872E+03  0.93451913872E+03  0.00000000000E+00 0.  1.
         -6    2    1    2    0  503  0.48532747566E+02  0.33666095574E+02 -0.41050890988E+03  0.44922759915E+03  0.17262397622E+03 0.  0.
        -24    2    3    3    0    0 -0.38058823730E+02  0.72702017932E+01 -0.16811773260E+03  0.19044116934E+03  0.80640790345E+02 0.  0.
          6    2    1    2  501    0 -0.48532747566E+02 -0.33666095574E+02 -0.48796066634E+03  0.52134110207E+03  0.17378751171E+03 0.  0.
         24    2    5    5    0    0 -0.10029164466E+02  0.22244137235E+02 -0.40824413006E+03  0.41653033830E+03  0.78986500197E+02 0.  0.
          5    1    5    5  501    0 -0.38503583100E+02 -0.55910232809E+02 -0.79716536281E+02  0.10481076376E+03  0.47000000000E+01 0. -1.
        -13    1    6    6    0    0 -0.38167811403E+02  0.30814834942E+02 -0.18648740328E+03  0.19283124089E+03  0.00000000000E+00 0.  1.
         14    1    6    6    0    0  0.28138646937E+02 -0.85706977068E+01 -0.22175672678E+03  0.22369909741E+03  0.00000000000E+00 0. -1.
         -5    1    3    3    0  503  0.86591571297E+02  0.26395893780E+02 -0.24239117728E+03  0.25878642981E+03  0.47000000000E+01 0.  1.
         11    1    4    4    0    0 -0.26066410296E+02  0.43667592391E+02 -0.88230642446E+02  0.10183792337E+03  0.00000000000E+00 0. -1.
        -12    1    4    4    0    0 -0.11992413434E+02 -0.36397390598E+02 -0.79887090153E+02  0.88603245964E+02  0.00000000000E+00 0.  1.
</event>
<event>
12    1  0.8691829E-002  0.2748196E+03  0.7818608E-02  0.1098566E+00
         21   -1    0    0  501  502  0.00000000000E+00  0.00000000000E+00  0.37747417459E+03  0.37747417459E+03  0.00000000000E+00 0.  1.
         21   -1    0    0  502  503 -0.00000000000E+00 -0.00000000000E+00 -0.20004583636E+03  0.20004583636E+03  0.00000000000E+00 0. -1.
         -6    2    1    2    0  503 -0.18750614411E+03 -0.10241340057E+03  0.92365613226E+02  0.28992624545E+03  0.17285474421E+03 0.  0.
        -24    2    3    3    0    0 -0.82492314582E+02 -0.10776850118E+03  0.13283849143E+02  0.15827292454E+03  0.80341932913E+02 0.  0.
          6    2    1    2  501    0  0.18750614411E+03  0.10241340057E+03  0.85062724997E+02  0.28759376550E+03  0.17270624793E+03 0.  0.
         24    2    5    5    0    0  0.22676229186E+02  0.62432724688E+02  0.46038597338E+02  0.11348940646E+03  0.79675820994E+02 0.  0.
          5    1    5    5  501    0  0.16482991492E+03  0.39980675880E+02  0.39024127659E+02  0.17410435904E+03  0.47000000000E+01 0. -1.
        -11    1    6    6    0    0  0.95456064453E+01 -0.88306023053E+01  0.38498367473E+02  0.40635236404E+02  0.00000000000E+00 0.  1.
         12    1    6    6    0    0  0.13130622741E+02  0.71263326993E+02  0.75402298647E+01  0.72854170053E+02  0.00000000000E+00 0. -1.
         -5    1    3    3    0  503 -0.10501382953E+03  0.53551006077E+01  0.79081764083E+02  0.13165332091E+03  0.47000000000E+01 0.  1.
         11    1    4    4    0    0  0.12438414296E+01 -0.45049905035E+01  0.24416643177E+02  0.24859898330E+02  0.00000000000E+00 0. -1.
        -12    1    4    4    0    0 -0.83736156012E+02 -0.10326351067E+03 -0.11132794034E+02  0.13341302621E+03  0.00000000000E+00 0.  1.
</event>
<event>
12    1  0.8691829E-002  0.3138207E+03  0.7818608E-02  0.1078690E+00
         21   -1    0    0  501  502  0.00000000000E+00  0.00000000000E+00  0.83760113222E+03  0.83760113222E+03  0.00000000000E+00 0. -1.
         21   -1    0    0  502  503 -0.00000000000E+00 -0.00000000000E+00 -0.11985766162E+03  0.11985766162E+03  0.00000000000E+00 0.  1.
         -6    2    1    2    0  503 -0.12977274032E+03  0.22791472701E+03  0.43267895207E+03  0.53450397821E+03  0.17232916249E+03 0.  0.
        -24    2    3    3    0    0 -0.81181657793E+02  0.22986790453E+03  0.40199929379E+03  0.47681308088E+03  0.79483122717E+02 0.  0.
          6    2    1    2  501    0  0.12977274032E+03 -0.22791472701E+03  0.28506451853E+03  0.42295481562E+03  0.16983200350E+03 0.  0.
         24    2    5    5    0    0  0.13122368325E+03 -0.12783507516E+03  0.13015944291E+03  0.23846710762E+03  0.79772296892E+02 0.  0.
          5    1    5    5  501    0 -0.14509429327E+01 -0.10007965185E+03  0.15490507562E+03  0.18448770800E+03  0.47000000000E+01 0. -1.
        -11    1    6    6    0    0  0.50656454995E+01 -0.52260626969E+02  0.29123583809E+02  0.60041794022E+02  0.00000000000E+00 0.  1.
         12    1    6    6    0    0  0.12615803775E+03 -0.75574448190E+02  0.10103585910E+03  0.17842531359E+03  0.00000000000E+00 0. -1.
         -5    1    3    3    0  503 -0.48591082523E+02 -0.19531775145E+01  0.30679658284E+02  0.57690897337E+02  0.47000000000E+01 0.  1.
         13    1    4    4    0    0 -0.92764665039E+02  0.16685272216E+03  0.32176122502E+03  0.37413286397E+03  0.00000000000E+00 0. -1.
        -14    1    4    4    0    0  0.11583007246E+02  0.63015182370E+02  0.80238068764E+02  0.10268021691E+03  0.00000000000E+00 0.  1.
</event>
<event>
12    1  0.8691829E-002  0.2235941E+03  0.7818608E-02  0.1131351E+00
         21   -1    0    0  501  502  0.00000000000E+00  0.00000000000E+00  0.18908635660E+03  0.18908635660E+03  0.00000000000E+00 0.  1.
         21   -1    0    0  502  503 -0.00000000000E+00 -0.00000000000E+00 -0.27052693429E+03  0.27052693429E+03  0.00000000000E+00 0.  1.
         -6    2    1    2    0  503 -0.11313930984E+03  0.86690275613E+02 -0.77359162337E+02  0.23598198819E+03  0.17142739407E+03 0.  0.
        -24    2    3    3    0    0 -0.82061487117E+02  0.66641009248E+02  0.17623633116E+02  0.13394461475E+03  0.80345849892E+02 0.  0.
          6    2    1    2  501    0  0.11313930984E+03 -0.86690275613E+02 -0.40814153526E+01  0.22363130270E+03  0.17227476391E+03 0.  0.
         24    2    5    5    0    0  0.11386968107E+03 -0.80345312299E+02 -0.56565130739E+02  0.17055190573E+03  0.80415577210E+02 0.  0.
          5    1    5    5  501    0 -0.73037122975E+00 -0.63449633146E+01  0.52483715387E+02  0.53079396967E+02  0.47000000000E+01 0. -1.
        -11    1    6    6    0    0  0.19217035530E+02  0.91237908444E+01 -0.31353285438E+02  0.37888870684E+02  0.00000000000E+00 0.  1.
         12    1    6    6    0    0  0.94652645538E+02 -0.89469103143E+02 -0.25211845302E+02  0.13266303505E+03  0.00000000000E+00 0. -1.
         -5    1    3    3    0  503 -0.31077822721E+02  0.20049266365E+02 -0.94982795453E+02  0.10203737344E+03  0.47000000000E+01 0.  1.
         11    1    4    4    0    0 -0.23657012195E+02  0.69865462474E+02  0.39125702144E+01  0.73865724652E+02  0.00000000000E+00 0. -1.
        -12    1    4    4    0    0 -0.58404474922E+02 -0.32244532262E+01  0.13711062902E+02  0.60078890098E+02  0.00000000000E+00 0.  1.
</event>
<event>
12    1  0.8691829E-002  0.2347851E+03  0.7818608E-02  0.1123322E+00
         21   -1    0    0  501  502  0.00000000000E+00  0.00000000000E+00  0.19882818583E+04  0.19882818583E+04  0.00000000000E+00 0. -1.
         21   -1    0    0  502  503 -0.00000000000E+00 -0.00000000000E+00 -0.34158393044E+02  0.34158393044E+02  0.00000000000E+00 0.  1.
         -6    2    1    2    0  503  0.10574062789E+03 -0.11943807421E+03  0.53799376296E+03  0.58697957250E+03  0.17222425958E+03 0.  0.
        -24    2    3    3    0    0  0.18711610856E+02 -0.12298865577E+02  0.11857611442E+03  0.14540725255E+03  0.81126985086E+02 0.  0.
          6    2    1    2  501    0 -0.10574062789E+03  0.11943807421E+03  0.14161297023E+04  0.14354606788E+04  0.17227156710E+03 0.  0.
         24    2    5    5    0    0  0.14682998406E+01  0.56649046215E+02  0.41061520118E+03  0.42228857196E+03  0.80694016043E+02 0.  0.
          5    1    5    5  501    0 -0.10720892773E+03  0.62789027995E+02  0.10055145011E+04  0.10131721069E+04  0.47000000000E+01 0. -1.
        -11    1    6    6    0    0 -0.21751246072E+02  0.22899406564E+02  0.48586722904E+02  0.57949712417E+02  0.00000000000E+00 0.  1.
         12    1    6    6    0    0  0.23219545913E+02  0.33749639651E+02  0.36202847828E+03  0.36433885954E+03  0.00000000000E+00 0. -1.
         -5    1    3    3    0  503  0.87029017036E+02 -0.10713920863E+03  0.41941764854E+03  0.44157231995E+03  0.47000000000E+01 0.  1.
         13    1    4    4    0    0  0.33481976579E+02  0.23265121196E+02  0.85176996817E+02  0.94432141809E+02  0.00000000000E+00 0. -1.
        -14    1    4    4    0    0 -0.14770365723E+02 -0.35563986774E+02  0.33399117604E+02  0.50975110746E+02  0.00000000000E+00 0.  1.
</event>
<event>
12    1  0.8691829E-002  0.1870526E+03  0.7818608E-02  0.1161248E+00
         21   -1    0    0  503  502  0.00000000000E+00  0.00000000000E+00  0.16525185504E+04  0.16525185504E+04  0.00000000000E+00 0.  1.
         21   -1    0    0  501  503 -0.00000000000E+00 -0.00000000000E+00 -0.41263099585E+02  0.41263099585E+02  0.00000000000E+00 0. -1.
          6    2    1    2  501    0 -0.66346907126E+02  0.29726689346E+02  0.21444925266E+03  0.28456488703E+03  0.17234588714E+03 0.  0.
         24    2    3    3    0    0  0.23051175994E+02 -0.11058207254E+02  0.72070710612E+02  0.11150661854E+03  0.81153545743E+02 0.  0.
         -6    2    1    2    0  502  0.66346907126E+02 -0.29726689346E+02  0.13968061981E+04  0.14092167629E+04  0.17186838472E+03 0.  0.
        -24    2    5    5    0    0  0.44564686717E+02  0.39421109133E+02  0.40423277087E+03  0.41398815519E+03  0.66648514251E+02 0.  0.
          5    1    3    3  501    0 -0.89398083119E+02  0.40784896600E+02  0.14237854205E+03  0.17305826849E+03  0.47000000000E+01 0. -1.
        -11    1    4    4    0    0 -0.97646243819E+01  0.11679475521E+02  0.69884455083E+02  0.71523388483E+02  0.00000000000E+00 0.  1.
         12    1    4    4    0    0  0.32815800375E+02 -0.22737682774E+02  0.21862555290E+01  0.39983230053E+02  0.00000000000E+00 0. -1.
         -5    1    5    5    0  502  0.21782220409E+02 -0.69147798479E+02  0.99257342724E+03  0.99522860772E+03  0.47000000000E+01 0.  1.
         13    1    6    6    0    0  0.11441266348E+02 -0.10826379686E+02  0.22063728103E+02  0.27109429550E+02  0.00000000000E+00 0. -1.
        -14    1    6    6    0    0  0.33123420369E+02  0.50247488819E+02  0.38216904276E+03  0.38687872564E+03  0.00000000000E+00 0.  1.
</event>
<event>
12    1  0.8691829E-002  0.1799120E+03  0.7818608E-02  0.1169667E+00
         21   -1    0    0  503  502  0.00000000000E+00  0.00000000000E+00  0.75377326356E+03  0.75377326356E+03  0.00000000000E+00 0.  1.
         21   -1    0    0  501  503 -0.00000000000E+00 -0.00000000000E+00 -0.63584474475E+02  0.63584474475E+02  0.00000000000E+00 0.  1.
          6    2    1    2  501    0  0.22439419686E+01  0.15017850588E+02  0.98316925132E+02  0.19874587579E+03  0.17205561387E+03 0.  0.
         24    2    3    3    0    0  0.22886775255E+02  0.36740204332E+02 -0.11914113847E+01  0.94717099697E+02  0.84239316344E+02 0.  0.
         -6    2    1    2    0  502 -0.22439419686E+01 -0.15017850588E+02  0.59187186395E+03  0.61861186225E+03  0.17927008023E+03 0.  0.
        -24    2    5    5    0    0 -0.45608708306E+02  0.47912406221E+02  0.35346602496E+03  0.36821187374E+03  0.79158071073E+02 0.  0.
          5    1    3    3  501    0 -0.20642833286E+02 -0.21722353743E+02  0.99508336517E+02  0.10402877609E+03  0.47000000000E+01 0. -1.
        -11    1    4    4    0    0  0.30875761307E+02  0.59849361847E+02  0.95362531624E+01  0.68016166271E+02  0.00000000000E+00 0.  1.
         12    1    4    4    0    0 -0.79889860526E+01 -0.23109157515E+02 -0.10727664547E+02  0.26700933426E+02  0.00000000000E+00 0. -1.
         -5    1    5    5    0  502  0.43364766337E+02 -0.62930256809E+02  0.23840583899E+03  0.25039998851E+03  0.47000000000E+01 0.  1.
         13    1    6    6    0    0 -0.57873570348E+02  0.60139948535E+01  0.17227332246E+03  0.18183403398E+03  0.00000000000E+00 0. -1.
        -14    1    6    6    0    0  0.12264862043E+02  0.41898411367E+02  0.18119270249E+03  0.18637783976E+03  0.00000000000E+00 0.  1.
</event>
<event>
12    1  0.8691829E-002  0.1774318E+03  0.7818608E-02  0.1170321E+00
         21   -1    0    0  501  502  0.00000000000E+00  0.00000000000E+00  0.14886605898E+04  0.14886605898E+04  0.00000000000E+00 0. -1.
         21   -1    0    0  502  503 -0.00000000000E+00 -0.00000000000E+00 -0.21202584323E+02  0.21202584323E+02  0.00000000000E+00 0. -1.
         -6    2    1    2    0  503  0.36413343422E+02 -0.18551968941E+02  0.69375786222E+03  0.71607859201E+03  0.17262233751E+03 0.  0.
        -24    2    3    3    0    0 -0.41336388498E+02 -0.33271083242E+02  0.41785641721E+03  0.42901523576E+03  0.81451980451E+02 0.  0.
          6    2    1    2  501    0 -0.36413343422E+02  0.18551968941E+02  0.77370014323E+03  0.79378458209E+03  0.17266135641E+03 0.  0.
         24    2    5    5    0    0 -0.19689776411E+02 -0.34247774488E+02  0.21767219216E+03  0.23498527735E+03  0.79223102570E+02 0.  0.
          5    1    5    5  501    0 -0.16723567011E+02  0.52799743429E+02  0.55602795108E+03  0.55879930474E+03  0.47000000000E+01 0. -1.
        -13    1    6    6    0    0 -0.13756489975E+02 -0.47859714462E+02  0.21396116416E+03  0.21967970560E+03  0.00000000000E+00 0.  1.
         14    1    6    6    0    0 -0.59332864356E+01  0.13611939973E+02  0.37110279969E+01  0.15305571749E+02  0.00000000000E+00 0. -1.
         -5    1    3    3    0  503  0.77749731920E+02  0.14719114302E+02  0.27590144501E+03  0.28706335625E+03  0.47000000000E+01 0.  1.
         13    1    4    4    0    0  0.22282145864E+02 -0.16528593657E+01  0.15995217398E+03  0.16150518237E+03  0.00000000000E+00 0. -1.
        -14    1    4    4    0    0 -0.63618534362E+02 -0.31618223877E+02  0.25790424323E+03  0.26751005340E+03  0.00000000000E+00 0.  1.
</event>
<event>
12    1  0.8691829E-002  0.1837830E+03  0.7818608E-02  0.1164372E+00
         21   -1    0    0  501  502  0.00000000000E+00  0.00000000000E+00  0.53813730435E+02  0.53813730435E+02  0.00000000000E+00 0. -1.
         21   -1    0    0  502  503 -0.00000000000E+00 -0.00000000000E+00 -0.62516986905E+03  0.62516986905E+03  0.00000000000E+00 0. -1.
         -6    2    1    2    0  503 -0.57645146433E+01 -0.61055749165E+02 -0.28009138936E+03  0.33458364317E+03  0.17243547705E+03 0.  0.
        -24    2    3    3    0    0 -0.49983246484E+02 -0.78525391590E+02 -0.24811440394E+03  0.27709362448E+03  0.80966395696E+02 0.  0.
          6    2    1    2  501    0  0.57645146433E+01  0.61055749165E+02 -0.29126474925E+03  0.34439995632E+03  0.17324878533E+03 0.  0.
         24    2    5    5    0    0 -0.34303852442E+02 -0.23989958657E+02 -0.16233918523E+03  0.18476870149E+03  0.77673609284E+02 0.  0.
          5    1    5    5  501    0  0.40068367085E+02  0.85045707822E+02 -0.12892556402E+03  0.15963125483E+03  0.47000000000E+01 0. -1.
        -13    1    6    6    0    0 -0.50199564049E+01 -0.49284316210E+02 -0.90894791608E+02  0.10351814782E+03  0.00000000000E+00 0.  1.
         14    1    6    6    0    0 -0.29283896037E+02  0.25294357553E+02 -0.71444393624E+02  0.81250553668E+02  0.00000000000E+00 0. -1.
         -5    1    3    3    0  503  0.44218731841E+02  0.17469642425E+02 -0.31976985425E+02  0.57490018690E+02  0.47000000000E+01 0.  1.
         13    1    4    4    0    0 -0.26292648147E+02 -0.60980176299E+02 -0.23609659806E+03  0.24525800469E+03  0.00000000000E+00 0. -1.
        -14    1    4    4    0    0 -0.23690598337E+02 -0.17545215290E+02 -0.12017805872E+02  0.31835619785E+02  0.00000000000E+00 0.  1.
</event>
<event>
12    1  0.8691829E-002  0.1862055E+03  0.7818608E-02  0.1162572E+00
         21   -1    0    0  501  502  0.00000000000E+00  0.00000000000E+00  0.94269748687E+02  0.94269748687E+02  0.00000000000E+00 0.  1.
         21   -1    0    0  502  503 -0.00000000000E+00 -0.00000000000E+00 -0.42057268065E+03  0.42057268065E+03  0.00000000000E+00 0.  1.
         -6    2    1    2    0  503 -0.34257647862E+02  0.54621509412E+02 -0.25785969851E+03  0.31645655148E+03  0.17174408033E+03 0.  0.
        -24    2    3    3    0    0 -0.33538521074E+02  0.10380030414E+03 -0.19256677174E+03  0.23457659495E+03  0.77748837817E+02 0.  0.
          6    2    1    2  501    0  0.34257647862E+02 -0.54621509412E+02 -0.68443233456E+02  0.19838587787E+03  0.17468653240E+03 0.  0.
         24    2    5    5    0    0 -0.34538364078E+02 -0.73854646906E+02 -0.44854812456E+02  0.12301142303E+03  0.80451529086E+02 0.  0.
          5    1    5    5  501    0  0.68796011940E+02  0.19233137494E+02 -0.23588421000E+02  0.75374454837E+02  0.47000000000E+01 0. -1.
        -13    1    6    6    0    0  0.10804959825E+02 -0.11064508902E+02  0.17663291132E+02  0.23476847481E+02  0.00000000000E+00 0.  1.
         14    1    6    6    0    0 -0.45343323904E+02 -0.62790138004E+02 -0.62518103587E+02  0.99534575547E+02  0.00000000000E+00 0. -1.
         -5    1    3    3    0  503 -0.71912678742E+00 -0.49178794733E+02 -0.65292926773E+02  0.81879956530E+02  0.47000000000E+01 0.  1.
         13    1    4    4    0    0  0.14500375776E+02  0.50648055084E+02 -0.40409326009E+02  0.66395783074E+02  0.00000000000E+00 0. -1.
        -14    1    4    4    0    0 -0.48038896850E+02  0.53152249061E+02 -0.15215744573E+03  0.16818081187E+03  0.00000000000E+00 0.  1.
</event>
<event>
12    1  0.8691829E-002  0.1768580E+03  0.7818608E-02  0.1172241E+00
         21   -1    0    0  503  502  0.00000000000E+00  0.00000000000E+00  0.27710385194E+03  0.27710385194E+03  0.00000000000E+00 0. -1.
         21   -1    0    0  501  503 -0.00000000000E+00 -0.00000000000E+00 -0.13436153185E+03  0.13436153185E+03  0.00000000000E+00 0. -1.
          6    2    1    2  501    0 -0.14108617856E+02 -0.22120250841E+02 -0.18109972469E+02  0.17240012830E+03  0.16942690028E+03 0.  0.
         24    2    3    3    0    0  0.11770025772E+02 -0.20824371494E+02  0.50698543144E+02  0.98724587446E+02  0.81265084351E+02 0.  0.
         -6    2    1    2    0  502  0.14108617856E+02  0.22120250841E+02  0.16085229256E+03  0.23906525549E+03  0.17490105135E+03 0.  0.
        -24    2    5    5    0    0 -0.36938145834E+02  0.57088321535E+02  0.55855092036E+02  0.11710198163E+03  0.77263055350E+02 0.  0.
          5    1    3    3  501    0 -0.25878643628E+02 -0.12958793466E+01 -0.68808515613E+02  0.73675540854E+02  0.47000000000E+01 0. -1.
        -13    1    4    4    0    0  0.36277749518E+02  0.15577784782E+02  0.15293001031E+02  0.42339324148E+02  0.00000000000E+00 0.  1.
         14    1    4    4    0    0 -0.24507723746E+02 -0.36402156276E+02  0.35405542113E+02  0.56385263298E+02  0.00000000000E+00 0. -1.
         -5    1    5    5    0  502  0.51046763690E+02 -0.34968070694E+02  0.10499720053E+03  0.12196327386E+03  0.47000000000E+01 0.  1.
         11    1    6    6    0    0  0.12778470213E+02 -0.12182245676E+02  0.92695757444E+01  0.19940447467E+02  0.00000000000E+00 0. -1.
        -12    1    6    6    0    0 -0.49716616046E+02  0.69270567211E+02  0.46585516292E+02  0.97161534164E+02  0.00000000000E+00 0.  1.
</event>
<event>
12    1  0.8691829E-002  0.2167837E+03  0.7818608E-02  0.1137194E+00
         21   -1    0    0  501  502  0.00000000000E+00  0.00000000000E+00  0.41292976341E+03  0.41292976341E+03  0.00000000000E+00 0. -1.
         21   -1    0    0  502  503 -0.00000000000E+00 -0.00000000000E+00 -0.14543780595E+03  0.14543780595E+03  0.00000000000E+00 0. -1.
         -6    2    1    2    0  503 -0.12666464989E+03  0.35262388496E+02 -0.24366539306E+01  0.21216443698E+03  0.16649456888E+03 0.  0.
        -24    2    3    3    0    0 -0.23709648920E+02  0.58303102045E+02 -0.20355668743E+02  0.10504866879E+03  0.81605578266E+02 0.  0.
          6    2    1    2  501    0  0.12666464989E+03 -0.35262388496E+02  0.26992861139E+03  0.34620313238E+03  0.17235946173E+03 0.  0.
         24    2    5    5    0    0  0.30615182208E+02 -0.73329849371E+02  0.15666580849E+03  0.19282391494E+03  0.79513083421E+02 0.  0.
          5    1    5    5  501    0  0.96049467677E+02  0.38067460875E+02  0.11326280291E+03  0.15337921743E+03  0.47000000000E+01 0. -1.
        -11    1    6    6    0    0  0.48678678359E+02 -0.79541513985E+02  0.12766365791E+03  0.15809641275E+03  0.00000000000E+00 0.  1.
         12    1    6    6    0    0 -0.18063496151E+02  0.62116646137E+01  0.29002150576E+02  0.34727502192E+02  0.00000000000E+00 0. -1.
         -5    1    3    3    0  503 -0.10295500096E+03 -0.23040713549E+02  0.17919014812E+02  0.10711576820E+03  0.47000000000E+01 0.  1.
         11    1    4    4    0    0 -0.37079398149E+02  0.64803106832E+02 -0.36497084753E+02  0.83104522246E+02  0.00000000000E+00 0. -1.
        -12    1    4    4    0    0  0.13369749228E+02 -0.65000047871E+01  0.16141416010E+02  0.21944146543E+02  0.00000000000E+00 0.  1.
</event>
<event>
12    1  0.8691829E-002  0.2062918E+03  0.7818608E-02  0.1144682E+00
         21   -1    0    0  501  502  0.00000000000E+00  0.00000000000E+00  0.62342900429E+03  0.62342900429E+03  0.00000000000E+00 0. -1.
         21   -1    0    0  502  503 -0.00000000000E+00 -0.00000000000E+00 -0.70092671658E+02  0.70092671658E+02  0.00000000000E+00 0.  1.
         -6    2    1    2    0  503  0.98482300688E+02  0.54973629219E+02  0.21664402543E+03  0.29865711067E+03  0.17187371102E+03 0.  0.
        -24    2    3    3    0    0  0.12192051354E+02  0.82878590664E+02  0.12435810371E+03  0.16918327025E+03  0.78361559900E+02 0.  0.
          6    2    1    2  501    0 -0.98482300688E+02 -0.54973629219E+02  0.33669230720E+03  0.39486456528E+03  0.17272941766E+03 0.  0.
         24    2    5    5    0    0 -0.31200774990E+02 -0.90059215414E+02  0.20026504619E+03  0.23868425408E+03  0.88203932902E+02 0.  0.
          5    1    5    5  501    0 -0.67281525698E+02  0.35085586195E+02  0.13642726101E+03  0.15618031120E+03  0.47000000000E+01 0. -1.
        -13    1    6    6    0    0 -0.46536309202E+02 -0.43348511976E+02  0.50969852826E+02  0.81502438379E+02  0.00000000000E+00 0.  1.
         14    1    6    6    0    0  0.15335534212E+02 -0.46710703439E+02  0.14929519337E+03  0.15718181570E+03  0.00000000000E+00 0. -1.
         -5    1    3    3    0  503  0.86290249334E+02 -0.27904961445E+02  0.92285921727E+02  0.12947384042E+03  0.47000000000E+01 0.  1.
         11    1    4    4    0    0  0.40711737496E+02  0.34559147950E+02  0.35609281773E+02  0.64185677728E+02  0.00000000000E+00 0. -1.
        -12    1    4    4    0    0 -0.28519686142E+02  0.48319442714E+02  0.88748821933E+02  0.10499759253E+03  0.00000000000E+00 0.  1.
</event>
<event>
12    1  0.8691829E-002  0.2061987E+03  0.7818608E-02  0.1146005E+00
         21   -1    0    0  503  502  0.00000000000E+00  0.00000000000E+00  0.30788113272E+03  0.30788113272E+03  0.00000000000E+00 0. -1.
         21   -1    0    0  501  503 -0.00000000000E+00 -0.00000000000E+00 -0.14217730959E+03  0.14217730959E+03  0.00000000000E+00 0. -1.
          6    2    1    2  501    0 -0.81812065038E+02  0.59262685912E+02  0.13936093557E+03  0.24887622452E+03  0.17975712738E+03 0.  0.
         24    2    3    3    0    0 -0.30737311324E+02  0.10415891714E+03  0.76586812893E+02  0.15621025168E+03  0.82111147184E+02 0.  0.
         -6    2    1    2    0  502  0.81812065038E+02 -0.59262685912E+02  0.26342887567E+02  0.20118221778E+03  0.17197400123E+03 0.  0.
        -24    2    5    5    0    0 -0.24009838429E+02 -0.23753711849E+02  0.25019408495E+02  0.89454852788E+02  0.78965110764E+02 0.  0.
          5    1    3    3  501    0 -0.51074753713E+02 -0.44896231231E+02  0.62774122673E+02  0.92665972844E+02  0.47000000000E+01 0. -1.
        -11    1    4    4    0    0  0.18824345984E+02  0.60153730460E+02  0.61861707005E+02  0.88315899381E+02  0.00000000000E+00 0.  1.
         12    1    4    4    0    0 -0.49561657308E+02  0.44005186684E+02  0.14725105888E+02  0.67894352295E+02  0.00000000000E+00 0. -1.
         -5    1    5    5    0  502  0.10582190347E+03 -0.35508974063E+02  0.13234790723E+01  0.11172736500E+03  0.47000000000E+01 0.  1.
         11    1    6    6    0    0 -0.33401743031E+02 -0.40062922115E+02 -0.66831210618E+01  0.52586864073E+02  0.00000000000E+00 0. -1.
        -12    1    6    6    0    0  0.93919046025E+01  0.16309210266E+02  0.31702529556E+02  0.36867988714E+02  0.00000000000E+00 0.  1.
</event>
<event>
12    1  0.8691829E-002  0.1891781E+03  0.7818608E-02  0.1159219E+00
         21   -1    0    0  503  502  0.00000000000E+00  0.00000000000E+00  0.13824366761E+03  0.13824366761E+03  0.00000000000E+00 0.  1.
         21   -1    0    0  501  503 -0.00000000000E+00 -0.00000000000E+00 -0.52987881295E+03  0.52987881295E+03  0.00000000000E+00 0.  1.
          6    2    1    2  501    0 -0.79578327859E+02  0.13337011403E+02 -0.43474299118E+03  0.47409510098E+03  0.17103832979E+03 0.  0.
         24    2    3    3    0    0 -0.32580499469E+02  0.85138991390E+01 -0.41126057717E+03  0.42112744998E+03  0.84137336343E+02 0.  0.
         -6    2    1    2    0  502  0.79578327859E+02 -0.13337011403E+02  0.43107845831E+02  0.19402737958E+03  0.17110742683E+03 0.  0.
        -24    2    5    5    0    0  0.32223466086E+02  0.24538024320E+02 -0.32672844232E+02  0.96858432632E+02  0.81691950751E+02 0.  0.
          5    1    3    3  501    0 -0.46997828390E+02  0.48231122638E+01 -0.23482414009E+02  0.52967651005E+02  0.47000000000E+01 0. -1.
        -11    1    4    4    0    0 -0.21790653282E+02  0.17287039620E+02 -0.35450176122E+02  0.45059841282E+02  0.00000000000E+00 0.  1.
         12    1    4    4    0    0 -0.10789846187E+02 -0.87731404814E+01 -0.37581040105E+03  0.37606760869E+03  0.00000000000E+00 0. -1.
         -5    1    5    5    0  502  0.47354861773E+02 -0.37875035722E+02  0.75780690063E+02  0.97168946948E+02  0.47000000000E+01 0.  1.
         11    1    6    6    0    0  0.20202936218E+02  0.49799166866E+02 -0.41083761498E+02  0.67646072400E+02  0.00000000000E+00 0. -1.
        -12    1    6    6    0    0  0.12020529868E+02 -0.25261142546E+02  0.84109172665E+01  0.29212360232E+02  0.00000000000E+00 0.  1.
</event>
<event>
12    1  0.8691829E-002  0.1946591E+03  0.7818608E-02  0.1155609E+00
         21   -1    0    0  501  502  0.00000000000E+00  0.00000000000E+00  0.77448233144E+02  0.77448233144E+02  0.00000000000E+00 0. -1.
         21   -1    0    0  502  503 -0.00000000000E+00 -0.00000000000E+00 -0.47639830867E+03  0.47639830867E+03  0.00000000000E+00 0.  1.
         -6    2    1    2    0  503  0.81451919659E+02  0.28864554559E+02 -0.21835649115E+03  0.29252644669E+03  0.17442645172E+03 0.  0.
        -24    2    3    3    0    0 -0.26737560875E+02  0.33233187949E+02 -0.81749592364E+02  0.11814874326E+03  0.73870073371E+02 0.  0.
          6    2    1    2  501    0 -0.81451919659E+02 -0.28864554559E+02 -0.18059358438E+03  0.26132009513E+03  0.16794812197E+03 0.  0.
         24    2    5    5    0    0 -0.97991682083E+02 -0.49816132342E+02 -0.81335525250E+02  0.15842799313E+03  0.79999653372E+02 0.  0.
          5    1    5    5  501    0  0.16539762424E+02  0.20951577783E+02 -0.99258059127E+02  0.10289210200E+03  0.47000000000E+01 0. -1.
        -13    1    6    6    0    0 -0.12323872844E+02 -0.45350965913E+02 -0.13021756303E+02  0.48766321251E+02  0.00000000000E+00 0.  1.
         14    1    6    6    0    0 -0.85667809239E+02 -0.44651664292E+01 -0.68313768947E+02  0.10966167188E+03  0.00000000000E+00 0. -1.
         -5    1    3    3    0  503  0.10818948053E+03 -0.43686333901E+01 -0.13660689879E+03  0.17437770343E+03  0.47000000000E+01 0.  1.
         13    1    4    4    0    0 -0.32696105681E+02  0.25813910074E+02 -0.63359634062E+01  0.42137129853E+02  0.00000000000E+00 0. -1.
        -14    1    4    4    0    0  0.59585448056E+01  0.74192778757E+01 -0.75413628958E+02  0.76011613409E+02  0.00000000000E+00 0.  1.
</event>
<event>
12    1  0.8691829E-002  0.3025873E+03  0.7818608E-02  0.1083970E+00
         21   -1    0    0  503  502  0.00000000000E+00  0.00000000000E+00  0.37617264704E+03  0.37617264704E+03  0.00000000000E+00 0. -1.
         21   -1    0    0  501  503 -0.00000000000E+00 -0.00000000000E+00 -0.46171044464E+03  0.46171044464E+03  0.00000000000E+00 0.  1.
          6    2    1    2  501    0  0.23838212756E+03 -0.72072724415E+02 -0.33091947724E+03  0.44840470890E+03  0.17186787425E+03 0.  0.
         24    2    3    3    0    0  0.19491022120E+03  0.83131459003E+01 -0.24230526962E+03  0.32102236090E+03  0.79274269399E+02 0.  0.
         -6    2    1    2    0  502 -0.23838212756E+03  0.72072724415E+02  0.24538167964E+03  0.38947838279E+03  0.17164127014E+03 0.  0.
        -24    2    5    5    0    0 -0.62940797842E+02  0.78148722979E+02  0.10539016960E+03  0.16489812806E+03  0.77559898490E+02 0.  0.
          5    1    3    3  501    0  0.43471906356E+02 -0.80385870315E+02 -0.88614207623E+02  0.12738234800E+03  0.47000000000E+01 0. -1.
        -13    1    4    4    0    0  0.50049349522E+02 -0.71976602724E+01 -0.12206330642E+03  0.13212189249E+03  0.00000000000E+00 0.  1.
         14    1    4    4    0    0  0.14486087168E+03  0.15510806173E+02 -0.12024196320E+03  0.18890046841E+03  0.00000000000E+00 0. -1.
         -5    1    5    5    0  502 -0.17544132971E+03 -0.60759985643E+01  0.13999151004E+03  0.22458025473E+03  0.47000000000E+01 0.  1.
         11    1    6    6    0    0 -0.32435479157E+02  0.47061228935E+02  0.10700540642E+03  0.12131354657E+03  0.00000000000E+00 0. -1.
        -12    1    6    6    0    0 -0.30505318685E+02  0.31087494044E+02 -0.16152368243E+01  0.43584581494E+02  0.00000000000E+00 0.  1.
</event>
<event>
12    1  0.8691829E-002  0.1831892E+03  0.7818608E-02  0.1164892E+00
         21   -1    0    0  501  502  0.00000000000E+00  0.00000000000E+00  0.27076747481E+03  0.27076747481E+03  0.00000000000E+00 0.  1.
         21   -1    0    0  502  503 -0.00000000000E+00 -0.00000000000E+00 -0.15590547177E+03  0.15590547177E+03  0.00000000000E+00 0. -1.
         -6    2    1    2    0  503 -0.23047070811E+02  0.57312451444E+02 -0.39702715601E+02  0.18744224583E+03  0.17245986586E+03 0.  0.
        -24    2    3    3    0    0 -0.53436266483E+02  0.46318091758E+02 -0.81789884636E+02  0.13417125038E+03  0.79445194950E+02 0.  0.
          6    2    1    2  501    0  0.23047070811E+02 -0.57312451444E+02  0.15456471864E+03  0.23923070075E+03  0.17182895964E+03 0.  0.
         24    2    5    5    0    0  0.40845784440E+01 -0.92212444897E+02  0.59145348689E+02  0.13576799336E+03  0.80093426537E+02 0.  0.
          5    1    5    5  501    0  0.18962492367E+02  0.34899993452E+02  0.95419369947E+02  0.10346270739E+03  0.47000000000E+01 0. -1.
        -11    1    6    6    0    0  0.12713201821E+02 -0.83721066119E+02  0.76827582944E+02  0.11433861952E+03  0.00000000000E+00 0.  1.
         12    1    6    6    0    0 -0.86286233774E+01 -0.84913787778E+01 -0.17682234255E+02  0.21429373840E+02  0.00000000000E+00 0. -1.
         -5    1    3    3    0  503  0.30389195672E+02  0.10994359686E+02  0.42087169035E+02  0.53270995446E+02  0.47000000000E+01 0.  1.
         11    1    4    4    0    0  0.15969327356E+02 -0.27942074541E+01 -0.26572053817E-01  0.16211962175E+02  0.00000000000E+00 0. -1.
        -12    1    4    4    0    0 -0.69405593839E+02  0.49112299212E+02 -0.81763312582E+02  0.11795928821E+03  0.00000000000E+00 0.  1.
</event>
<event>
12    1  0.8691829E-002  0.2725355E+03  0.7818608E-02  0.1100096E+00
         21   -1    0    0  501  502  0.00000000000E+00  0.00000000000E+00  0.83110470968E+02  0.83110470968E+02  0.00000000000E+00 0.  1.
         21   -1    0    0  502  503 -0.00000000000E+00 -0.00000000000E+00 -0.92964546471E+03  0.92964546471E+03  0.00000000000E+00 0. -1.
         -6    2    1    2    0  503  0.19443116512E+03  0.80730524300E+02 -0.31436468949E+03  0.41485891061E+03  0.17018185035E+03 0.  0.
        -24    2    3    3    0    0  0.23145316530E+02  0.27655652558E+02 -0.67255256334E+02  0.10950510616E+03  0.78533801478E+02 0.  0.
          6    2    1    2  501    0 -0.19443116512E+03 -0.80730524300E+02 -0.53217030425E+03  0.59789702506E+03  0.17307433182E+03 0.  0.
         24    2    5    5    0    0 -0.15125795228E+03 -0.11709123615E+03 -0.47014850537E+03  0.51390404197E+03  0.80426497734E+02 0.  0.
          5    1    5    5  501    0 -0.43173212839E+02  0.36360711854E+02 -0.62021798880E+02  0.83992983098E+02  0.47000000000E+01 0. -1.
        -13    1    6    6    0    0 -0.83244295800E+02 -0.71828529468E+02 -0.16703940558E+03  0.19997778238E+03  0.00000000000E+00 0.  1.
         14    1    6    6    0    0 -0.68013656483E+02 -0.45262706686E+02 -0.30310909979E+03  0.31392625959E+03  0.00000000000E+00 0. -1.
         -5    1    3    3    0  503  0.17128584859E+03  0.53074871742E+02 -0.24710943316E+03  0.30535380445E+03  0.47000000000E+01 0.  1.
         11    1    4    4    0    0 -0.56530153220E+01  0.38100500816E+02 -0.68782654351E+02  0.78833103987E+02  0.00000000000E+00 0. -1.
        -12    1    4    4    0    0  0.28798331852E+02 -0.10444848257E+02  0.15273980163E+01  0.30672002172E+02  0.00000000000E+00 0.  1.
</event>
<event>
12    1  0.8691829E-002  0.1797391E+03  0.7818608E-02  0.1168561E+00
         21   -1    0    0  503  502  0.00000000000E+00  0.00000000000E+00  0.15615212262E+04  0.15615212262E+04  0.00000000000E+00 0.  1.
         21   -1    0    0  501  503 -0.00000000000E+00 -0.00000000000E+00 -0.23139322582E+02  0.23139322582E+02  0.00000000000E+00 0.  1.
          6    2    1    2  501    0 -0.24712465791E+02  0.39736925308E+02  0.50307489348E+03  0.53421953268E+03  0.17354086393E+03 0.  0.
         24    2    3    3    0    0 -0.77374459180E+02  0.18894484344E+02  0.24405992132E+03  0.26904310331E+03  0.80468240762E+02 0.  0.
         -6    2    1    2    0  502  0.24712465791E+02 -0.39736925308E+02  0.10353070101E+04  0.10504410161E+04  0.17139426437E+03 0.  0.
        -24    2    5    5    0    0  0.75625360336E+02 -0.63087774100E+01  0.55009325189E+03  0.56139700469E+03  0.82492516621E+02 0.  0.
          5    1    3    3  501    0  0.52661993389E+02  0.20842440964E+02  0.25901497216E+03  0.26517642937E+03  0.47000000000E+01 0. -1.
        -11    1    4    4    0    0 -0.56093675578E+02  0.12828248677E+02  0.58103120962E+02  0.81774305681E+02  0.00000000000E+00 0.  1.
         12    1    4    4    0    0 -0.21280783602E+02  0.60662356672E+01  0.18595680036E+03  0.18726879763E+03  0.00000000000E+00 0. -1.
         -5    1    5    5    0  502 -0.50912894545E+02 -0.33428147898E+02  0.48521375823E+03  0.48904401139E+03  0.47000000000E+01 0.  1.
         13    1    6    6    0    0 -0.78879433123E+01  0.18669651846E+02  0.53481710093E+02  0.57193258905E+02  0.00000000000E+00 0. -1.
        -14    1    6    6    0    0  0.83513303648E+02 -0.24978429256E+02  0.49661154180E+03  0.50420374579E+03  0.00000000000E+00 0.  1.
</event>
<event>
12    1  0.8691829E-002  0.1922621E+03  0.7818608E-02  0.1158769E+00
         21   -1    0    0  503  502  0.00000000000E+00  0.00000000000E+00  0.57226152089E+02  0.57226152089E+02  0.00000000000E+00 0.  1.
         21   -1    0    0  501  503 -0.00000000000E+00 -0.00000000000E+00 -0.10872332521E+04  0.10872332521E+04  0.00000000000E+00 0. -1.
          6    2    1    2  501    0  0.60533381161E+02 -0.21113866717E+02 -0.88529680359E+03  0.90382317015E+03  0.17039896377E+03 0.  0.
         24    2    3    3    0    0 -0.86733626925E+01 -0.61053959438E+02 -0.44669667996E+03  0.45797909108E+03  0.80025688307E+02 0.  0.
         -6    2    1    2    0  502 -0.60533381161E+02  0.21113866717E+02 -0.14471029647E+03  0.24063623408E+03  0.18125849400E+03 0.  0.
        -24    2    5    5    0    0 -0.40854539696E+02 -0.46987067984E+00 -0.17804678034E+03  0.19606577662E+03  0.71216701530E+02 0.  0.
          5    1    3    3  501    0  0.69206743853E+02  0.39940092721E+02 -0.43860012363E+03  0.44584407908E+03  0.47000000000E+01 0. -1.
        -13    1    4    4    0    0  0.34196654697E+02 -0.37466099159E+02 -0.26487483536E+03  0.26968833528E+03  0.00000000000E+00 0.  1.
         14    1    4    4    0    0 -0.42870017390E+02 -0.23587860278E+02 -0.18182184460E+03  0.18829075580E+03  0.00000000000E+00 0. -1.
         -5    1    5    5    0  502 -0.19678841465E+02  0.21583737397E+02  0.33336483878E+02  0.44570457466E+02  0.47000000000E+01 0.  1.
         13    1    6    6    0    0 -0.10710533570E+02  0.21237178225E+02 -0.13440098985E+02  0.27319764440E+02  0.00000000000E+00 0. -1.
        -14    1    6    6    0    0 -0.30144006126E+02 -0.21707048905E+02 -0.16460668136E+03  0.16874601218E+03  0.00000000000E+00 0.  1.
</event>
<event>
12    1  0.8691829E-002  0.1977334E+03  0.7818608E-02  0.1151878E+00
         21   -1    0    0  501  502  0.00000000000E+00  0.00000000000E+00  0.24945012636E+03  0.24945012636E+03  0.00000000000E+00 0.  1.
         21   -1    0    0  502  503 -0.00000000000E+00 -0.00000000000E+00 -0.16018906884E+03  0.16018906884E+03  0.00000000000E+00 0. -1.
         -6    2    1    2    0  503 -0.47602451714E+01  0.95516291886E+02  0.78043547590E+02  0.21257774223E+03  0.17306784572E+03 0.  0.
        -24    2    3    3    0    0  0.12878353531E+02  0.80658716659E+02 -0.19731117770E+02  0.11201013864E+03  0.74062632862E+02 0.  0.
          6    2    1    2  501    0  0.47602451714E+01 -0.95516291886E+02  0.11217509929E+02  0.19706145298E+03  0.17193417860E+03 0.  0.
         24    2    5    5    0    0 -0.18462864844E+02 -0.27814012986E+02  0.60218006173E+02  0.11019344944E+03  0.86034245129E+02 0.  0.
          5    1    5    5  501    0  0.23223110016E+02 -0.67702278899E+02 -0.49000496244E+02  0.86868003541E+02  0.47000000000E+01 0. -1.
        -11    1    6    6    0    0 -0.20248768829E+02  0.73768677441E+01 -0.15588711059E+02  0.26597720378E+02  0.00000000000E+00 0.  1.
         12    1    6    6    0    0  0.17859039847E+01 -0.35190880730E+02  0.75806717232E+02  0.83595729061E+02  0.00000000000E+00 0. -1.
         -5    1    3    3    0  503 -0.17638598702E+02  0.14857575227E+02  0.97774665360E+02  0.10056760359E+03  0.47000000000E+01 0.  1.
         11    1    4    4    0    0 -0.25231042055E+01  0.86557086845E+02 -0.39342175845E+00  0.86594746484E+02  0.00000000000E+00 0. -1.
        -12    1    4    4    0    0  0.15401457737E+02 -0.58983701867E+01 -0.19337696012E+02  0.25415392153E+02  0.00000000000E+00 0.  1.
</event>
<event>
12    1  0.8691829E-002  0.2835783E+03  0.7818608E-02  0.1094010E+00
         21   -1    0    0  503  502  0.00000000000E+00  0.00000000000E+00  0.16083008367E+03  0.16083008367E+03  0.00000000000E+00 0.  1.
         21   -1    0    0  501  503 -0.00000000000E+00 -0.00000000000E+00 -0.59790670923E+03  0.59790670923E+03  0.00000000000E+00 0. -1.
          6    2    1    2  501    0  0.10555344867E+03  0.19938413087E+03 -0.37529672532E+03  0.47038737143E+03  0.17181701020E+03 0.  0.
         24    2    3    3    0    0  0.42181716798E+02  0.79832425724E+02 -0.77841754701E+02  0.14356917097E+03  0.80001591545E+02 0.  0.
         -6    2    1    2    0  502 -0.10555344867E+03 -0.19938413087E+03 -0.61779900236E+02  0.28834942147E+03  0.16862108593E+03 0.  0.
        -24    2    5    5    0    0 -0.10568794848E+03 -0.20618850240E+03 -0.20533743380E+02  0.24628217747E+03  0.80929817442E+02 0.  0.
          5    1    3    3  501    0  0.63371731876E+02  0.11955170514E+03 -0.29745497062E+03  0.32681820045E+03  0.47000000000E+01 0. -1.
        -11    1    4    4    0    0  0.64051418605E+02  0.45397645490E+02 -0.61067172119E+02  0.99462203635E+02  0.00000000000E+00 0.  1.
         12    1    4    4    0    0 -0.21869701807E+02  0.34434780234E+02 -0.16774582583E+02  0.44106967338E+02  0.00000000000E+00 0. -1.
         -5    1    5    5    0  502  0.13449980145E+00  0.68043715296E+01 -0.41246156856E+02  0.42067243997E+02  0.47000000000E+01 0.  1.
         11    1    6    6    0    0 -0.46996803649E+02 -0.44724250622E+02 -0.35282485667E+02  0.73849928516E+02  0.00000000000E+00 0. -1.
        -12    1    6    6    0    0 -0.58691144826E+02 -0.16146425177E+03  0.14748742287E+02  0.17243224896E+03  0.00000000000E+00 0.  1.
</event>
<event>
12    1  0.8691829E-002  0.1817896E+03  0.7818608E-02  0.1167005E+00
         21   -1    0    0  501  502  0.00000000000E+00  0.00000000000E+00  0.21128496272E+03  0.21128496272E+03  0.00000000000E+00 0. -1.
         21   -1    0    0  502  503 -0.00000000000E+00 -0.00000000000E+00 -0.18013013654E+03  0.18013013654E+03  0.00000000000E+00 0.  1.
         -6    2    1    2    0  503 -0.13751374987E+02 -0.57147823498E+02 -0.60031965357E+02  0.19144529072E+03  0.17202467390E+03 0.  0.
        -24    2    3    3    0    0 -0.16656154432E+02 -0.59165769028E+02 -0.10492699353E+03  0.14616656059E+03  0.81098543509E+02 0.  0.
          6    2    1    2  501    0  0.13751374987E+02  0.57147823498E+02  0.91186791540E+02  0.19996980854E+03  0.16798190180E+03 0.  0.
         24    2    5    5    0    0  0.19559188964E+02 -0.32085723942E+02  0.47552206889E+02  0.10035844539E+03  0.79990934653E+02 0.  0.
          5    1    5    5  501    0 -0.58078139775E+01  0.89233547440E+02  0.43634584651E+02  0.99611363155E+02  0.47000000000E+01 0. -1.
        -13    1    6    6    0    0  0.32581555391E+02 -0.17886273042E+01 -0.99131219702E+01  0.34103180593E+02  0.00000000000E+00 0.  1.
         14    1    6    6    0    0 -0.13022366427E+02 -0.30297096637E+02  0.57465328859E+02  0.66255264794E+02  0.00000000000E+00 0. -1.
         -5    1    3    3    0  503  0.29047794456E+01  0.20179455295E+01  0.44895028171E+02  0.45278730131E+02  0.47000000000E+01 0.  1.
         11    1    4    4    0    0  0.11067705182E+02 -0.69546754959E+02 -0.60843659747E+02  0.93065547625E+02  0.00000000000E+00 0. -1.
        -12    1    4    4    0    0 -0.27723859614E+02  0.10380985932E+02 -0.44083333781E+02  0.53101012967E+02  0.00000000000E+00 0.  1.
</event>
<event>
12    1  0.8691829E-002  0.2017221E+03  0.7818608E-02  0.1148456E+00
         21   -1    0    0  503  502  0.00000000000E+00  0.00000000000E+00  0.12618120456E+03  0.12618120456E+03  0.00000000000E+00 0.  1.
         21   -1    0    0  501  503 -0.00000000000E+00 -0.00000000000E+00 -0.45175551067E+03  0.45175551067E+03  0.00000000000E+00 0. -1.
          6    2    1    2  501    0  0.93689009795E+02 -0.46028848241E+02 -0.31787961885E+03  0.37606795834E+03  0.17170722694E+03 0.  0.
         24    2    3    3    0    0  0.10961928911E+03 -0.19667799555E+02 -0.14107438253E+03  0.19653840568E+03  0.79511965241E+02 0.  0.
         -6    2    1    2    0  502 -0.93689009795E+02  0.46028848241E+02 -0.76946872630E+01  0.20186875689E+03  0.17261373459E+03 0.  0.
        -24    2    5    5    0    0 -0.28081736736E+02  0.46297518083E+02 -0.63461316147E+02  0.11563423156E+03  0.80074295144E+02 0.  0.
          5    1    3    3  501    0 -0.15930279319E+02 -0.26361048685E+02 -0.17680523632E+03  0.17952955266E+03  0.47000000000E+01 0. -1.
        -11    1    4    4    0    0  0.50893186290E+02 -0.34994828303E+02 -0.27175541628E+02  0.67477881424E+02  0.00000000000E+00 0.  1.
         12    1    4    4    0    0  0.58726102825E+02  0.15327028747E+02 -0.11389884090E+03  0.12906052425E+03  0.00000000000E+00 0. -1.
         -5    1    5    5    0  502 -0.65607273059E+02 -0.26866984229E+00  0.55766628884E+02  0.86234525330E+02  0.47000000000E+01 0.  1.
         13    1    6    6    0    0  0.78392631929E+01 -0.19870721889E+02 -0.14819577294E+02  0.25998452011E+02  0.00000000000E+00 0. -1.
        -14    1    6    6    0    0 -0.35920999929E+02  0.66168239972E+02 -0.48641738853E+02  0.89635779550E+02  0.00000000000E+00 0.  1.
</event>
<event>
12    1  0.8691829E-002  0.1950109E+03  0.7818608E-02  0.1154306E+00
         21   -1    0    0  503  502  0.00000000000E+00  0.00000000000E+00  0.94607021436E+03  0.94607021436E+03  0.00000000000E+00 0. -1.
         21   -1    0    0  501  503 -0.00000000000E+00 -0.00000000000E+00 -0.50606073903E+02  0.50606073903E+02  0.00000000000E+00 0.  1.
          6    2    1    2  501    0  0.34173630655E+02 -0.81358900367E+02  0.21999453143E+03  0.29398440446E+03  0.17390264088E+03 0.  0.
         24    2    3    3    0    0 -0.47616131526E+02 -0.52901178767E+02  0.13371356049E+03  0.17164919667E+03  0.80735988037E+02 0.  0.
         -6    2    1    2    0  502 -0.34173630655E+02  0.81358900367E+02  0.67546960903E+03  0.70269188381E+03  0.17242268745E+03 0.  0.
        -24    2    5    5    0    0  0.52448791958E+02  0.42933482993E+01  0.26018683188E+03  0.27150234497E+03  0.56982692266E+02 0.  0.
          5    1    3    3  501    0  0.81789762182E+02 -0.28457721600E+02  0.86280970943E+02  0.12233520778E+03  0.47000000000E+01 0. -1.
        -13    1    4    4    0    0 -0.25784349311E+02  0.50747180223E+01  0.23170869322E+01  0.26380946235E+02  0.00000000000E+00 0.  1.
         14    1    4    4    0    0 -0.21831782216E+02 -0.57975896789E+02  0.13139647355E+03  0.14526825044E+03  0.00000000000E+00 0. -1.
         -5    1    5    5    0  502 -0.86622422613E+02  0.77065552068E+02  0.41528277715E+03  0.43118953885E+03  0.47000000000E+01 0.  1.
         11    1    6    6    0    0  0.50007128930E+02  0.24187046016E+02  0.21517775825E+03  0.22223229689E+03  0.00000000000E+00 0. -1.
        -12    1    6    6    0    0  0.24416630275E+01 -0.19893697716E+02  0.45009073640E+02  0.49270048073E+02  0.00000000000E+00 0.  1.
</event>
<event>
12    1  0.8691829E-002  0.2028517E+03  0.7818608E-02  0.1147519E+00
         21   -1    0    0  501  502  0.00000000000E+00  0.00000000000E+00  0.17457991047E+03  0.17457991047E+03  0.00000000000E+00 0. -1.
         21   -1    0    0  502  503 -0.00000000000E+00 -0.00000000000E+00 -0.26057577930E+03  0.26057577930E+03  0.00000000000E+00 0. -1.
         -6    2    1    2    0  503 -0.60012334894E+02  0.88008723389E+02 -0.11152651653E+03  0.23148859284E+03  0.17263194661E+03 0.  0.
        -24    2    3    3    0    0 -0.10697166979E+03  0.54485615206E+02 -0.66996687786E+02  0.15845453527E+03  0.78788724903E+02 0.  0.
          6    2    1    2  501    0  0.60012334894E+02 -0.88008723389E+02  0.25530647699E+02  0.20366709694E+03  0.17170165017E+03 0.  0.
         24    2    5    5    0    0 -0.88018706670E+01 -0.95439012332E+02 -0.10360939510E+02  0.12555883801E+03  0.80446222608E+02 0.  0.
          5    1    5    5  501    0  0.68814205561E+02  0.74302889432E+01  0.35891587210E+02  0.78108258931E+02  0.47000000000E+01 0. -1.
        -11    1    6    6    0    0 -0.12283199107E+02 -0.11129213963E+02 -0.34088492380E+02  0.37904639511E+02  0.00000000000E+00 0.  1.
         12    1    6    6    0    0  0.34813284396E+01 -0.84309798369E+02  0.23727552870E+02  0.87654198496E+02  0.00000000000E+00 0. -1.
         -5    1    3    3    0  503  0.46959334896E+02  0.33523108183E+02 -0.44529828746E+02  0.73034057564E+02  0.47000000000E+01 0.  1.
         11    1    4    4    0    0 -0.55856942877E+02  0.21618908747E+02  0.96214143774E+01  0.60662565867E+02  0.00000000000E+00 0. -1.
        -12    1    4    4    0    0 -0.51114726913E+02  0.32866706459E+02 -0.76618102164E+02  0.97791969405E+02  0.00000000000E+00 0.  1.
</event>
<event>
12    1  0.8691829E-002  0.2619379E+03  0.7818608E-02  0.1106216E+00
         21   -1    0    0  503  502  0.00000000000E+00  0.00000000000E+00  0.44015006030E+03  0.44015006030E+03  0.00000000000E+00 0. -1.
         21   -1    0    0  501  503 -0.00000000000E+00 -0.00000000000E+00 -0.24368383372E+03  0.24368383372E+03  0.00000000000E+00 0. -1.
          6    2    1    2  501    0  0.24621945173E+01  0.19593796200E+03 -0.10789239850E+03  0.28328823578E+03  0.17382090646E+03 0.  0.
         24    2    3    3    0    0 -0.18086988049E+02  0.94557264395E+02 -0.12724467196E+03  0.17794633890E+03  0.78774853854E+02 0.  0.
         -6    2    1    2    0  502 -0.24621945173E+01 -0.19593796200E+03  0.30435862507E+03  0.40054565823E+03  0.17147858268E+03 0.  0.
        -24    2    5    5    0    0  0.22359188357E+02 -0.16041806616E+03  0.30734632576E+03  0.35685606676E+03  0.81551205788E+02 0.  0.
          5    1    3    3  501    0  0.20549182566E+02  0.10138069761E+03  0.19352273457E+02  0.10534189688E+03  0.47000000000E+01 0. -1.
        -11    1    4    4    0    0 -0.24667106842E+02  0.64924023685E+01 -0.32430082552E+01  0.25712536845E+02  0.00000000000E+00 0.  1.
         12    1    4    4    0    0  0.65801187933E+01  0.88064862027E+02 -0.12400166370E+03  0.15223380205E+03  0.00000000000E+00 0. -1.
         -5    1    5    5    0  502 -0.24821382874E+02 -0.35519895837E+02 -0.29877006893E+01  0.43689591478E+02  0.47000000000E+01 0.  1.
         13    1    6    6    0    0  0.33941699891E+02 -0.16471060699E+03  0.29377806858E+03  0.33850727706E+03  0.00000000000E+00 0. -1.
        -14    1    6    6    0    0 -0.11582511535E+02  0.42925408275E+01  0.13568257187E+02  0.18348789695E+02  0.00000000000E+00 0.  1.
</event>
<event>
12    1  0.8691829E-002  0.1896794E+03  0.7818608E-02  0.1158771E+00
         21   -1    0    0  501  502  0.00000000000E+00  0.00000000000E+00  0.59797329283E+03  0.59797329283E+03  0.00000000000E+00 0. -1.
         21   -1    0    0  502  503 -0.00000000000E+00 -0.00000000000E+00 -0.64803834669E+02  0.64803834669E+02  0.00000000000E+00 0. -1.
         -6    2    1    2    0  503  0.20834010685E+02 -0.77534345830E+02  0.17760812755E+03  0.25978563938E+03  0.17175069337E+03 0.  0.
        -24    2    3    3    0    0 -0.52583294730E+02 -0.54280474890E+02  0.84664696453E+02  0.13899071137E+03  0.80242969685E+02 0.  0.
          6    2    1    2  501    0 -0.20834010685E+02  0.77534345830E+02  0.35556133061E+03  0.40299148812E+03  0.17185065867E+03 0.  0.
         24    2    5    5    0    0  0.72415308613E+01  0.21366356996E+02  0.74883477987E+02  0.11533678894E+03  0.84770741579E+02 0.  0.
          5    1    5    5  501    0 -0.28075541547E+02  0.56167988834E+02  0.28067785262E+03  0.28765469917E+03  0.47000000000E+01 0. -1.
        -11    1    6    6    0    0  0.44192303511E+02  0.10080302691E+02  0.23525520086E+02  0.51068799548E+02  0.00000000000E+00 0.  1.
         12    1    6    6    0    0 -0.36950772650E+02  0.11286054305E+02  0.51357957901E+02  0.64267989395E+02  0.00000000000E+00 0. -1.
         -5    1    3    3    0  503  0.73417305415E+02 -0.23253870940E+02  0.92943431094E+02  0.12079492800E+03  0.47000000000E+01 0.  1.
         11    1    4    4    0    0 -0.40755238450E+02 -0.62619773808E+02  0.95252508374E+02  0.12105893558E+03  0.00000000000E+00 0. -1.
        -12    1    4    4    0    0 -0.11828056280E+02  0.83392989179E+01 -0.10587811920E+02  0.17931775792E+02  0.00000000000E+00 0.  1.
</event>
<event>
12    1  0.8691829E-002  0.1977064E+03  0.7818608E-02  0.1153214E+00
         21   -1    0    0  503  502  0.00000000000E+00  0.00000000000E+00  0.83818017828E+02  0.83818017828E+02  0.00000000000E+00 0. -1.
         21   -1    0    0  501  503 -0.00000000000E+00 -0.00000000000E+00 -0.87808601071E+03  0.87808601071E+03  0.00000000000E+00 0. -1.
          6    2    1    2  501    0  0.68302651943E+01 -0.81395782447E+02 -0.73658285305E+03  0.76265464402E+03  0.18004410767E+03 0.  0.
         24    2    3    3    0    0 -0.66785940585E+02 -0.46531524355E+02 -0.37613420440E+03  0.39308708516E+03  0.80093521455E+02 0.  0.
         -6    2    1    2    0  502 -0.68302651943E+01  0.81395782447E+02 -0.57685139829E+02  0.19924938452E+03  0.17233924670E+03 0.  0.
        -24    2    5    5    0    0  0.38295559614E+02  0.10543276974E+03 -0.53409360504E+02  0.14772765016E+03  0.79926716507E+02 0.  0.
          5    1    3    3  501    0  0.73616205780E+02 -0.34864258091E+02 -0.36044864865E+03  0.36956755886E+03  0.47000000000E+01 0. -1.
        -13    1    4    4    0    0 -0.35625549780E+02  0.71030749198E+01 -0.54307723291E+02  0.65337296237E+02  0.00000000000E+00 0.  1.
         14    1    4    4    0    0 -0.31160390805E+02 -0.53634599275E+02 -0.32182648111E+03  0.32774978892E+03  0.00000000000E+00 0. -1.
         -5    1    5    5    0  502 -0.45125824808E+02 -0.24036987292E+02 -0.42757793243E+01  0.51521734361E+02  0.47000000000E+01 0.  1.
         13    1    6    6    0    0 -0.14392020465E+02  0.74270653857E+02 -0.37727066107E+02  0.84537517082E+02  0.00000000000E+00 0. -1.
        -14    1    6    6    0    0  0.52687580080E+02  0.31162115882E+02 -0.15682294398E+02  0.63190133078E+02  0.00000000000E+00 0.  1.
</event>
<event>
12    1  0.8691829E-002  0.2083576E+03  0.7818608E-02  0.1142893E+00
         21   -1    0    0  501  502  0.00000000000E+00  0.00000000000E+00  0.10989912059E+04  0.10989912059E+04  0.00000000000E+00 0. -1.
         21   -1    0    0  502  503 -0.00000000000E+00 -0.00000000000E+00 -0.21437175368E+03  0.21437175368E+03  0.00000000000E+00 0. -1.
         -6    2    1    2    0  503  0.89803582602E+02  0.75402265859E+02 -0.15084139384E+03  0.25714705457E+03  0.17210838572E+03 0.  0.
        -24    2    3    3    0    0  0.44291460639E+02  0.11464236771E+03 -0.11746146179E+03  0.18824532235E+03  0.80836256851E+02 0.  0.
          6    2    1    2  501    0 -0.89803582602E+02 -0.75402265859E+02  0.10354608461E+04  0.10562159050E+04  0.17222859556E+03 0.  0.
         24    2    5    5    0    0 -0.12870648694E+03 -0.51575267140E+02  0.73824238038E+03  0.75548002725E+03  0.80764419260E+02 0.  0.
          5    1    5    5  501    0  0.38902904333E+02 -0.23826998719E+02  0.29721846571E+03  0.30073587779E+03  0.47000000000E+01 0. -1.
        -13    1    6    6    0    0 -0.77812222099E+02 -0.51352472804E+02  0.29641194787E+03  0.31072795370E+03  0.00000000000E+00 0.  1.
         14    1    6    6    0    0 -0.50894264836E+02 -0.22279433610E+00  0.44183043251E+03  0.44475207354E+03  0.00000000000E+00 0. -1.
         -5    1    3    3    0  503  0.45512121963E+02 -0.39240101854E+02 -0.33379932054E+02  0.68901732221E+02  0.47000000000E+01 0.  1.
         13    1    4    4    0    0 -0.34062601560E+01  0.90512719845E+02 -0.91757584353E+02  0.12893257675E+03  0.00000000000E+00 0. -1.
        -14    1    4    4    0    0  0.47697720795E+02  0.24129647868E+02 -0.25703877437E+02  0.59312745600E+02  0.00000000000E+00 0.  1.
</event>
<event>
12    1  0.8691829E-002  0.1759693E+03  0.7818608E-02  0.1171868E+00
         21   -1    0    0  501  502  0.00000000000E+00  0.00000000000E+00  0.10809276494E+03  0.10809276494E+03  0.00000000000E+00 0. -1.
         21   -1    0    0  502  503 -0.00000000000E+00 -0.00000000000E+00 -0.39995361987E+03  0.39995361987E+03  0.00000000000E+00 0. -1.
         -6    2    1    2    0  503  0.17147532956E+02 -0.40625359621E+02 -0.28178123595E+03  0.33221355700E+03  0.17035470286E+03 0.  0.
        -24    2    3    3    0    0  0.69305871799E+01 -0.83090737093E+02 -0.25860294015E+03  0.28254447546E+03  0.77484168244E+02 0.  0.
          6    2    1    2  501    0 -0.17147532956E+02  0.40625359621E+02 -0.10079618976E+02  0.17583282781E+03  0.16991505786E+03 0.  0.
         24    2    5    5    0    0  0.56659520843E+02 -0.80991132133E+01  0.13840468444E+01  0.86529630344E+02  0.64881156007E+02 0.  0.
          5    1    5    5  501    0 -0.73807053800E+02  0.48724472834E+02 -0.11463665820E+02  0.89303197466E+02  0.47000000000E+01 0. -1.
        -13    1    6    6    0    0  0.24444577535E+02 -0.33698468871E+01  0.32959791579E+02  0.41173305671E+02  0.00000000000E+00 0.  1.
         14    1    6    6    0    0  0.32214943308E+02 -0.47292663262E+01 -0.31575744735E+02  0.45356324674E+02  0.00000000000E+00 0. -1.
         -5    1    3    3    0  503  0.10216945777E+02  0.42465377473E+02 -0.23178295805E+02  0.49669081543E+02  0.47000000000E+01 0.  1.
         13    1    4    4    0    0 -0.60933247483E+01 -0.63169971965E+02 -0.78823420553E+02  0.10119637144E+03  0.00000000000E+00 0. -1.
        -14    1    4    4    0    0  0.13023911928E+02 -0.19920765128E+02 -0.17977951960E+03  0.18134810402E+03  0.00000000000E+00 0.  1.
</event>
<event>
12    1  0.8691829E-002  0.2611967E+03  0.7818608E-02  0.1106582E+00
         21   -1    0    0  503  502  0.00000000000E+00  0.00000000000E+00  0.20605370628E+04  0.20605370628E+04  0.00000000000E+00 0.  1.
         21   -1    0    0  501  503 -0.00000000000E+00 -0.00000000000E+00 -0.35207208648E+02  0.35207208648E+02  0.00000000000E+00 0. -1.
          6    2    1    2  501    0  0.13661410049E+03 -0.13875062923E+03  0.74708633531E+03  0.79108715681E+03  0.17252752737E+03 0.  0.
         24    2    3    3    0    0  0.12520019284E+03 -0.65752236942E+02  0.33992300415E+03  0.37724768212E+03  0.82278308018E+02 0.  0.
         -6    2    1    2    0  502 -0.13661410049E+03  0.13875062923E+03  0.12782435188E+04  0.13046571146E+04  0.17409349138E+03 0.  0.
        -24    2    5    5    0    0 -0.77786111093E+02  0.10625184974E+03  0.49359313744E+03  0.51711967804E+03  0.80239899281E+02 0.  0.
          5    1    3    3  501    0  0.11413907650E+02 -0.72998392286E+02  0.40716333116E+03  0.41383947468E+03  0.47000000000E+01 0. -1.
        -11    1    4    4    0    0  0.90239484322E+02 -0.10240185496E+02  0.24963743475E+03  0.26564426355E+03  0.00000000000E+00 0.  1.
         12    1    4    4    0    0  0.34960708522E+02 -0.55512051445E+02  0.90285569396E+02  0.11160341857E+03  0.00000000000E+00 0. -1.
         -5    1    5    5    0  502 -0.58827989401E+02  0.32498779489E+02  0.78465038138E+03  0.78753743657E+03  0.47000000000E+01 0.  1.
         11    1    6    6    0    0  0.50569506411E+01  0.60651579075E+00 -0.49458651961E+00  0.51171502827E+01  0.00000000000E+00 0. -1.
        -12    1    6    6    0    0 -0.82843061734E+02  0.10564533395E+03  0.49408772396E+03  0.51200252776E+03  0.00000000000E+00 0.  1.
</event>
<event>
12    1  0.8691829E-002  0.1994298E+03  0.7818608E-02  0.1150353E+00
         21   -1    0    0  501  502  0.00000000000E+00  0.00000000000E+00  0.13823317138E+03  0.13823317138E+03  0.00000000000E+00 0. -1.
         21   -1    0    0  502  503 -0.00000000000E+00 -0.00000000000E+00 -0.33536396068E+03  0.33536396068E+03  0.00000000000E+00 0. -1.
         -6    2    1    2    0  503  0.49694812165E+01  0.99604097079E+02 -0.18878572452E+03  0.27461302629E+03  0.17270377103E+03 0.  0.
        -24    2    3    3    0    0 -0.27429083411E+01  0.10988989291E+03 -0.66113820657E+02  0.15117978706E+03  0.80006116178E+02 0.  0.
          6    2    1    2  501    0 -0.49694812165E+01 -0.99604097079E+02 -0.83450647836E+01  0.19898410578E+03  0.17198651792E+03 0.  0.
         24    2    5    5    0    0  0.48453872791E+02 -0.72157583939E+01 -0.36837031850E+01  0.92056662292E+02  0.77852517272E+02 0.  0.
          5    1    5    5  501    0 -0.53423354008E+02 -0.92388338685E+02 -0.46613615986E+01  0.10692744349E+03  0.47000000000E+01 0. -1.
        -11    1    6    6    0    0 -0.20096778117E+02 -0.10077378529E+02 -0.64555402397E+01  0.23390340923E+02  0.00000000000E+00 0.  1.
         12    1    6    6    0    0  0.68550650908E+02  0.28616201348E+01  0.27718370547E+01  0.68666321369E+02  0.00000000000E+00 0. -1.
         -5    1    3    3    0  503  0.77123895575E+01 -0.10285795827E+02 -0.12267190386E+03  0.12343323922E+03  0.47000000000E+01 0.  1.
         13    1    4    4    0    0  0.53882807336E+01  0.10275057162E+02 -0.48280669177E+02  0.49655144599E+02  0.00000000000E+00 0. -1.
        -14    1    4    4    0    0 -0.81311890746E+01  0.99614835744E+02 -0.17833151480E+02  0.10152464247E+03  0.00000000000E+00 0.  1.
</event>
<event>
12    1  0.8691829E-002  0.2097612E+03  0.7818608E-02  0.1141920E+00
         21   -1    0    0  503  502  0.00000000000E+00  0.00000000000E+00  0.19634096206E+04  0.19634096206E+04  0.00000000000E+00 0.  1.
         21   -1    0    0  501  503 -0.00000000000E+00 -0.00000000000E+00 -0.24478712764E+02  0.24478712764E+02  0.00000000000E+00 0.  1.
          6    2    1    2  501    0  0.54002095345E+01 -0.11870783140E+03  0.67265976504E+03  0.70436101706E+03  0.17185043308E+03 0.  0.
         24    2    3    3    0    0  0.12801126452E+02 -0.10763553351E+03  0.27337691503E+03  0.30482847312E+03  0.80225827777E+02 0.  0.
         -6    2    1    2    0  502 -0.54002095345E+01  0.11870783140E+03  0.12662711428E+04  0.12835273163E+04  0.17285558458E+03 0.  0.
        -24    2    5    5    0    0 -0.11050858083E+01  0.63074404155E+02  0.11496288900E+04  0.11541401784E+04  0.80083487819E+02 0.  0.
          5    1    3    3  501    0 -0.74009169177E+01 -0.11072297895E+02  0.39928285001E+03  0.39953254394E+03  0.47000000000E+01 0. -1.
        -11    1    4    4    0    0 -0.32584562574E+01  0.77881440232E+01  0.69379754130E+02  0.69891508838E+02  0.00000000000E+00 0.  1.
         12    1    4    4    0    0  0.16059582710E+02 -0.11542367753E+03  0.20399716090E+03  0.23493696429E+03  0.00000000000E+00 0. -1.
         -5    1    5    5    0  502 -0.42951237262E+01  0.55633427250E+02  0.11664225280E+03  0.12938713790E+03  0.47000000000E+01 0.  1.
         11    1    6    6    0    0 -0.23951655040E+02 -0.44993088161E+01  0.50274550652E+03  0.50333584204E+03  0.00000000000E+00 0. -1.
        -12    1    6    6    0    0  0.22846569232E+02  0.67573712971E+02  0.64688338345E+03  0.65080433633E+03  0.00000000000E+00 0.  1.
</event>
<event>
12    1  0.8691829E-002  0.1760073E+03  0.7818608E-02  0.1172591E+00
         21   -1    0    0  501  502  0.00000000000E+00  0.00000000000E+00  0.80193668385E+02  0.80193668385E+02  0.00000000000E+00 0. -1.
         21   -1    0    0  502  503 -0.00000000000E+00 -0.00000000000E+00 -0.94346850205E+03  0.94346850205E+03  0.00000000000E+00 0.  1.
         -6    2    1    2    0  503  0.34753053853E+02  0.97067787805E+01 -0.82931515995E+03  0.84778665524E+03  0.17226892342E+03 0.  0.
        -24    2    3    3    0    0  0.56936526637E+02 -0.34291665835E+02 -0.33107835303E+03  0.34709715529E+03  0.80286194035E+02 0.  0.
          6    2    1    2  501    0 -0.34753053853E+02 -0.97067787805E+01 -0.33959673709E+02  0.17587551519E+03  0.16875112177E+03 0.  0.
         24    2    5    5    0    0 -0.26529943533E+02  0.47761258634E+01 -0.86701840466E+02  0.12036695527E+03  0.79021171203E+02 0.  0.
          5    1    5    5  501    0 -0.82231103196E+01 -0.14482904644E+02  0.52742166757E+02  0.55508559920E+02  0.47000000000E+01 0. -1.
        -11    1    6    6    0    0 -0.33069725632E+02  0.26035501898E+02 -0.14026922328E+02  0.44364497771E+02  0.00000000000E+00 0.  1.
         12    1    6    6    0    0  0.65397820983E+01 -0.21259376035E+02 -0.72674918138E+02  0.76002457498E+02  0.00000000000E+00 0. -1.
         -5    1    3    3    0  503 -0.22183472785E+02  0.43998444616E+02 -0.49823680692E+03  0.50068949996E+03  0.47000000000E+01 0.  1.
         13    1    4    4    0    0  0.26034162565E+02 -0.20137176299E+02 -0.29751123448E+03  0.29932627370E+03  0.00000000000E+00 0. -1.
        -14    1    4    4    0    0  0.30902364073E+02 -0.14154489536E+02 -0.33567118553E+02  0.47770881583E+02  0.00000000000E+00 0.  1.
</event>
<event>
12    1  0.8691829E-002  0.2433204E+03  0.7818608E-02  0.1117777E+00
         21   -1    0    0  503  502  0.00000000000E+00  0.00000000000E+00  0.18049155205E+03  0.18049155205E+03  0.00000000000E+00 0. -1.
         21   -1    0    0  501  503 -0.00000000000E+00 -0.00000000000E+00 -0.51494038006E+03  0.51494038006E+03  0.00000000000E+00 0. -1.
          6    2    1    2  501    0 -0.72148440710E+02  0.15657559830E+03  0.43315382998E+02  0.24608729716E+03  0.17018055100E+03 0.  0.
         24    2    3    3    0    0 -0.85308508869E+02  0.37041620282E+02  0.20456732395E+02  0.12358763511E+03  0.78776914979E+02 0.  0.
         -6    2    1    2    0  502  0.72148440710E+02 -0.15657559830E+03 -0.37776421101E+03  0.44934463496E+03  0.17170756059E+03 0.  0.
        -24    2    5    5    0    0  0.11391528106E+03 -0.12255077093E+03 -0.26319606616E+03  0.32265561552E+03  0.82698816632E+02 0.  0.
          5    1    3    3  501    0  0.13160068159E+02  0.11953397802E+03  0.22858650604E+02  0.12249966205E+03  0.47000000000E+01 0. -1.
        -13    1    4    4    0    0  0.89247411181E+01 -0.43493592578E+01 -0.12087460634E+02  0.15642078972E+02  0.00000000000E+00 0.  1.
         14    1    4    4    0    0 -0.94233249987E+02  0.41390979539E+02  0.32544193029E+02  0.10794555614E+03  0.00000000000E+00 0. -1.
         -5    1    5    5    0  502 -0.41766840350E+02 -0.34024827372E+02 -0.11456814485E+03  0.12668901944E+03  0.47000000000E+01 0.  1.
         11    1    6    6    0    0  0.65829213091E+02 -0.10858250573E+03 -0.22954428647E+03  0.26232465629E+03  0.00000000000E+00 0. -1.
        -12    1    6    6    0    0  0.48086067969E+02 -0.13968265201E+02 -0.33651779681E+02  0.60330959227E+02  0.00000000000E+00 0.  1.
</event>
<event>
12    1  0.8691829E-002  0.2032603E+03  0.7818608E-02  0.1147018E+00
         21   -1    0    0  503  502  0.00000000000E+00  0.00000000000E+00  0.55049059520E+03  0.55049059520E+03  0.00000000000E+00 0.  1.
         21   -1    0    0  501  503 -0.00000000000E+00 -0.00000000000E+00 -0.11532360145E+03  0.11532360145E+03  0.00000000000E+00 0. -1.
          6    2    1    2  501    0 -0.10612560878E+03  0.20207520626E+02  0.20850503673E+02  0.20432694686E+03  0.17217365937E+03 0.  0.
         24    2    3    3    0    0 -0.93524738255E+02  0.21013561630E+02  0.76396415388E+02  0.14717040788E+03  0.81451029659E+02 0.  0.
         -6    2    1    2    0  502  0.10612560878E+03 -0.20207520626E+02  0.41431649008E+03  0.46148724980E+03  0.17216660259E+03 0.  0.
        -24    2    5    5    0    0  0.33494211337E+02 -0.57342185652E+02  0.14110813015E+03  0.17632203247E+03  0.82267650326E+02 0.  0.
          5    1    3    3  501    0 -0.12600870522E+02 -0.80604100446E+00 -0.55545911716E+02  0.57156538981E+02  0.47000000000E+01 0. -1.
        -11    1    4    4    0    0 -0.64088563940E+01 -0.91512673579E+01  0.50060412831E+02  0.51291949342E+02  0.00000000000E+00 0.  1.
         12    1    4    4    0    0 -0.87115881861E+02  0.30164828988E+02  0.26336002558E+02  0.95878458535E+02  0.00000000000E+00 0. -1.
         -5    1    5    5    0  502  0.72631397441E+02  0.37134665026E+02  0.27320835993E+03  0.28516521733E+03  0.47000000000E+01 0.  1.
         11    1    6    6    0    0  0.18282555068E+02  0.14297229349E+02  0.82802198878E+01  0.24641928257E+02  0.00000000000E+00 0. -1.
        -12    1    6    6    0    0  0.15211656269E+02 -0.71639415000E+02  0.13282791026E+03  0.15168010421E+03  0.00000000000E+00 0.  1.
</event>
<event>
12    1  0.8691829E-002  0.1939876E+03  0.7818608E-02  0.1155741E+00
         21   -1    0    0  503  502  0.00000000000E+00  0.00000000000E+00  0.24032111118E+03  0.24032111118E+03  0.00000000000E+00 0.  1.
         21   -1    0    0  501  503 -0.00000000000E+00 -0.00000000000E+00 -0.18276801271E+03  0.18276801271E+03  0.00000000000E+00 0.  1.
          6    2    1    2  501    0  0.55279705550E+02 -0.17075101624E+02 -0.55979355854E+02  0.19832079655E+03  0.18124581408E+03 0.  0.
         24    2    3    3    0    0 -0.22758488927E+02 -0.40632845541E+01  0.26137982272E+02  0.84195363797E+02  0.76623795704E+02 0.  0.
         -6    2    1    2    0  502 -0.55279705550E+02  0.17075101624E+02  0.11353245433E+03  0.22476832733E+03  0.18515879090E+03 0.  0.
        -24    2    5    5    0    0 -0.45077040815E+02 -0.35963502418E+02 -0.49242300958E+00  0.98510850178E+02  0.79867590471E+02 0.  0.
          5    1    3    3  501    0  0.78038194477E+02 -0.13011817069E+02 -0.82117338126E+02  0.11412543276E+03  0.47000000000E+01 0. -1.
        -11    1    4    4    0    0  0.16068080448E+02 -0.25902985875E+02 -0.35108064039E+01  0.30683442573E+02  0.00000000000E+00 0.  1.
         12    1    4    4    0    0 -0.38826569374E+02  0.21839701321E+02  0.29648788676E+02  0.53511921224E+02  0.00000000000E+00 0. -1.
         -5    1    5    5    0  502 -0.10202664735E+02  0.53038604042E+02  0.11402487734E+03  0.12625747716E+03  0.47000000000E+01 0.  1.
         13    1    6    6    0    0 -0.16632642330E+02 -0.38251741810E+02  0.33950957199E+02  0.53782041957E+02  0.00000000000E+00 0. -1.
        -14    1    6    6    0    0 -0.28444398485E+02  0.22882393912E+01 -0.34443380209E+02  0.44728808221E+02  0.00000000000E+00 0.  1.
</event>
<event>
12    1  0.8691829E-002  0.1911882E+03  0.7818608E-02  0.1157573E+00
         21   -1    0    0  501  502  0.00000000000E+00  0.00000000000E+00  0.12527249657E+03  0.12527249657E+03  0.00000000000E+00 0.  1.
         21   -1    0    0  502  503 -0.00000000000E+00 -0.00000000000E+00 -0.57602058383E+03  0.57602058383E+03  0.00000000000E+00 0.  1.
         -6    2    1    2    0  503 -0.73225821449E+02 -0.48961072086E+02 -0.47197554682E+03  0.50893005034E+03  0.16878883801E+03 0.  0.
        -24    2    3    3    0    0 -0.28786005378E+02 -0.68929496575E+02 -0.15043296256E+03  0.18368343818E+03  0.74361412262E+02 0.  0.
          6    2    1    2  501    0  0.73225821449E+02  0.48961072086E+02  0.21227459560E+02  0.19236303005E+03  0.16968713205E+03 0.  0.
         24    2    5    5    0    0  0.26003962503E+02  0.83905707629E+02  0.46357049082E+02  0.12829573898E+03  0.81206199285E+02 0.  0.
          5    1    5    5  501    0  0.47221858946E+02 -0.34944635543E+02 -0.25129589522E+02  0.64067291071E+02  0.47000000000E+01 0. -1.
        -11    1    6    6    0    0  0.43587932055E+02  0.32567072361E+02 -0.36080113688E+01  0.54530173014E+02  0.00000000000E+00 0.  1.
         12    1    6    6    0    0 -0.17583969552E+02  0.51338635268E+02  0.49965060451E+02  0.73765565966E+02  0.00000000000E+00 0. -1.
         -5    1    3    3    0  503 -0.44439816071E+02  0.19968424489E+02 -0.32154258426E+03  0.32524661216E+03  0.47000000000E+01 0.  1.
         11    1    4    4    0    0  0.13802413941E+02 -0.19296496555E+01 -0.40213100592E+00  0.13942449129E+02  0.00000000000E+00 0. -1.
        -12    1    4    4    0    0 -0.42588419319E+02 -0.66999846919E+02 -0.15003083155E+03  0.16974098905E+03  0.00000000000E+00 0.  1.
</event>
<event>
12    1  0.8691829E-002  0.1783729E+03  0.7818608E-02  0.1169919E+00
         21   -1    0    0  503  502  0.00000000000E+00  0.00000000000E+00  0.20093748326E+02  0.20093748326E+02  0.00000000000E+00 0.  1.
         21   -1    0    0  501  503 -0.00000000000E+00 -0.00000000000E+00 -0.15660603767E+04  0.15660603767E+04  0.00000000000E+00 0.  1.
          6    2    1    2  501    0 -0.35663121251E+02 -0.22598293530E+01 -0.80410303991E+03  0.82364955928E+03  0.17475678144E+03 0.  0.
         24    2    3    3    0    0 -0.89692171466E+02 -0.18763163670E+02 -0.58841856125E+03  0.60063973293E+03  0.78325880934E+02 0.  0.
         -6    2    1    2    0  502  0.35663121251E+02  0.22598293530E+01 -0.74186358848E+03  0.76250456576E+03  0.17255336523E+03 0.  0.
        -24    2    5    5    0    0  0.60610005366E+01 -0.45438492755E+02 -0.22992093342E+03  0.24747176336E+03  0.79229070951E+02 0.  0.
          5    1    3    3  501    0  0.54029050214E+02  0.16503334317E+02 -0.21568447867E+03  0.22300982635E+03  0.47000000000E+01 0. -1.
        -13    1    4    4    0    0 -0.91863828392E+02  0.15619941936E+01 -0.36880751234E+03  0.38007944426E+03  0.00000000000E+00 0.  1.
         14    1    4    4    0    0  0.21716569266E+01 -0.20325157864E+02 -0.21961104891E+03  0.22056028867E+03  0.00000000000E+00 0. -1.
         -5    1    5    5    0  502  0.29602120715E+02  0.47698322108E+02 -0.51194265506E+03  0.51503280240E+03  0.47000000000E+01 0.  1.
         11    1    6    6    0    0  0.27918315492E+02 -0.47656882432E+02 -0.21212837778E+03  0.21920095676E+03  0.00000000000E+00 0. -1.
        -12    1    6    6    0    0 -0.21857314955E+02  0.22183896764E+01 -0.17792555641E+02  0.28270806604E+02  0.00000000000E+00 0.  1.
</event>
<event>
12    1  0.8691829E-002  0.1971446E+03  0.7818608E-02  0.1152704E+00
         21   -1    0    0  501  502  0.00000000000E+00  0.00000000000E+00  0.17534171169E+04  0.17534171169E+04  0.00000000000E+00 0. -1.
         21   -1    0    0  502  503 -0.00000000000E+00 -0.00000000000E+00 -0.21949560195E+02  0.21949560195E+02  0.00000000000E+00 0.  1.
         -6    2    1    2    0  503 -0.71525963866E+02 -0.63338411257E+02  0.82467556643E+03  0.84791260119E+03  0.17244788068E+03 0.  0.
        -24    2    3    3    0    0 -0.86958998586E+02 -0.20995412823E+02  0.33434499808E+03  0.35549279622E+03  0.81153407972E+02 0.  0.
          6    2    1    2  501    0  0.71525963866E+02  0.63338411257E+02  0.90679199023E+03  0.92745407586E+03  0.16962202519E+03 0.  0.
         24    2    5    5    0    0  0.10326482510E+03  0.22561179075E+02  0.51374005205E+03  0.53099215576E+03  0.82771960816E+02 0.  0.
          5    1    5    5  501    0 -0.31738861231E+02  0.40777232183E+02  0.39305193819E+03  0.39646192010E+03  0.47000000000E+01 0. -1.
        -11    1    6    6    0    0  0.99301948456E+02 -0.65776976773E+01  0.32255484813E+03  0.33755854770E+03  0.00000000000E+00 0.  1.
         12    1    6    6    0    0  0.39628766405E+01  0.29138876752E+02  0.19118520392E+03  0.19343360806E+03  0.00000000000E+00 0. -1.
         -5    1    3    3    0  503  0.15433034720E+02 -0.42342998434E+02  0.49033056835E+03  0.49241980498E+03  0.47000000000E+01 0.  1.
         13    1    4    4    0    0 -0.49839601837E+02 -0.31136637610E+02  0.29370242772E+03  0.29952394255E+03  0.00000000000E+00 0. -1.
        -14    1    4    4    0    0 -0.37119396749E+02  0.10141224787E+02  0.40642570367E+02  0.55968853671E+02  0.00000000000E+00 0.  1.
</event>
<event>
12    1  0.8691829E-002  0.1916352E+03  0.7818608E-02  0.1156995E+00
         21   -1    0    0  501  502  0.00000000000E+00  0.00000000000E+00  0.48191567027E+03  0.48191567027E+03  0.00000000000E+00 0. -1.
         21   -1    0    0  502  503 -0.00000000000E+00 -0.00000000000E+00 -0.76407839400E+02  0.76407839400E+02  0.00000000000E+00 0. -1.
         -6    2    1    2    0  503  0.70758834518E+02 -0.44583215800E+02  0.21717055845E+03  0.28963272136E+03  0.17242269582E+03 0.  0.
        -24    2    3    3    0    0  0.21266359767E+02 -0.49616546641E+02  0.22056283188E+03  0.23954842247E+03  0.76298257795E+02 0.  0.
          6    2    1    2  501    0 -0.70758834518E+02  0.44583215800E+02  0.18833727242E+03  0.26869078831E+03  0.17242197002E+03 0.  0.
         24    2    5    5    0    0  0.66801591070E+01  0.72191532508E+02  0.12625101404E+03  0.16556072302E+03  0.78833955702E+02 0.  0.
          5    1    5    5  501    0 -0.77438993625E+02 -0.27608316708E+02  0.62086258385E+02  0.10313006528E+03  0.47000000000E+01 0. -1.
        -11    1    6    6    0    0  0.51492458386E+01  0.23868864202E+02  0.11275045749E+03  0.11536421921E+03  0.00000000000E+00 0.  1.
         12    1    6    6    0    0  0.15309132684E+01  0.48322668306E+02  0.13500556548E+02  0.50196503810E+02  0.00000000000E+00 0. -1.
         -5    1    3    3    0  503  0.49492474751E+02  0.50333308409E+01 -0.33922734330E+01  0.50084298891E+02  0.47000000000E+01 0.  1.
         11    1    4    4    0    0  0.43337056196E+02 -0.49340949971E+01  0.10475018062E+03  0.11346826020E+03  0.00000000000E+00 0. -1.
        -12    1    4    4    0    0 -0.22070696430E+02 -0.44682451644E+02  0.11581265126E+03  0.12608016227E+03  0.00000000000E+00 0.  1.
</event>
<event>
12    1  0.8691829E-002  0.2152435E+03  0.7818608E-02  0.1137736E+00
         21   -1    0    0  503  502  0.00000000000E+00  0.00000000000E+00  0.15694089622E+03  0.15694089622E+03  0.00000000000E+00 0. -1.
         21   -1    0    0  501  503 -0.00000000000E+00 -0.00000000000E+00 -0.31202746025E+03  0.31202746025E+03  0.00000000000E+00 0. -1.
          6    2    1    2  501    0 -0.12862265017E+03  0.97972436413E+00 -0.13463338075E+03  0.25275529841E+03  0.17092205143E+03 0.  0.
         24    2    3    3    0    0 -0.66002202832E+02  0.22404926729E+02 -0.15070864245E+03  0.18448477944E+03  0.80394448892E+02 0.  0.
         -6    2    1    2    0  502  0.12862265017E+03 -0.97972436413E+00 -0.20453183283E+02  0.21621305807E+03  0.17258333574E+03 0.  0.
        -24    2    5    5    0    0  0.98484186177E+02  0.39279230089E+02 -0.66129269274E+02  0.14811382711E+03  0.79514984015E+02 0.  0.
          5    1    3    3  501    0 -0.62620447343E+02 -0.21425202365E+02  0.16075261707E+02  0.68270518972E+02  0.47000000000E+01 0. -1.
        -13    1    4    4    0    0  0.79508666617E+01 -0.79606862223E+00 -0.77365176961E+02  0.77776735674E+02  0.00000000000E+00 0.  1.
         14    1    4    4    0    0 -0.73953069494E+02  0.23200995351E+02 -0.73343465494E+02  0.10670804376E+03  0.00000000000E+00 0. -1.
         -5    1    5    5    0  502  0.30138463998E+02 -0.40258954453E+02  0.45676085991E+02  0.68099230959E+02  0.47000000000E+01 0.  1.
         13    1    6    6    0    0  0.39582870478E+02  0.23817131939E+02  0.13257260756E+02  0.48060528210E+02  0.00000000000E+00 0. -1.
        -14    1    6    6    0    0  0.58901315699E+02  0.15462098149E+02 -0.79386530031E+02  0.10005329890E+03  0.00000000000E+00 0.  1.
</event>
<event>
12    1  0.8691829E-002  0.2167375E+03  0.7818608E-02  0.1136764E+00
         21   -1    0    0  503  502  0.00000000000E+00  0.00000000000E+00  0.43212941881E+03  0.43212941881E+03  0.00000000000E+00 0.  1.
         21   -1    0    0  501  503 -0.00000000000E+00 -0.00000000000E+00 -0.11972418697E+03  0.11972418697E+03  0.00000000000E+00 0.  1.
          6    2    1    2  501    0 -0.23295673128E+01  0.13251134050E+03  0.69100687088E+02  0.22748636710E+03  0.17149478131E+03 0.  0.
         24    2    3    3    0    0  0.46589466963E+02  0.97818387046E+02  0.96062234785E+02  0.16156453469E+03  0.71666802935E+02 0.  0.
         -6    2    1    2    0  502  0.23295673128E+01 -0.13251134050E+03  0.24330454475E+03  0.32436723867E+03  0.16867816037E+03 0.  0.
        -24    2    5    5    0    0 -0.33380824386E+02 -0.54714967645E+02  0.20795834499E+03  0.23163670680E+03  0.79378105074E+02 0.  0.
          5    1    3    3  501    0 -0.48919034276E+02  0.34692953453E+02 -0.26961547698E+02  0.65921832409E+02  0.47000000000E+01 0. -1.
        -13    1    4    4    0    0  0.25123362233E+02 -0.48221407244E+00  0.45106369093E+01  0.25529624079E+02  0.00000000000E+00 0.  1.
         14    1    4    4    0    0  0.21466104731E+02  0.98300601118E+02  0.91551597876E+02  0.13603491062E+03  0.00000000000E+00 0. -1.
         -5    1    5    5    0  502  0.35710391699E+02 -0.77796372854E+02  0.35346199760E+02  0.92730531876E+02  0.47000000000E+01 0.  1.
         11    1    6    6    0    0 -0.35454924784E+00  0.11084404174E+02  0.10206092042E+03  0.10266168320E+03  0.00000000000E+00 0. -1.
        -12    1    6    6    0    0 -0.33026275138E+02 -0.65799371819E+02  0.10589742457E+03  0.12897502360E+03  0.00000000000E+00 0.  1.
</event>
<event>
12    1  0.8691829E-002  0.2537269E+03  0.7818608E-02  0.1111566E+00
         21   -1    0    0  501  502  0.00000000000E+00  0.00000000000E+00  0.31787854656E+02  0.31787854656E+02  0.00000000000E+00 0.  1.
         21   -1    0    0  502  503 -0.00000000000E+00 -0.00000000000E+00 -0.21661656585E+04  0.21661656585E+04  0.00000000000E+00 0. -1.
         -6    2    1    2    0  503  0.13260863430E+03 -0.13134281672E+03 -0.76567340185E+03  0.80661829963E+03  0.17187593665E+03 0.  0.
        -24    2    3    3    0    0  0.10978745988E+02 -0.12060585489E+02 -0.33620690764E+03  0.34457323681E+03  0.73686092310E+02 0.  0.
          6    2    1    2  501    0 -0.13260863430E+03  0.13134281672E+03 -0.13687044020E+04  0.13913352135E+04  0.16621056214E+03 0.  0.
         24    2    5    5    0    0 -0.14814335419E+03  0.86156574975E+02 -0.86662469427E+03  0.88696506485E+03  0.79367857166E+02 0.  0.
          5    1    5    5  501    0  0.15534719882E+02  0.45186241747E+02 -0.50207970771E+03  0.50437014866E+03  0.47000000000E+01 0. -1.
        -11    1    6    6    0    0 -0.95015491187E+02  0.74737325439E+02 -0.42013880344E+03  0.43718442966E+03  0.00000000000E+00 0.  1.
         12    1    6    6    0    0 -0.53127863000E+02  0.11419249535E+02 -0.44648589083E+03  0.44978063519E+03  0.00000000000E+00 0. -1.
         -5    1    3    3    0  503  0.12162988832E+03 -0.11928223123E+03 -0.42946649421E+03  0.46204506281E+03  0.47000000000E+01 0.  1.
         11    1    4    4    0    0 -0.21735976468E+02  0.18901750681E+02 -0.16739296314E+03  0.16985326891E+03  0.00000000000E+00 0. -1.
        -12    1    4    4    0    0  0.32714722456E+02 -0.30962336170E+02 -0.16881394450E+03  0.17471996790E+03  0.00000000000E+00 0.  1.
</event>
<event>
12    1  0.8691829E-002  0.1867197E+03  0.7818608E-02  0.1162176E+00
         21   -1    0    0  501  502  0.00000000000E+00  0.00000000000E+00  0.93509374223E+02  0.93509374223E+02  0.00000000000E+00 0. -1.
         21   -1    0    0  502  503 -0.00000000000E+00 -0.00000000000E+00 -0.76183185898E+03  0.76183185898E+03  0.00000000000E+00 0.  1.
         -6    2    1    2    0  503  0.69063328646E+02 -0.71723422096E+01 -0.64351722177E+03  0.67005870641E+03  0.17332936702E+03 0.  0.
        -24    2    3    3    0    0  0.10785791331E+03  0.88825558821E+01 -0.36158096860E+03  0.38497464793E+03  0.75844930146E+02 0.  0.
          6    2    1    2  501    0 -0.69063328646E+02  0.71723422096E+01 -0.24805262990E+02  0.18528252679E+03  0.16997978646E+03 0.  0.
         24    2    5    5    0    0 -0.26042947044E+02  0.10840800313E+02 -0.78794583662E+02  0.11599221315E+03  0.80310952271E+02 0.  0.
          5    1    5    5  501    0 -0.43020381602E+02 -0.36684581036E+01  0.53989320672E+02  0.69290313642E+02  0.47000000000E+01 0. -1.
        -13    1    6    6    0    0  0.39312026638E+01 -0.10276620154E+02 -0.78558674920E+02  0.79325460487E+02  0.00000000000E+00 0.  1.
         14    1    6    6    0    0 -0.29974149708E+02  0.21117420467E+02 -0.23590874143E+00  0.36666752663E+02  0.00000000000E+00 0. -1.
         -5    1    3    3    0  503 -0.38794584668E+02 -0.16054898092E+02 -0.28193625317E+03  0.28508405848E+03  0.47000000000E+01 0.  1.
         13    1    4    4    0    0  0.24212517592E+02 -0.16320259193E+02 -0.19206894823E+03  0.19427577755E+03  0.00000000000E+00 0. -1.
        -14    1    4    4    0    0  0.83645395721E+02  0.25202815076E+02 -0.16951202037E+03  0.19069887038E+03  0.00000000000E+00 0.  1.
</event>
<event>
12    1  0.8691829E-002  0.1824936E+03  0.7818608E-02  0.1167512E+00
         21   -1    0    0  501  502  0.00000000000E+00  0.00000000000E+00  0.18105507629E+03  0.18105507629E+03  0.00000000000E+00 0. -1.
         21   -1    0    0  502  503 -0.00000000000E+00 -0.00000000000E+00 -0.19079724268E+03  0.19079724268E+03  0.00000000000E+00 0. -1.
         -6    2    1    2    0  503 -0.41924760197E+01 -0.63835000758E+02 -0.57628597367E+02  0.18318055308E+03  0.16168356632E+03 0.  0.
        -24    2    3    3    0    0 -0.20077053625E+02 -0.17506727055E+02  0.23588689090E+02  0.88222844764E+02  0.80729613593E+02 0.  0.
          6    2    1    2  501    0  0.41924760197E+01  0.63835000758E+02  0.47886430981E+02  0.18867176589E+03  0.17091354772E+03 0.  0.
         24    2    5    5    0    0 -0.31597278514E+01  0.86374573596E+02  0.85361441355E+02  0.14407856407E+03  0.77469388218E+02 0.  0.
          5    1    5    5  501    0  0.73522038711E+01 -0.22539572838E+02 -0.37475010374E+02  0.44593201814E+02  0.47000000000E+01 0. -1.
        -13    1    6    6    0    0  0.19853032730E+02  0.90497427813E+02  0.69671471997E+02  0.11592256622E+03  0.00000000000E+00 0.  1.
         14    1    6    6    0    0 -0.23012760581E+02 -0.41228542173E+01  0.15689969358E+02  0.28155997850E+02  0.00000000000E+00 0. -1.
         -5    1    3    3    0  503  0.15884577606E+02 -0.46328273703E+02 -0.81217286457E+02  0.94957708320E+02  0.47000000000E+01 0.  1.
         13    1    4    4    0    0  0.78867246126E+01 -0.43149820466E+02  0.61644146467E+00  0.43868980287E+02  0.00000000000E+00 0. -1.
        -14    1    4    4    0    0 -0.27963778238E+02  0.25643093412E+02  0.22972247625E+02  0.44353864476E+02  0.00000000000E+00 0.  1.
</event>
<event>
12    1  0.8691829E-002  0.1957449E+03  0.7818608E-02  0.1155134E+00
         21   -1    0    0  501  502  0.00000000000E+00  0.00000000000E+00  0.41955990054E+03  0.41955990054E+03  0.00000000000E+00 0. -1.
         21   -1    0    0  502  503 -0.00000000000E+00 -0.00000000000E+00 -0.93909363422E+02  0.93909363422E+02  0.00000000000E+00 0.  1.
         -6    2    1    2    0  503 -0.76406405478E+02  0.50776566757E+02  0.23211535716E+03  0.30363399647E+03  0.17291577791E+03 0.  0.
        -24    2    3    3    0    0 -0.23985718517E+02  0.48380700423E+01  0.21535773003E+03  0.23179262977E+03  0.82159294780E+02 0.  0.
          6    2    1    2  501    0  0.76406405478E+02 -0.50776566757E+02  0.93535179953E+02  0.20983526749E+03  0.16390793472E+03 0.  0.
         24    2    5    5    0    0  0.79300276962E+02 -0.42628110196E+02  0.52970421658E+01  0.12104996017E+03  0.80742457828E+02 0.  0.
          5    1    5    5  501    0 -0.28938714847E+01 -0.81484565615E+01  0.88238137787E+02  0.88785307324E+02  0.47000000000E+01 0. -1.
        -11    1    6    6    0    0  0.16441046829E+02 -0.52902160257E+02  0.12970070089E+02  0.56896127274E+02  0.00000000000E+00 0.  1.
         12    1    6    6    0    0  0.62859230133E+02  0.10274050061E+02 -0.76730279232E+01  0.64153832895E+02  0.00000000000E+00 0. -1.
         -5    1    3    3    0  503 -0.52420686960E+02  0.45938496715E+02  0.16757627137E+02  0.71841366698E+02  0.47000000000E+01 0.  1.
         13    1    4    4    0    0 -0.54631883062E+02  0.52058498166E+01  0.14559313108E+03  0.15559274835E+03  0.00000000000E+00 0. -1.
        -14    1    4    4    0    0  0.30646164545E+02 -0.36777977432E+00  0.69764598943E+02  0.76199881423E+02  0.00000000000E+00 0.  1.
</event>
<event>
12    1  0.8691829E-002  0.1982157E+03  0.7818608E-02  0.1151786E+00
         21   -1    0    0  501  502  0.00000000000E+00  0.00000000000E+00  0.14027561769E+03  0.14027561769E+03  0.00000000000E+00 0.  1.
         21   -1    0    0  502  503 -0.00000000000E+00 -0.00000000000E+00 -0.32871097172E+03  0.32871097172E+03  0.00000000000E+00 0.  1.
         -6    2    1    2    0  503  0.95113001553E+02 -0.15383694005E+01 -0.18709010165E+03  0.27076628139E+03  0.17106379909E+03 0.  0.
        -24    2    3    3    0    0  0.54595380297E+02  0.45797616385E+02 -0.18281606125E+03  0.20813457533E+03  0.69427746475E+02 0.  0.
          6    2    1    2  501    0 -0.95113001553E+02  0.15383694005E+01 -0.13452523873E+01  0.19822030802E+03  0.17389833571E+03 0.  0.
         24    2    5    5    0    0 -0.34169671769E+02 -0.62733563008E+02  0.14243994973E+02  0.10816429559E+03  0.79959721434E+02 0.  0.
          5    1    5    5  501    0 -0.60943329784E+02  0.64271932409E+02 -0.15589247361E+02  0.90056012426E+02  0.47000000000E+01 0. -1.
        -13    1    6    6    0    0  0.21879540570E+02 -0.11502752112E+02  0.20302898678E+02  0.31988049275E+02  0.00000000000E+00 0.  1.
         14    1    6    6    0    0 -0.56049212339E+02 -0.51230810896E+02 -0.60589037045E+01  0.76176246317E+02  0.00000000000E+00 0. -1.
         -5    1    3    3    0  503  0.40517621256E+02 -0.47335985786E+02 -0.42740403981E+01  0.62631706059E+02  0.47000000000E+01 0.  1.
         11    1    4    4    0    0  0.55092467988E+02  0.27550651924E+02 -0.67492632406E+02  0.91375455564E+02  0.00000000000E+00 0. -1.
        -12    1    4    4    0    0 -0.49708769082E+00  0.18246964462E+02 -0.11532342885E+03  0.11675911977E+03  0.00000000000E+00 0.  1.
</event>
<event>
12    1  0.8691829E-002  0.2558248E+03  0.7818608E-02  0.1110739E+00
         21   -1    0    0  503  502  0.00000000000E+00  0.00000000000E+00  0.35286460509E+03  0.35286460509E+03  0.00000000000E+00 0. -1.
         21   -1    0    0  501  503 -0.00000000000E+00 -0.00000000000E+00 -0.22705581078E+03  0.22705581078E+03  0.00000000000E+00 0. -1.
          6    2    1    2  501    0  0.76118796352E+02 -0.17427344618E+03 -0.67623422000E+02  0.26461153541E+03  0.17111701339E+03 0.  0.
         24    2    3    3    0    0 -0.16792149980E+02 -0.95926756103E+02 -0.17992853632E+02  0.13324970264E+03  0.89150555993E+02 0.  0.
         -6    2    1    2    0  502 -0.76118796352E+02  0.17427344618E+03  0.19343221631E+03  0.31530888046E+03  0.16074315721E+03 0.  0.
        -24    2    5    5    0    0 -0.39461796439E+02  0.17337497208E+03  0.10915091689E+03  0.22327643873E+03  0.79513087669E+02 0.  0.
          5    1    3    3  501    0  0.92910946331E+02 -0.78346690074E+02 -0.49630568368E+02  0.13136183278E+03  0.47000000000E+01 0. -1.
        -11    1    4    4    0    0 -0.12934838618E+02  0.11408825498E+02 -0.19238266570E+02  0.25837613085E+02  0.00000000000E+00 0.  1.
         12    1    4    4    0    0 -0.38573113612E+01 -0.10733558160E+03  0.12454129378E+01  0.10741208955E+03  0.00000000000E+00 0. -1.
         -5    1    5    5    0  502 -0.36656999913E+02  0.89847409476E+00  0.84281299426E+02  0.92032441733E+02  0.47000000000E+01 0.  1.
         11    1    6    6    0    0 -0.23527806554E+02  0.17655585797E+03  0.10387488791E+03  0.20619292181E+03  0.00000000000E+00 0. -1.
        -12    1    6    6    0    0 -0.15933989884E+02 -0.31808858857E+01  0.52760289750E+01  0.17083516921E+02  0.00000000000E+00 0.  1.
</event>
<event>
12    1  0.8691829E-002  0.1726870E+03  0.7818608E-02  0.1175304E+00
         21   -1    0    0  501  502  0.00000000000E+00  0.00000000000E+00  0.41631950113E+02  0.41631950113E+02  0.00000000000E+00 0.  1.
         21   -1    0    0  502  503 -0.00000000000E+00 -0.00000000000E+00 -0.71285530998E+03  0.71285530998E+03  0.00000000000E+00 0.  1.
         -6    2    1    2    0  503 -0.87505049380E+01 -0.22488312166E+01 -0.34216615025E+03  0.38286992535E+03  0.17155196526E+03 0.  0.
        -24    2    3    3    0    0  0.50930406539E+02 -0.34707880974E+02 -0.23208986411E+03  0.25343160075E+03  0.81014368626E+02 0.  0.
          6    2    1    2  501    0  0.87505049380E+01  0.22488312166E+01 -0.32905720962E+03  0.37161733474E+03  0.17245047898E+03 0.  0.
         24    2    5    5    0    0  0.30301707559E+02 -0.61522699107E+02 -0.21287913728E+03  0.23726445272E+03  0.79206423036E+02 0.  0.
          5    1    5    5  501    0 -0.21551202621E+02  0.63771530324E+02 -0.11617807234E+03  0.13435288202E+03  0.47000000000E+01 0. -1.
        -11    1    6    6    0    0  0.35116946628E+02  0.48341226985E+01 -0.10167893010E+03  0.10768088739E+03  0.00000000000E+00 0.  1.
         12    1    6    6    0    0 -0.48152390691E+01 -0.66356821805E+02 -0.11120020718E+03  0.12958356533E+03  0.00000000000E+00 0. -1.
         -5    1    3    3    0  503 -0.59680911477E+02  0.32459049758E+02 -0.11007628614E+03  0.12943832460E+03  0.47000000000E+01 0.  1.
         13    1    4    4    0    0  0.10689189094E+02  0.12354761952E+02 -0.36387458637E+01  0.16737364722E+02  0.00000000000E+00 0. -1.
        -14    1    4    4    0    0  0.40241217445E+02 -0.47062642926E+02 -0.22845111825E+03  0.23669423603E+03  0.00000000000E+00 0.  1.
</event>
<event>
12    1  0.8691829E-002  0.2398750E+03  0.7818608E-02  0.1120049E+00
         21   -1    0    0  503  502  0.00000000000E+00  0.00000000000E+00  0.43289438961E+02  0.43289438961E+02  0.00000000000E+00 0.  1.
         21   -1    0    0  501  503 -0.00000000000E+00 -0.00000000000E+00 -0.13251317784E+04  0.13251317784E+04  0.00000000000E+00 0.  1.
          6    2    1    2  501    0 -0.27181312379E+02  0.16126637647E+03 -0.61794523129E+03  0.66286977028E+03  0.17548320590E+03 0.  0.
         24    2    3    3    0    0 -0.45348052581E+02  0.19710820524E+02 -0.18276991999E+03  0.20486578838E+03  0.78231613034E+02 0.  0.
         -6    2    1    2    0  502  0.27181312379E+02 -0.16126637647E+03 -0.66389710816E+03  0.70555144709E+03  0.17406265065E+03 0.  0.
        -24    2    5    5    0    0  0.59889020327E+02 -0.14256269557E+03 -0.35577145935E+03  0.39509512602E+03  0.74940045336E+02 0.  0.
          5    1    3    3  501    0  0.18166740201E+02  0.14155555594E+03 -0.43517531130E+03  0.45800398190E+03  0.47000000000E+01 0. -1.
        -13    1    4    4    0    0  0.16125496124E+02  0.26027872809E+02 -0.55483160915E+02  0.63370836615E+02  0.00000000000E+00 0.  1.
         14    1    4    4    0    0 -0.61473548704E+02 -0.63170522843E+01 -0.12728675907E+03  0.14149495177E+03  0.00000000000E+00 0. -1.
         -5    1    5    5    0  502 -0.32707707948E+02 -0.18703680899E+02 -0.30812564881E+03  0.31045632107E+03  0.47000000000E+01 0.  1.
         11    1    6    6    0    0  0.25150167297E+02 -0.25450717791E+00 -0.45751063959E+02  0.52208768826E+02  0.00000000000E+00 0. -1.
        -12    1    6    6    0    0  0.34738853030E+02 -0.14230818839E+03 -0.31002039539E+03  0.34288635720E+03  0.00000000000E+00 0.  1.
</event>
<event>
12    1  0.8691829E-002  0.2193859E+03  0.7818608E-02  0.1134493E+00
         21   -1    0    0  501  502  0.00000000000E+00  0.00000000000E+00  0.61995143819E+03  0.61995143819E+03  0.00000000000E+00 0. -1.
         21   -1    0    0  502  503 -0.00000000000E+00 -0.00000000000E+00 -0.12211740925E+03  0.12211740925E+03  0.00000000000E+00 0. -1.
         -6    2    1    2    0  503 -0.62152468211E+02  0.12109072009E+03  0.23978231180E+02  0.21989122397E+03  0.17103012311E+03 0.  0.
        -24    2    3    3    0    0 -0.10314526093E+03  0.94127157282E+02 -0.92356265214E+01  0.16045476111E+03  0.78495649390E+02 0.  0.
          6    2    1    2  501    0  0.62152468211E+02 -0.12109072009E+03  0.47385579775E+03  0.52217762347E+03  0.17205888991E+03 0.  0.
         24    2    5    5    0    0  0.29959914094E+02 -0.52954911661E+02  0.10406258975E+03  0.14475484248E+03  0.80144386661E+02 0.  0.
          5    1    5    5  501    0  0.32192554117E+02 -0.68135808427E+02  0.36979320801E+03  0.37742278100E+03  0.47000000000E+01 0. -1.
        -13    1    6    6    0    0 -0.23421856786E+02 -0.45954788084E+01  0.47541487824E+02  0.53196756154E+02  0.00000000000E+00 0.  1.
         14    1    6    6    0    0  0.53381770879E+02 -0.48359432853E+02  0.56521101924E+02  0.91558086321E+02  0.00000000000E+00 0. -1.
         -5    1    3    3    0  503  0.40992792722E+02  0.26963562806E+02  0.33213857702E+02  0.59436462864E+02  0.47000000000E+01 0.  1.
         11    1    4    4    0    0  0.43449044089E+01  0.36520858667E+02 -0.11328061562E+02  0.38483454767E+02  0.00000000000E+00 0. -1.
        -12    1    4    4    0    0 -0.10749016534E+03  0.57606298616E+02  0.20924350408E+01  0.12197130634E+03  0.00000000000E+00 0.  1.
</event>
<event>
12    1  0.8691829E-002  0.1821050E+03  0.7818608E-02  0.1165933E+00
         21   -1    0    0  501  502  0.00000000000E+00  0.00000000000E+00  0.36755630643E+02  0.36755630643E+02  0.00000000000E+00 0.  1.
         21   -1    0    0  502  503 -0.00000000000E+00 -0.00000000000E+00 -0.14158542846E+04  0.14158542846E+04  0.00000000000E+00 0.  1.
         -6    2    1    2    0  503 -0.75531247876E+01 -0.60172703330E+02 -0.11275724351E+04  0.11420818472E+04  0.17103667856E+03 0.  0.
        -24    2    3    3    0    0 -0.35108358771E+02 -0.64674598252E+02 -0.41583582917E+03  0.42978230053E+03  0.79862309723E+02 0.  0.
          6    2    1    2  501    0  0.75531247876E+01  0.60172703330E+02 -0.25152621878E+03  0.31052806796E+03  0.17171033264E+03 0.  0.
         24    2    5    5    0    0 -0.24104408873E+02  0.63145885913E+02 -0.25758033592E+03  0.27782055221E+03  0.79171992172E+02 0.  0.
          5    1    5    5  501    0  0.31657533661E+02 -0.29731825825E+01  0.60541171334E+01  0.32707515748E+02  0.47000000000E+01 0. -1.
        -11    1    6    6    0    0  0.21615257940E+02  0.44287207464E+02 -0.84576214932E+02  0.97886220955E+02  0.00000000000E+00 0.  1.
         12    1    6    6    0    0 -0.45719666812E+02  0.18858678449E+02 -0.17300412098E+03  0.17993433125E+03  0.00000000000E+00 0. -1.
         -5    1    3    3    0  503  0.27555233984E+02  0.45018949222E+01 -0.71173660597E+03  0.71229954672E+03  0.47000000000E+01 0.  1.
         11    1    4    4    0    0 -0.23456223541E+02  0.67821063812E+00 -0.29062497449E+02  0.37353489134E+02  0.00000000000E+00 0. -1.
        -12    1    4    4    0    0 -0.11652135231E+02 -0.65352808890E+02 -0.38677333172E+03  0.39242881139E+03  0.00000000000E+00 0.  1.
</event>
<event>
12    1  0.8691829E-002  0.1854773E+03  0.7818608E-02  0.1163678E+00
         21   -1    0    0  503  502  0.00000000000E+00  0.00000000000E+00  0.14821179468E+03  0.14821179468E+03  0.00000000000E+00 0.  1.
         21   -1    0    0  501  503 -0.00000000000E+00 -0.00000000000E+00 -0.48198893444E+03  0.48198893444E+03  0.00000000000E+00 0.  1.
          6    2    1    2  501    0 -0.63154162059E+02 -0.35744319708E+02 -0.39533974647E+03  0.43477351385E+03  0.16573590022E+03 0.  0.
         24    2    3    3    0    0 -0.21853801938E+01 -0.51832046424E+02 -0.12261986934E+03  0.15481953781E+03  0.79007088342E+02 0.  0.
         -6    2    1    2    0  502  0.63154162059E+02  0.35744319708E+02  0.61562606712E+02  0.19542721528E+03  0.17069193698E+03 0.  0.
        -24    2    5    5    0    0 -0.68647942887E+01  0.34512514114E+02 -0.18449535833E+02  0.88993176793E+02  0.79631407825E+02 0.  0.
          5    1    3    3  501    0 -0.60968781865E+02  0.16087726716E+02 -0.27271987714E+03  0.27995397604E+03  0.47000000000E+01 0. -1.
        -11    1    4    4    0    0  0.11894977141E+02  0.18089972159E+02 -0.17769112424E+02  0.28008551019E+02  0.00000000000E+00 0.  1.
         12    1    4    4    0    0 -0.14080357334E+02 -0.69922018583E+02 -0.10485075692E+03  0.12681098679E+03  0.00000000000E+00 0. -1.
         -5    1    5    5    0  502  0.70018956347E+02  0.12318055935E+01  0.80012142545E+02  0.10643403848E+03  0.47000000000E+01 0.  1.
         11    1    6    6    0    0  0.33339623767E+02  0.32737138145E+02 -0.78838340001E+01  0.47385710561E+02  0.00000000000E+00 0. -1.
        -12    1    6    6    0    0 -0.40204418055E+02  0.17753759688E+01 -0.10565701833E+02  0.41607466232E+02  0.00000000000E+00 0.  1.
</event>
<event>
12    1  0.8691829E-002  0.1868696E+03  0.7818608E-02  0.1161328E+00
         21   -1    0    0  501  502  0.00000000000E+00  0.00000000000E+00  0.55872706648E+03  0.55872706648E+03  0.00000000000E+00 0.  1.
         21   -1    0    0  502  503 -0.00000000000E+00 -0.00000000000E+00 -0.87030497424E+02  0.87030497424E+02  0.00000000000E+00 0.  1.
         -6    2    1    2    0  503 -0.16975162068E+02  0.71539655428E+02  0.40730539064E+03  0.44810511861E+03  0.17173944698E+03 0.  0.
        -24    2    3    3    0    0  0.42061169197E+02  0.17088265528E+02  0.30258796267E+03  0.31605182636E+03  0.79171529114E+02 0.  0.
          6    2    1    2  501    0  0.16975162068E+02 -0.71539655428E+02  0.64391178415E+02  0.19765244530E+03  0.17179693492E+03 0.  0.
         24    2    5    5    0    0 -0.54135899012E+02 -0.59092673766E+02  0.29531920846E+02  0.11734697725E+03  0.80470734222E+02 0.  0.
          5    1    5    5  501    0  0.71111061079E+02 -0.12446981662E+02  0.34859257569E+02  0.80305468049E+02  0.47000000000E+01 0. -1.
        -13    1    6    6    0    0 -0.40367273245E+02 -0.15011955403E+02 -0.21823030832E+02  0.48281675913E+02  0.00000000000E+00 0.  1.
         14    1    6    6    0    0 -0.13768625767E+02 -0.44080718363E+02  0.51354951678E+02  0.69065301337E+02  0.00000000000E+00 0. -1.
         -5    1    3    3    0  503 -0.59036331264E+02  0.54451389900E+02  0.10471742798E+03  0.13205329225E+03  0.47000000000E+01 0.  1.
         13    1    4    4    0    0  0.42461614718E+02  0.38644169764E+02  0.12988960274E+03  0.14201292012E+03  0.00000000000E+00 0. -1.
        -14    1    4    4    0    0 -0.40044552109E+00 -0.21555904235E+02  0.17269835993E+03  0.17403890624E+03  0.00000000000E+00 0.  1.
</event>
<event>
12    1  0.8691829E-002  0.2370168E+03  0.7818608E-02  0.1122120E+00
         21   -1    0    0  503  502  0.00000000000E+00  0.00000000000E+00  0.18855179573E+03  0.18855179573E+03  0.00000000000E+00 0.  1.
         21   -1    0    0  501  503 -0.00000000000E+00 -0.00000000000E+00 -0.57693294297E+03  0.57693294297E+03  0.00000000000E+00 0.  1.
          6    2    1    2  501    0 -0.51776886464E+02 -0.15461868903E+03 -0.46188691007E+03  0.51914975556E+03  0.17201501689E+03 0.  0.
         24    2    3    3    0    0  0.23490388611E+02 -0.13466597839E+03 -0.32049829668E+03  0.35766878654E+03  0.80753195595E+02 0.  0.
         -6    2    1    2    0  502  0.51776886464E+02  0.15461868903E+03  0.73505762826E+02  0.24633498314E+03  0.16938135016E+03 0.  0.
        -24    2    5    5    0    0  0.81920329509E+02  0.72008245241E+02 -0.61597390027E+01  0.12758400520E+03  0.65906056081E+02 0.  0.
          5    1    3    3  501    0 -0.75267275075E+02 -0.19952710643E+02 -0.14138861339E+03  0.16148096902E+03  0.47000000000E+01 0. -1.
        -13    1    4    4    0    0 -0.53574872488E+01 -0.76334089040E+02 -0.25123776505E+03  0.26263284335E+03  0.00000000000E+00 0.  1.
         14    1    4    4    0    0  0.28847875859E+02 -0.58331889347E+02 -0.69260531631E+02  0.95035943191E+02  0.00000000000E+00 0. -1.
         -5    1    5    5    0  502 -0.30143443045E+02  0.82610443789E+02  0.79665501828E+02  0.11875097795E+03  0.47000000000E+01 0.  1.
         11    1    6    6    0    0  0.83248739250E+01  0.40454023270E+02 -0.20701821388E+02  0.46199533909E+02  0.00000000000E+00 0. -1.
        -12    1    6    6    0    0  0.73595455584E+02  0.31554221970E+02  0.14542082386E+02  0.81384471288E+02  0.00000000000E+00 0.  1.
</event>
<event>
12    1  0.8691829E-002  0.2341122E+03  0.7818608E-02  0.1125200E+00
         21   -1    0    0  503  502  0.00000000000E+00  0.00000000000E+00  0.37583160127E+03  0.37583160127E+03  0.00000000000E+00 0. -1.
         21   -1    0    0  501  503 -0.00000000000E+00 -0.00000000000E+00 -0.15529035648E+03  0.15529035648E+03  0.00000000000E+00 0. -1.
          6    2    1    2  501    0 -0.61018995280E+02  0.14101295329E+03  0.18954702552E+03  0.29496696663E+03  0.16573914968E+03 0.  0.
         24    2    3    3    0    0 -0.10157332787E+03  0.10812373445E+03  0.11497952940E+03  0.20381458824E+03  0.79449426117E+02 0.  0.
         -6    2    1    2    0  502  0.61018995280E+02 -0.14101295329E+03  0.30994219272E+02  0.23615499112E+03  0.17663682352E+03 0.  0.
        -24    2    5    5    0    0  0.46153821835E+02 -0.11942212231E+03  0.86762115973E+02  0.17435462165E+03  0.80498762453E+02 0.  0.
          5    1    3    3  501    0  0.40554332593E+02  0.32889218838E+02  0.74567496122E+02  0.91152378388E+02  0.47000000000E+01 0. -1.
        -13    1    4    4    0    0  0.11042522704E+00  0.49209846694E+01 -0.10853747752E+02  0.11917723109E+02  0.00000000000E+00 0.  1.
         14    1    4    4    0    0 -0.10168375310E+03  0.10320274978E+03  0.12583327715E+03  0.19189686513E+03  0.00000000000E+00 0. -1.
         -5    1    5    5    0  502  0.14865173445E+02 -0.21590830980E+02 -0.55767896702E+02  0.61800369469E+02  0.47000000000E+01 0.  1.
         11    1    6    6    0    0 -0.10338810578E+02 -0.29841637527E+02 -0.76279742040E+01  0.32490003461E+02  0.00000000000E+00 0. -1.
        -12    1    6    6    0    0  0.56492632413E+02 -0.89580484786E+02  0.94390090177E+02  0.14186461819E+03  0.00000000000E+00 0.  1.
</event>
<event>
12    1  0.8691829E-002  0.1928205E+03  0.7818608E-02  0.1156024E+00
         21   -1    0    0  503  502  0.00000000000E+00  0.00000000000E+00  0.93362883444E+02  0.93362883444E+02  0.00000000000E+00 0. -1.
         21   -1    0    0  501  503 -0.00000000000E+00 -0.00000000000E+00 -0.39770695559E+03  0.39770695559E+03  0.00000000000E+00 0. -1.
          6    2    1    2  501    0  0.76784421566E+02  0.40093673283E+02 -0.14590661920E+03  0.24150589023E+03  0.17185169030E+03 0.  0.
         24    2    3    3    0    0  0.65618285085E+02  0.92282026599E+02 -0.11831492848E+03  0.18124231730E+03  0.77644211043E+02 0.  0.
         -6    2    1    2    0  502 -0.76784421566E+02 -0.40093673283E+02 -0.15843745294E+03  0.24956394880E+03  0.17226836045E+03 0.  0.
        -24    2    5    5    0    0 -0.77600359644E+02 -0.60335072758E+02 -0.17862600524E+03  0.22058037325E+03  0.84180250038E+02 0.  0.
          5    1    3    3  501    0  0.11166136481E+02 -0.52188353316E+02 -0.27591690725E+02  0.60263572934E+02  0.47000000000E+01 0. -1.
        -11    1    4    4    0    0  0.40648647893E+01  0.23753888206E+00  0.10567958131E+02  0.11325250087E+02  0.00000000000E+00 0.  1.
         12    1    4    4    0    0  0.61553420295E+02  0.92044487717E+02 -0.12888288661E+03  0.16991706721E+03  0.00000000000E+00 0. -1.
         -5    1    5    5    0  502  0.81593807823E+00  0.20241399475E+02  0.20188552295E+02  0.28983575546E+02  0.47000000000E+01 0.  1.
         11    1    6    6    0    0 -0.54574296832E+02 -0.50798480593E+02 -0.50494239511E+02  0.90047252757E+02  0.00000000000E+00 0. -1.
        -12    1    6    6    0    0 -0.23026062812E+02 -0.95365921654E+01 -0.12813176572E+03  0.13053312050E+03  0.00000000000E+00 0.  1.
</event>
<event>
12    1  0.8691829E-002  0.3365623E+03  0.7818608E-02  0.1068270E+00
         21   -1    0    0  503  502  0.00000000000E+00  0.00000000000E+00  0.89546483123E+02  0.89546483123E+02  0.00000000000E+00 0.  1.
         21   -1    0    0  501  503 -0.00000000000E+00 -0.00000000000E+00 -0.17301267217E+04  0.17301267217E+04  0.00000000000E+00 0. -1.
          6    2    1    2  501    0  0.15856493511E+03  0.24072313314E+03 -0.34852644954E+03  0.48450478319E+03  0.17373466388E+03 0.  0.
         24    2    3    3    0    0  0.10057716827E+03  0.71026533354E+02 -0.21576672000E+03  0.26133051750E+03  0.81103801989E+02 0.  0.
         -6    2    1    2    0  502 -0.15856493511E+03 -0.24072313314E+03 -0.12920537891E+04  0.13351684217E+04  0.17372753054E+03 0.  0.
        -24    2    5    5    0    0 -0.16828686610E+03 -0.22433096276E+03 -0.98018298482E+03  0.10226804895E+04  0.80447807619E+02 0.  0.
          5    1    3    3  501    0  0.57987766842E+02  0.16969659979E+03 -0.13275972953E+03  0.22317426569E+03  0.47000000000E+01 0. -1.
        -13    1    4    4    0    0  0.41025759361E+02  0.74611742375E+02 -0.10198640196E+03  0.13285801149E+03  0.00000000000E+00 0.  1.
         14    1    4    4    0    0  0.59551408911E+02 -0.35852090211E+01 -0.11378031804E+03  0.12847250601E+03  0.00000000000E+00 0. -1.
         -5    1    5    5    0  502  0.97219309872E+01 -0.16392170385E+02 -0.31187080425E+03  0.31248793214E+03  0.47000000000E+01 0.  1.
         13    1    6    6    0    0 -0.39129937682E+01 -0.12317485328E+02 -0.14259361137E+03  0.14317810576E+03  0.00000000000E+00 0. -1.
        -14    1    6    6    0    0 -0.16437387233E+03 -0.21201347743E+03 -0.83758937344E+03  0.87950238375E+03  0.00000000000E+00 0.  1.
</event>
<event>
12    1  0.8691829E-002  0.1997021E+03  0.7818608E-02  0.1150644E+00
         21   -1    0    0  503  502  0.00000000000E+00  0.00000000000E+00  0.85403326156E+02  0.85403326156E+02  0.00000000000E+00 0. -1.
         21   -1    0    0  501  503 -0.00000000000E+00 -0.00000000000E+00 -0.63474206755E+03  0.63474206755E+03  0.00000000000E+00 0. -1.
          6    2    1    2  501    0 -0.61888113723E+02 -0.74187724057E+02 -0.46522413459E+03  0.50627504770E+03  0.17477691925E+03 0.  0.
         24    2    3    3    0    0 -0.81299243710E+02 -0.16350775147E+02 -0.40233663536E+03  0.41853205832E+03  0.80108681264E+02 0.  0.
         -6    2    1    2    0  502  0.61888113723E+02  0.74187724057E+02 -0.84114606803E+02  0.21387034600E+03  0.17126383389E+03 0.  0.
        -24    2    5    5    0    0  0.45654006571E+02  0.59548404733E+02  0.11845563666E+02  0.11533963900E+03  0.86790633850E+02 0.  0.
          5    1    3    3  501    0  0.19411129986E+02 -0.57836948910E+02 -0.62887499228E+02  0.87742989382E+02  0.47000000000E+01 0. -1.
        -13    1    4    4    0    0 -0.23749965138E+02  0.20755647526E+02 -0.46638030669E+02  0.56302430258E+02  0.00000000000E+00 0.  1.
         14    1    4    4    0    0 -0.57549278572E+02 -0.37106422673E+02 -0.35569860469E+03  0.36222962806E+03  0.00000000000E+00 0. -1.
         -5    1    5    5    0  502  0.16234107152E+02  0.14639319324E+02 -0.95960170469E+02  0.98530706999E+02  0.47000000000E+01 0.  1.
         13    1    6    6    0    0 -0.14981412511E+02  0.51040955256E+02  0.13086849164E+01  0.53210285570E+02  0.00000000000E+00 0. -1.
        -14    1    6    6    0    0  0.60635419083E+02  0.85074494774E+01  0.10536878749E+02  0.62129353431E+02  0.00000000000E+00 0.  1.
</event>
<event>
12    1  0.8691829E-002  0.3303617E+03  0.7818608E-02  0.1071068E+00
         21   -1    0    0  503  502  0.00000000000E+00  0.00000000000E+00  0.29403630485E+03  0.29403630485E+03  0.00000000000E+00 0. -1.
         21   -1    0    0  501  503 -0.00000000000E+00 -0.00000000000E+00 -0.39841622769E+03  0.39841622769E+03  0.00000000000E+00 0. -1.
          6    2    1    2  501    0  0.25514791320E+03  0.12015346240E+03 -0.14418490459E+03  0.35970140482E+03  0.17046554427E+03 0.  0.
         24    2    3    3    0    0  0.72608271743E+02  0.77871934874E+02 -0.20066698663E+02  0.13489956472E+03  0.80369277704E+02 0.  0.
         -6    2    1    2    0  502 -0.25514791320E+03 -0.12015346240E+03  0.39804981744E+02  0.33275112772E+03  0.17205105139E+03 0.  0.
        -24    2    5    5    0    0 -0.27539871616E+03 -0.10790534944E+03  0.33149788248E+02  0.30772128769E+03  0.78137475878E+02 0.  0.
          5    1    3    3  501    0  0.18253964146E+03  0.42281527528E+02 -0.12411820592E+03  0.22480184011E+03  0.47000000000E+01 0. -1.
        -11    1    4    4    0    0  0.45623823827E+02  0.91617677806E+02 -0.93488934038E+01  0.10277516234E+03  0.00000000000E+00 0.  1.
         12    1    4    4    0    0  0.26984447916E+02 -0.13745742932E+02 -0.10717805260E+02  0.32124402371E+02  0.00000000000E+00 0. -1.
         -5    1    5    5    0  502  0.20250802954E+02 -0.12248112960E+02  0.66551934964E+01  0.25029840028E+02  0.47000000000E+01 0.  1.
         13    1    6    6    0    0 -0.15602592034E+03 -0.67497097120E+02  0.57309463122E+02  0.17939988991E+03  0.00000000000E+00 0. -1.
        -14    1    6    6    0    0 -0.11937279582E+03 -0.40408252321E+02 -0.24159674874E+02  0.12832139777E+03  0.00000000000E+00 0.  1.
</event>
<event>
12    1  0.8691829E-002  0.2912149E+03  0.7818608E-02  0.1089893E+00
         21   -1    0    0  503  502  0.00000000000E+00  0.00000000000E+00  0.91182096750E+02  0.91182096750E+02  0.00000000000E+00 0. -1.
         21   -1    0    0  501  503 -0.00000000000E+00 -0.00000000000E+00 -0.92727074290E+03  0.92727074290E+03  0.00000000000E+00 0.  1.
          6    2    1    2  501    0 -0.23458881598E+03 -0.34470532181E+01 -0.39846783801E+03  0.49354103808E+03  0.17251766165E+03 0.  0.
         24    2    3    3    0    0 -0.29595197430E+02 -0.48783336074E+01 -0.96730816044E+02  0.12872361438E+03  0.79455926630E+02 0.  0.
         -6    2    1    2    0  502  0.23458881598E+03  0.34470532181E+01 -0.43762080814E+03  0.52491180157E+03  0.17022524182E+03 0.  0.
        -24    2    5    5    0    0  0.77135421855E+02 -0.34573335847E+02 -0.10812094889E+03  0.15772061356E+03  0.77720418793E+02 0.  0.
          5    1    3    3  501    0 -0.20499361855E+03  0.14312803893E+01 -0.30173702196E+03  0.36481742370E+03  0.47000000000E+01 0. -1.
        -13    1    4    4    0    0 -0.40977954107E+02 -0.29545242185E+02 -0.85536850540E+02  0.99341163970E+02  0.00000000000E+00 0.  1.
         14    1    4    4    0    0  0.11382756677E+02  0.24666908578E+02 -0.11193965504E+02  0.29382450409E+02  0.00000000000E+00 0. -1.
         -5    1    5    5    0  502  0.15745339412E+03  0.38020389065E+02 -0.32949985925E+03  0.36719118801E+03  0.47000000000E+01 0.  1.
         13    1    6    6    0    0  0.61500371649E+02 -0.48495680821E+02 -0.11176006661E+03  0.13647138623E+03  0.00000000000E+00 0. -1.
        -14    1    6    6    0    0  0.15635050206E+02  0.13922344974E+02  0.36391177165E+01  0.21249227334E+02  0.00000000000E+00 0.  1.
</event>
<event>
12    1  0.8691829E-002  0.2371795E+03  0.7818608E-02  0.1121713E+00
         21   -1    0    0  501  502  0.00000000000E+00  0.00000000000E+00  0.75565330063E+02  0.75565330063E+02  0.00000000000E+00 0. -1.
         21   -1    0    0  502  503 -0.00000000000E+00 -0.00000000000E+00 -0.98190060355E+03  0.98190060355E+03  0.00000000000E+00 0. -1.
         -6    2    1    2    0  503  0.12760727458E+03 -0.10129803634E+03 -0.71333816286E+03  0.75168493436E+03  0.17214527952E+03 0.  0.
        -24    2    3    3    0    0  0.79519592097E+02 -0.94587076019E+02 -0.28373495131E+03  0.31932111584E+03  0.78678916792E+02 0.  0.
          6    2    1    2  501    0 -0.12760727458E+03  0.10129803634E+03 -0.19299711063E+03  0.30578099926E+03  0.17236364496E+03 0.  0.
         24    2    5    5    0    0 -0.16065566692E+02  0.75463491609E+02 -0.14054216608E+03  0.17975486107E+03  0.81282646563E+02 0.  0.
          5    1    5    5  501    0 -0.11154170788E+03  0.25834544733E+02 -0.52454944555E+02  0.12602613819E+03  0.47000000000E+01 0. -1.
        -13    1    6    6    0    0 -0.37485623554E+02  0.45603594581E+02 -0.12794578004E+03  0.14090770895E+03  0.00000000000E+00 0.  1.
         14    1    6    6    0    0  0.21420056861E+02  0.29859897028E+02 -0.12596386042E+02  0.38847152119E+02  0.00000000000E+00 0. -1.
         -5    1    3    3    0  503  0.48087682478E+02 -0.67109603232E+01 -0.42960321155E+03  0.43236381852E+03  0.47000000000E+01 0.  1.
         11    1    4    4    0    0  0.92909431268E+02 -0.90445373083E+02 -0.27083086189E+03  0.30026968492E+03  0.00000000000E+00 0. -1.
        -12    1    4    4    0    0 -0.13389839171E+02 -0.41417029361E+01 -0.12904089423E+02  0.19051430919E+02  0.00000000000E+00 0.  1.
</event>
<event>
12    1  0.8691829E-002  0.2739541E+03  0.7818608E-02  0.1099042E+00
         21   -1    0    0  501  502  0.00000000000E+00  0.00000000000E+00  0.19027873743E+04  0.19027873743E+04  0.00000000000E+00 0.  1.
         21   -1    0    0  502  503 -0.00000000000E+00 -0.00000000000E+00 -0.39453496062E+02  0.39453496062E+02  0.00000000000E+00 0.  1.
         -6    2    1    2    0  503 -0.12438132294E+03  0.17273824541E+03  0.95063761556E+03  0.98932438481E+03  0.17245766829E+03 0.  0.
        -24    2    3    3    0    0 -0.19818835903E+02  0.91198330458E+02  0.63627412365E+03  0.64810808029E+03  0.80556822069E+02 0.  0.
          6    2    1    2  501    0  0.12438132294E+03 -0.17273824541E+03  0.91269626271E+03  0.95291648558E+03  0.17241271878E+03 0.  0.
         24    2    5    5    0    0  0.55408290154E+02 -0.17973238662E+03  0.68347263007E+03  0.71339245541E+03  0.80125838366E+02 0.  0.
          5    1    5    5  501    0  0.68973032790E+02  0.69941412128E+01  0.22922363264E+03  0.23952403016E+03  0.47000000000E+01 0. -1.
        -11    1    6    6    0    0  0.66629348057E+02 -0.91899956812E+02  0.43681391797E+03  0.45132191506E+03  0.00000000000E+00 0.  1.
         12    1    6    6    0    0 -0.11221057903E+02 -0.87832429808E+02  0.24665871210E+03  0.26207054035E+03  0.00000000000E+00 0. -1.
         -5    1    3    3    0  503 -0.10456248704E+03  0.81539914949E+02  0.31436349191E+03  0.34121630452E+03  0.47000000000E+01 0.  1.
         11    1    4    4    0    0  0.22364417916E+02  0.63542675751E+02  0.26521717884E+03  0.27363843074E+03  0.00000000000E+00 0. -1.
        -12    1    4    4    0    0 -0.42183253818E+02  0.27655654707E+02  0.37105694481E+03  0.37446964955E+03  0.00000000000E+00 0.  1.
</event>
<event>
12    1  0.8691829E-002  0.1907233E+03  0.7818608E-02  0.1158610E+00
         21   -1    0    0  501  502  0.00000000000E+00  0.00000000000E+00  0.38100553272E+03  0.38100553272E+03  0.00000000000E+00 0.  1.
         21   -1    0    0  502  503 -0.00000000000E+00 -0.00000000000E+00 -0.10780344521E+03  0.10780344521E+03  0.00000000000E+00 0.  1.
         -6    2    1    2    0  503  0.78120752399E+02  0.19733576598E+02  0.47137530529E+02  0.19303785595E+03  0.16896568008E+03 0.  0.
        -24    2    3    3    0    0  0.35335976150E+02 -0.86318516593E+01  0.92135729125E+02  0.12461225785E+03  0.75604775977E+02 0.  0.
          6    2    1    2  501    0 -0.78120752399E+02 -0.19733576598E+02  0.22606455698E+03  0.29577112198E+03  0.17286730945E+03 0.  0.
         24    2    5    5    0    0 -0.53320533129E+02 -0.76050535615E+02  0.10900721176E+03  0.16344137166E+03  0.78763865671E+02 0.  0.
          5    1    5    5  501    0 -0.24800219270E+02  0.56316959016E+02  0.11705734523E+03  0.13232975032E+03  0.47000000000E+01 0. -1.
        -13    1    6    6    0    0 -0.44273133823E+02 -0.54020463302E+01  0.67799087645E+02  0.81154228285E+02  0.00000000000E+00 0.  1.
         14    1    6    6    0    0 -0.90473993065E+01 -0.70648489284E+02  0.41208124111E+02  0.82287143377E+02  0.00000000000E+00 0. -1.
         -5    1    3    3    0  503  0.42784776249E+02  0.28365428258E+02 -0.44998198596E+02  0.68425598103E+02  0.47000000000E+01 0.  1.
         13    1    4    4    0    0 -0.62401522783E+01 -0.28179885584E+02  0.10082811579E+02  0.30573003472E+02  0.00000000000E+00 0. -1.
        -14    1    4    4    0    0  0.41576128429E+02  0.19548033924E+02  0.82052917545E+02  0.94039254374E+02  0.00000000000E+00 0.  1.
</event>
<event>
12    1  0.8691829E-002  0.2068143E+03  0.7818608E-02  0.1146117E+00
         21   -1    0    0  503  502  0.00000000000E+00  0.00000000000E+00  0.10697966987E+03  0.10697966987E+03  0.00000000000E+00 0.  1.
         21   -1    0    0  501  503 -0.00000000000E+00 -0.00000000000E+00 -0.41432258540E+03  0.41432258540E+03  0.00000000000E+00 0.  1.
          6    2    1    2  501    0 -0.85080262592E+02 -0.38990523265E+02 -0.76765383021E+02  0.21156339449E+03  0.17351436214E+03 0.  0.
         24    2    3    3    0    0 -0.95049966431E+02  0.27469576751E+02 -0.41222659527E+02  0.13539440420E+03  0.82724018662E+02 0.  0.
         -6    2    1    2    0  502  0.85080262592E+02  0.38990523265E+02 -0.23057753251E+03  0.30973886077E+03  0.18442681852E+03 0.  0.
        -24    2    5    5    0    0  0.22980841685E+01 -0.35494354389E+02 -0.14434449765E+03  0.16881649788E+03  0.79990909287E+02 0.  0.
          5    1    3    3  501    0  0.99697038387E+01 -0.66460100016E+02 -0.35542723494E+02  0.76168990292E+02  0.47000000000E+01 0. -1.
        -13    1    4    4    0    0 -0.87301720573E+02 -0.12547052304E+02 -0.28885518285E+02  0.92808362248E+02  0.00000000000E+00 0.  1.
         14    1    4    4    0    0 -0.77482458580E+01  0.40016629054E+02 -0.12337141241E+02  0.42586041948E+02  0.00000000000E+00 0. -1.
         -5    1    5    5    0  502  0.82782178424E+02  0.74484877654E+02 -0.86233034858E+02  0.14092236290E+03  0.47000000000E+01 0.  1.
         11    1    6    6    0    0  0.28152412075E+02 -0.26818932201E+02 -0.24610729972E+02  0.46016317321E+02  0.00000000000E+00 0. -1.
        -12    1    6    6    0    0 -0.25854327906E+02 -0.86754221882E+01 -0.11973376768E+03  0.12280018056E+03  0.00000000000E+00 0.  1.
</event>
<event>
12    1  0.8691829E-002  0.2587362E+03  0.7818608E-02  0.1107938E+00
         21   -1    0    0  501  502  0.00000000000E+00  0.00000000000E+00  0.21717906755E+03  0.21717906755E+03  0.00000000000E+00 0. -1.
         21   -1    0    0  502  503 -0.00000000000E+00 -0.00000000000E+00 -0.49387858806E+03  0.49387858806E+03  0.00000000000E+00 0. -1.
         -6    2    1    2    0  503  0.18447802204E+02  0.19271754365E+03 -0.35643521449E+03  0.44031386846E+03  0.17131803056E+03 0.  0.
        -24    2    3    3    0    0 -0.42911683764E+02  0.15600012987E+03 -0.29531553999E+03  0.34612862756E+03  0.80101844756E+02 0.  0.
          6    2    1    2  501    0 -0.18447802204E+02 -0.19271754365E+03  0.79735693987E+02  0.27074378715E+03  0.17165093751E+03 0.  0.
         24    2    5    5    0    0 -0.39974389266E+02 -0.44526673103E+02  0.64960364973E+02  0.12019702229E+03  0.81528514855E+02 0.  0.
          5    1    5    5  501    0  0.21526587062E+02 -0.14819087054E+03  0.14775329014E+02  0.15054676486E+03  0.47000000000E+01 0. -1.
        -13    1    6    6    0    0 -0.27869933211E+02 -0.99748387161E+01 -0.14311523951E+02  0.32879329409E+02  0.00000000000E+00 0.  1.
         14    1    6    6    0    0 -0.12104456055E+02 -0.34551834387E+02  0.79271888924E+02  0.87317692878E+02  0.00000000000E+00 0. -1.
         -5    1    3    3    0  503  0.61359485968E+02  0.36717413780E+02 -0.61119674504E+02  0.94185240905E+02  0.47000000000E+01 0.  1.
         11    1    4    4    0    0 -0.17244689882E+02  0.15334766079E+03 -0.26080111548E+03  0.30303482677E+03  0.00000000000E+00 0. -1.
        -12    1    4    4    0    0 -0.25666993882E+02  0.26524690762E+01 -0.34514424504E+02  0.43093800784E+02  0.00000000000E+00 0.  1.
</event>
<event>
12    1  0.8691829E-002  0.1994457E+03  0.7818608E-02  0.1151659E+00
         21   -1    0    0  503  502  0.00000000000E+00  0.00000000000E+00  0.44612921370E+03  0.44612921370E+03  0.00000000000E+00 0. -1.
         21   -1    0    0  501  503 -0.00000000000E+00 -0.00000000000E+00 -0.93529757030E+02  0.93529757030E+02  0.00000000000E+00 0.  1.
          6    2    1    2  501    0 -0.84676098052E+02  0.45770022232E+02  0.97874926565E+02  0.21614208624E+03  0.16695198015E+03 0.  0.
         24    2    3    3    0    0 -0.57870394094E+02 -0.30970622791E+02  0.85094374055E+02  0.13372179210E+03  0.79575770167E+02 0.  0.
         -6    2    1    2    0  502  0.84676098052E+02 -0.45770022232E+02  0.25472453011E+03  0.32351688450E+03  0.17468157258E+03 0.  0.
        -24    2    5    5    0    0  0.88772770522E+02  0.17714830972E+02  0.13563712065E+03  0.18842058402E+03  0.94395275097E+02 0.  0.
          5    1    3    3  501    0 -0.26805703958E+02  0.76740645023E+02  0.12780552510E+02  0.82420294137E+02  0.47000000000E+01 0. -1.
        -13    1    4    4    0    0 -0.45575777993E+02  0.18396787342E+02  0.25516896657E+02  0.55377841590E+02  0.00000000000E+00 0.  1.
         14    1    4    4    0    0 -0.12294616102E+02 -0.49367410133E+02  0.59577477398E+02  0.78343950509E+02  0.00000000000E+00 0. -1.
         -5    1    5    5    0  502 -0.40966724700E+01 -0.63484853204E+02  0.11908740946E+03  0.13509630048E+03  0.47000000000E+01 0.  1.
         11    1    6    6    0    0  0.10637009936E+03  0.14656214236E+02  0.92470337286E+02  0.14170450216E+03  0.00000000000E+00 0. -1.
        -12    1    6    6    0    0 -0.17597328837E+02  0.30586167364E+01  0.43166783364E+02  0.46716081862E+02  0.00000000000E+00 0.  1.
</event>
<event>
12    1  0.8691829E-002  0.1913190E+03  0.7818608E-02  0.1159318E+00
         21   -1    0    0  503  502  0.00000000000E+00  0.00000000000E+00  0.21376394667E+03  0.21376394667E+03  0.00000000000E+00 0.  1.
         21   -1    0    0  501  503 -0.00000000000E+00 -0.00000000000E+00 -0.31285326834E+03  0.31285326834E+03  0.00000000000E+00 0.  1.
          6    2    1    2  501    0 -0.56543747592E+02  0.24226766359E+02 -0.23215240096E+03  0.30082836708E+03  0.18115970182E+03 0.  0.
         24    2    3    3    0    0 -0.32545689632E+02  0.65331313661E+02 -0.66518741259E+02  0.12842741052E+03  0.82106360143E+02 0.  0.
         -6    2    1    2    0  502  0.56543747592E+02 -0.24226766359E+02  0.13306307929E+03  0.22578884794E+03  0.17172853339E+03 0.  0.
        -24    2    5    5    0    0  0.16027091511E+02 -0.32940428260E+02  0.15510223033E+03  0.17861532250E+03  0.80652291371E+02 0.  0.
          5    1    3    3  501    0 -0.23998057959E+02 -0.41104547302E+02 -0.16563365970E+03  0.17240095655E+03  0.47000000000E+01 0. -1.
        -13    1    4    4    0    0 -0.13668783606E+02  0.19762343600E+02 -0.74663961247E+02  0.78435278918E+02  0.00000000000E+00 0.  1.
         14    1    4    4    0    0 -0.18876906026E+02  0.45568970061E+02  0.81452199875E+01  0.49992131603E+02  0.00000000000E+00 0. -1.
         -5    1    5    5    0  502  0.40516656081E+02  0.87136619014E+01 -0.22039151035E+02  0.47173525435E+02  0.47000000000E+01 0.  1.
         11    1    6    6    0    0 -0.18382602422E+02 -0.18411563323E+02  0.85623226759E+01  0.27390127882E+02  0.00000000000E+00 0. -1.
        -12    1    6    6    0    0  0.34409693933E+02 -0.14528864937E+02  0.14653990765E+03  0.15122519462E+03  0.00000000000E+00 0.  1.
</event>
<event>
12    1  0.8691829E-002  0.1933010E+03  0.7818608E-02  0.1156457E+00
         21   -1    0    0  501  502  0.00000000000E+00  0.00000000000E+00  0.31890666634E+03  0.31890666634E+03  0.00000000000E+00 0. -1.
         21   -1    0    0  502  503 -0.00000000000E+00 -0.00000000000E+00 -0.22564812878E+03  0.22564812878E+03  0.00000000000E+00 0.  1.
         -6    2    1    2    0  503 -0.69246859502E+02 -0.51642372282E+02 -0.14408820644E+03  0.24109478340E+03  0.17292547869E+03 0.  0.
        -24    2    3    3    0    0  0.68427896947E+01  0.11550042500E+02 -0.21787600300E+02  0.83733910676E+02  0.79727291549E+02 0.  0.
          6    2    1    2  501    0  0.69246859502E+02  0.51642372282E+02  0.23734674401E+03  0.30346001171E+03  0.16820356611E+03 0.  0.
         24    2    5    5    0    0  0.70555296940E+02  0.96123491616E+02  0.17718845734E+03  0.22848407264E+03  0.81187723628E+02 0.  0.
          5    1    5    5  501    0 -0.13084374378E+01 -0.44481119334E+02  0.60158286664E+02  0.74975939075E+02  0.47000000000E+01 0. -1.
        -11    1    6    6    0    0  0.43811445943E+01 -0.14552099634E+02  0.16082482555E+02  0.22127003341E+02  0.00000000000E+00 0.  1.
         12    1    6    6    0    0  0.66174152346E+02  0.11067559125E+03  0.16110597479E+03  0.20635706930E+03  0.00000000000E+00 0. -1.
         -5    1    3    3    0  503 -0.76089649197E+02 -0.63192414782E+02 -0.12230060614E+03  0.15736087272E+03  0.47000000000E+01 0.  1.
         11    1    4    4    0    0 -0.11503791426E+02 -0.24513276540E+02  0.13308278227E+02  0.30171977285E+02  0.00000000000E+00 0. -1.
        -12    1    4    4    0    0  0.18346581121E+02  0.36063319041E+02 -0.35095878527E+02  0.53561933391E+02  0.00000000000E+00 0.  1.
</event>
<event>
12    1  0.8691829E-002  0.2102763E+03  0.7818608E-02  0.1141462E+00
         21   -1    0    0  503  502  0.00000000000E+00  0.00000000000E+00  0.15354717245E+04  0.15354717245E+04  0.00000000000E+00 0. -1.
         21   -1    0    0  501  503 -0.00000000000E+00 -0.00000000000E+00 -0.35010579282E+02  0.35010579282E+02  0.00000000000E+00 0. -1.
          6    2    1    2  501    0  0.39131693852E+02 -0.11336246856E+03  0.41646155591E+03  0.46627615048E+03  0.17202000528E+03 0.  0.
         24    2    3    3    0    0 -0.23524753882E+02 -0.36229246006E+02  0.10164508450E+03  0.13611427331E+03  0.79557525637E+02 0.  0.
         -6    2    1    2    0  502 -0.39131693852E+02  0.11336246856E+03  0.10839995893E+04  0.11042061533E+04  0.17272458026E+03 0.  0.
        -24    2    5    5    0    0 -0.81573331197E+02  0.54575700816E+02  0.50374619332E+03  0.51942134656E+03  0.80034945449E+02 0.  0.
          5    1    3    3  501    0  0.62656447734E+02 -0.77133222550E+02  0.31481647141E+03  0.33016187717E+03  0.47000000000E+01 0. -1.
        -13    1    4    4    0    0 -0.33011645757E+02  0.83097480179E+01  0.77330073912E+02  0.84491188883E+02  0.00000000000E+00 0.  1.
         14    1    4    4    0    0  0.94868918756E+01 -0.44538994024E+02  0.24315010586E+02  0.51623084429E+02  0.00000000000E+00 0. -1.
         -5    1    5    5    0  502  0.42441637345E+02  0.58786767741E+02  0.58025339596E+03  0.58478480671E+03  0.47000000000E+01 0.  1.
         13    1    6    6    0    0  0.37078953756E+01 -0.79121553824E+01  0.14899693576E+03  0.14925293149E+03  0.00000000000E+00 0. -1.
        -14    1    6    6    0    0 -0.85281226573E+02  0.62487856198E+02  0.35474925756E+03  0.37016841507E+03  0.00000000000E+00 0.  1.
</event>
<event>
12    1  0.8691829E-002  0.2812049E+03  0.7818608E-02  0.1095140E+00
         21   -1    0    0  501  502  0.00000000000E+00  0.00000000000E+00  0.17221142740E+04  0.17221142740E+04  0.00000000000E+00 0.  1.
         21   -1    0    0  502  503 -0.00000000000E+00 -0.00000000000E+00 -0.59761564432E+02  0.59761564432E+02  0.00000000000E+00 0. -1.
         -6    2    1    2    0  503 -0.19716404829E+03 -0.10083782413E+03  0.39949832629E+03  0.48809170236E+03  0.17202519726E+03 0.  0.
        -24    2    3    3    0    0 -0.74234153958E+02  0.25044293621E+01  0.23433497464E+03  0.25767381459E+03  0.77239449801E+02 0.  0.
          6    2    1    2  501    0  0.19716404829E+03  0.10083782413E+03  0.12628543833E+04  0.12937841361E+04  0.17330397763E+03 0.  0.
         24    2    5    5    0    0  0.16064112571E+03  0.13986135861E+03  0.10503194247E+04  0.10745811280E+04  0.78657077911E+02 0.  0.
          5    1    5    5  501    0  0.36522922579E+02 -0.39023534479E+02  0.21253495860E+03  0.21920300806E+03  0.47000000000E+01 0. -1.
        -11    1    6    6    0    0  0.20831591284E+02  0.65366734964E+02  0.32559912176E+03  0.33274848358E+03  0.00000000000E+00 0.  1.
         12    1    6    6    0    0  0.13980953443E+03  0.74494623644E+02  0.72472030294E+03  0.74183264445E+03  0.00000000000E+00 0. -1.
         -5    1    3    3    0  503 -0.12292989434E+03 -0.10334225349E+03  0.16516335165E+03  0.23041788777E+03  0.47000000000E+01 0.  1.
         13    1    4    4    0    0 -0.84023693703E+02  0.20045301500E+02  0.17772798026E+03  0.19760827458E+03  0.00000000000E+00 0. -1.
        -14    1    4    4    0    0  0.97895397458E+01 -0.17540872137E+02  0.56606994376E+02  0.60065540005E+02  0.00000000000E+00 0.  1.
</event>
<event>
12    1  0.8691829E-002  0.2072587E+03  0.7818608E-02  0.1144213E+00
         21   -1    0    0  503  502  0.00000000000E+00  0.00000000000E+00  0.20097426387E+03  0.20097426387E+03  0.00000000000E+00 0.  1.
         21   -1    0    0  501  503 -0.00000000000E+00 -0.00000000000E+00 -0.23181168329E+03  0.23181168329E+03  0.00000000000E+00 0. -1.
          6    2    1    2  501    0 -0.85267300679E+02  0.75108358690E+02  0.48847154099E+02  0.21073680969E+03  0.17062291870E+03 0.  0.
         24    2    3    3    0    0 -0.31901919920E+01 -0.54439541913E+01  0.50672923835E+02  0.95624906242E+02  0.80849016826E+02 0.  0.
         -6    2    1    2    0  502  0.85267300679E+02 -0.75108358690E+02 -0.79684573525E+02  0.22204913746E+03  0.17333323421E+03 0.  0.
        -24    2    5    5    0    0  0.16231147242E+02 -0.52774860860E+02 -0.10677115470E+03  0.14445694400E+03  0.80119243097E+02 0.  0.
          5    1    3    3  501    0 -0.82077108687E+02  0.80552312881E+02 -0.18257697361E+01  0.11511190345E+03  0.47000000000E+01 0. -1.
        -11    1    4    4    0    0  0.19048457605E+02  0.29756268856E+02  0.84534686816E+01  0.36328231530E+02  0.00000000000E+00 0.  1.
         12    1    4    4    0    0 -0.22238649597E+02 -0.35200223047E+02  0.42219455153E+02  0.59296674712E+02  0.00000000000E+00 0. -1.
         -5    1    5    5    0  502  0.69036153437E+02 -0.22333497830E+02  0.27086581176E+02  0.77592193463E+02  0.47000000000E+01 0.  1.
         13    1    6    6    0    0  0.19845613437E+02  0.17051854404E+02 -0.39850548485E+02  0.47672637077E+02  0.00000000000E+00 0. -1.
        -14    1    6    6    0    0 -0.36144661951E+01 -0.69826715264E+02 -0.66920606215E+02  0.96784306924E+02  0.00000000000E+00 0.  1.
</event>
<event>
12    1  0.8691829E-002  0.2510785E+03  0.7818608E-02  0.1112757E+00
         21   -1    0    0  501  502  0.00000000000E+00  0.00000000000E+00  0.47232081488E+03  0.47232081488E+03  0.00000000000E+00 0.  1.
         21   -1    0    0  502  503 -0.00000000000E+00 -0.00000000000E+00 -0.22641327269E+03  0.22641327269E+03  0.00000000000E+00 0. -1.
         -6    2    1    2    0  503 -0.17929861487E+03 -0.38646108806E+02 -0.10130326329E+03  0.27074484799E+03  0.17146109337E+03 0.  0.
        -24    2    3    3    0    0 -0.47485874080E+02 -0.67010466410E+02 -0.32269985166E+02  0.11919677342E+03  0.80132440409E+02 0.  0.
          6    2    1    2  501    0  0.17929861487E+03  0.38646108806E+02  0.34721080548E+03  0.42798923959E+03  0.17022905375E+03 0.  0.
         24    2    5    5    0    0  0.13123546259E+03 -0.18084397778E+02  0.30649147232E+03  0.34308593531E+03  0.78874231017E+02 0.  0.
          5    1    5    5  501    0  0.48063152280E+02  0.56730506584E+02  0.40719333166E+02  0.84903304281E+02  0.47000000000E+01 0. -1.
        -11    1    6    6    0    0  0.10500589473E+03 -0.64203353262E+01  0.29310324636E+03  0.31141125809E+03  0.00000000000E+00 0.  1.
         12    1    6    6    0    0  0.26229567857E+02 -0.11664062452E+02  0.13388225954E+02  0.31674677221E+02  0.00000000000E+00 0. -1.
         -5    1    3    3    0  503 -0.13181274079E+03  0.28364357605E+02 -0.69033278127E+02  0.15154807457E+03  0.47000000000E+01 0.  1.
         13    1    4    4    0    0 -0.62582830565E+02 -0.49479934102E+02 -0.46199809765E+02  0.92191631847E+02  0.00000000000E+00 0. -1.
        -14    1    4    4    0    0  0.15096956485E+02 -0.17530532308E+02  0.13929824599E+02  0.27005141575E+02  0.00000000000E+00 0.  1.
</event>
<event>
12    1  0.8691829E-002  0.1834025E+03  0.7818608E-02  0.1165025E+00
         21   -1    0    0  501  502  0.00000000000E+00  0.00000000000E+00  0.59402088435E+03  0.59402088435E+03  0.00000000000E+00 0. -1.
         21   -1    0    0  502  503 -0.00000000000E+00 -0.00000000000E+00 -0.68711236345E+02  0.68711236345E+02  0.00000000000E+00 0. -1.
         -6    2    1    2    0  503 -0.16261665833E+02  0.40300552392E+02  0.40394922824E+03  0.44281211013E+03  0.17612214394E+03 0.  0.
        -24    2    3    3    0    0 -0.16622131332E+02  0.79212330264E+02  0.38091149327E+03  0.39734691878E+03  0.78994427881E+02 0.  0.
          6    2    1    2  501    0  0.16261665833E+02 -0.40300552392E+02  0.12136041977E+03  0.21992001057E+03  0.17817935701E+03 0.  0.
         24    2    5    5    0    0  0.88059800646E+01 -0.17858505099E+02 -0.19267290385E+02  0.77240384832E+02  0.72099771712E+02 0.  0.
          5    1    5    5  501    0  0.74556857686E+01 -0.22442047293E+02  0.14062771016E+03  0.14267962574E+03  0.47000000000E+01 0. -1.
        -11    1    6    6    0    0 -0.22315884770E+02  0.69892278408E+01 -0.27988804255E+02  0.36472197391E+02  0.00000000000E+00 0.  1.
         12    1    6    6    0    0  0.31121864835E+02 -0.24847732939E+02  0.87215138702E+01  0.40768187441E+02  0.00000000000E+00 0. -1.
         -5    1    3    3    0  503  0.36046549834E+00 -0.38911777872E+02  0.23037734962E+02  0.45465191352E+02  0.47000000000E+01 0.  1.
         11    1    4    4    0    0 -0.20609057797E+01  0.91165883112E+02  0.34431847752E+03  0.35618910643E+03  0.00000000000E+00 0. -1.
        -12    1    4    4    0    0 -0.14561225552E+02 -0.11953552849E+02  0.36593015757E+02  0.41157812350E+02  0.00000000000E+00 0.  1.
</event>
<event>
12    1  0.8691829E-002  0.1794492E+03  0.7818608E-02  0.1168380E+00
         21   -1    0    0  503  502  0.00000000000E+00  0.00000000000E+00  0.21962143506E+03  0.21962143506E+03  0.00000000000E+00 0. -1.
         21   -1    0    0  501  503 -0.00000000000E+00 -0.00000000000E+00 -0.15815329988E+03  0.15815329988E+03  0.00000000000E+00 0. -1.
          6    2    1    2  501    0  0.11165238341E+02 -0.49240499622E+02 -0.20595496609E+02  0.18045155036E+03  0.17201540105E+03 0.  0.
         24    2    3    3    0    0 -0.54775315230E+02 -0.32739771077E+02 -0.39278339461E+02  0.10980051169E+03  0.80256692235E+02 0.  0.
         -6    2    1    2    0  502 -0.11165238341E+02  0.49240499622E+02  0.82063631795E+02  0.19732318458E+03  0.17219962299E+03 0.  0.
        -24    2    5    5    0    0 -0.40796712575E+02  0.89911116202E+02  0.49907012061E+02  0.13742108519E+03  0.81519716814E+02 0.  0.
          5    1    3    3  501    0  0.65940553571E+02 -0.16500728545E+02  0.18682842852E+02  0.70651038668E+02  0.47000000000E+01 0. -1.
        -13    1    4    4    0    0 -0.30017332751E+02  0.24924024603E+02 -0.86158607027E+01  0.39955979822E+02  0.00000000000E+00 0.  1.
         14    1    4    4    0    0 -0.24757982479E+02 -0.57663795680E+02 -0.30662478758E+02  0.69844531871E+02  0.00000000000E+00 0. -1.
         -5    1    5    5    0  502  0.29631474234E+02 -0.40670616580E+02  0.32156619733E+02  0.59902099387E+02  0.47000000000E+01 0.  1.
         11    1    6    6    0    0 -0.54297932879E+02  0.53649777971E+02  0.26957314801E+01  0.76379520551E+02  0.00000000000E+00 0. -1.
        -12    1    6    6    0    0  0.13501220304E+02  0.36261338231E+02  0.47211280581E+02  0.61041564643E+02  0.00000000000E+00 0.  1.
</event>
<event>
12    1  0.8691829E-002  0.1952219E+03  0.7818608E-02  0.1154187E+00
         21   -1    0    0  503  502  0.00000000000E+00  0.00000000000E+00  0.38248174613E+02  0.38248174613E+02  0.00000000000E+00 0.  1.
         21   -1    0    0  501  503 -0.00000000000E+00 -0.00000000000E+00 -0.10186369632E+04  0.10186369632E+04  0.00000000000E+00 0. -1.
          6    2    1    2  501    0 -0.72311363851E+02 -0.51530860296E+02 -0.39686772744E+03  0.44157350392E+03  0.17204302770E+03 0.  0.
         24    2    3    3    0    0 -0.10994546949E+03 -0.24534201222E+02 -0.22880637959E+03  0.26718356113E+03  0.79654018758E+02 0.  0.
         -6    2    1    2    0  502  0.72311363851E+02  0.51530860296E+02 -0.58352106112E+03  0.61531163386E+03  0.17385975696E+03 0.  0.
        -24    2    5    5    0    0  0.52219054339E+02  0.10077919291E+03 -0.46797978924E+03  0.48802858443E+03  0.79268787792E+02 0.  0.
          5    1    3    3  501    0  0.37634105636E+02 -0.26996659074E+02 -0.16806134784E+03  0.17438994279E+03  0.47000000000E+01 0. -1.
        -11    1    4    4    0    0 -0.15752623744E+02  0.26308773749E+02 -0.58062908554E+02  0.65662760227E+02  0.00000000000E+00 0.  1.
         12    1    4    4    0    0 -0.94192845743E+02 -0.50842974971E+02 -0.17074347104E+03  0.20152080090E+03  0.00000000000E+00 0. -1.
         -5    1    5    5    0  502  0.20092309512E+02 -0.49248332613E+02 -0.11554127188E+03  0.12728304944E+03  0.47000000000E+01 0.  1.
         11    1    6    6    0    0 -0.11957453886E+02  0.29156850006E+02 -0.21661743544E+03  0.21889772941E+03  0.00000000000E+00 0. -1.
        -12    1    6    6    0    0  0.64176508225E+02  0.71622342904E+02 -0.25136235381E+03  0.26913085502E+03  0.00000000000E+00 0.  1.
</event>
<event>
12    1  0.8691829E-002  0.2094104E+03  0.7818608E-02  0.1145413E+00
         21   -1    0    0  503  502  0.00000000000E+00  0.00000000000E+00  0.11533275083E+04  0.11533275083E+04  0.00000000000E+00 0. -1.
         21   -1    0    0  501  503 -0.00000000000E+00 -0.00000000000E+00 -0.41066315484E+02  0.41066315484E+02  0.00000000000E+00 0.  1.
          6    2    1    2  501    0 -0.92151464687E+02 -0.67978695659E+02  0.34834637956E+03  0.40644548303E+03  0.17532750789E+03 0.  0.
         24    2    3    3    0    0 -0.12557623837E+03 -0.85506389068E+02  0.27884824735E+03  0.32722101767E+03  0.78971609722E+02 0.  0.
         -6    2    1    2    0  502  0.92151464687E+02  0.67978695659E+02  0.76391481327E+03  0.78794834076E+03  0.15551125446E+03 0.  0.
        -24    2    5    5    0    0  0.10116838346E+02  0.71615736979E+02  0.39686596001E+03  0.41179696343E+03  0.82722334792E+02 0.  0.
          5    1    3    3  501    0  0.33424773681E+02  0.17527693409E+02  0.69498132206E+02  0.79224465363E+02  0.47000000000E+01 0. -1.
        -11    1    4    4    0    0 -0.12754179607E+02  0.14577621060E+02  0.44557349061E+02  0.48585321740E+02  0.00000000000E+00 0.  1.
         12    1    4    4    0    0 -0.11282205876E+03 -0.10008401013E+03  0.23429089829E+03  0.27863569593E+03  0.00000000000E+00 0. -1.
         -5    1    5    5    0  502  0.82034626341E+02 -0.36370413200E+01  0.36704885326E+03  0.37615137733E+03  0.47000000000E+01 0.  1.
         13    1    6    6    0    0  0.67542108421E+01  0.89825107195E+02  0.30231092697E+03  0.31544582073E+03  0.00000000000E+00 0. -1.
        -14    1    6    6    0    0  0.33626275039E+01 -0.18209370216E+02  0.94555033039E+02  0.96351142704E+02  0.00000000000E+00 0.  1.
</event>
<event>
12    1  0.8691829E-002  0.2006464E+03  0.7818608E-02  0.1150616E+00
         21   -1    0    0  501  502  0.00000000000E+00  0.00000000000E+00  0.14989546538E+03  0.14989546538E+03  0.00000000000E+00 0. -1.
         21   -1    0    0  502  503 -0.00000000000E+00 -0.00000000000E+00 -0.32843893626E+03  0.32843893626E+03  0.00000000000E+00 0. -1.
         -6    2    1    2    0  503  0.85473202817E+02 -0.28868254691E+02  0.18894496550E+02  0.20153405098E+03  0.17922033137E+03 0.  0.
        -24    2    3    3    0    0  0.11509778878E+03 -0.59210676152E+02  0.37649518852E+02  0.15492804820E+03  0.76366279839E+02 0.  0.
          6    2    1    2  501    0 -0.85473202817E+02  0.28868254691E+02 -0.19743796744E+03  0.27680035066E+03  0.17174876596E+03 0.  0.
         24    2    5    5    0    0 -0.98310915177E+02  0.46811971786E+02 -0.80057439682E+02  0.15727185139E+03  0.80429129333E+02 0.  0.
          5    1    5    5  501    0  0.12837712361E+02 -0.17943717094E+02 -0.11738052775E+03  0.11952849927E+03  0.47000000000E+01 0. -1.
        -11    1    6    6    0    0 -0.34820925564E+02 -0.22133746546E+02 -0.19095743341E+02  0.45464788651E+02  0.00000000000E+00 0.  1.
         12    1    6    6    0    0 -0.63489989613E+02  0.68945718332E+02 -0.60961696341E+02  0.11180706274E+03  0.00000000000E+00 0. -1.
         -5    1    3    3    0  503 -0.29624585963E+02  0.30342421461E+02 -0.18755022302E+02  0.46606002780E+02  0.47000000000E+01 0.  1.
         11    1    4    4    0    0  0.51355916555E+02 -0.31001601183E+02 -0.21280842308E+02  0.63650637785E+02  0.00000000000E+00 0. -1.
        -12    1    4    4    0    0  0.63741872225E+02 -0.28209074969E+02  0.58930361160E+02  0.91277410413E+02  0.00000000000E+00 0.  1.
</event>
<event>
12    1  0.8691829E-002  0.2281028E+03  0.7818608E-02  0.1128081E+00
         21   -1    0    0  503  502  0.00000000000E+00  0.00000000000E+00  0.59547703183E+03  0.59547703183E+03  0.00000000000E+00 0. -1.
         21   -1    0    0  501  503 -0.00000000000E+00 -0.00000000000E+00 -0.18202811453E+03  0.18202811453E+03  0.00000000000E+00 0. -1.
          6    2    1    2  501    0 -0.12208899552E+03  0.84705197873E+02 -0.74036558030E+02  0.23929237662E+03  0.17233321274E+03 0.  0.
         24    2    3    3    0    0 -0.11111797615E+02 -0.16828875614E+02 -0.29142443090E+02  0.82248821869E+02  0.74221988716E+02 0.  0.
         -6    2    1    2    0  502  0.12208899552E+03 -0.84705197873E+02  0.48748547533E+03  0.53821276974E+03  0.17306127088E+03 0.  0.
        -24    2    5    5    0    0  0.64681064241E+02 -0.40200549157E+02  0.43377195973E+03  0.44774970496E+03  0.80758659109E+02 0.  0.
          5    1    3    3  501    0 -0.11097719791E+03  0.10153407349E+03 -0.44894114939E+02  0.15704355476E+03  0.47000000000E+01 0. -1.
        -13    1    4    4    0    0  0.27006572530E+02  0.10772112544E+02 -0.16860895230E+02  0.33610759534E+02  0.00000000000E+00 0.  1.
         14    1    4    4    0    0 -0.38118370146E+02 -0.27600988158E+02 -0.12281547860E+02  0.48638062335E+02  0.00000000000E+00 0. -1.
         -5    1    5    5    0  502  0.57407931281E+02 -0.44504648716E+02  0.53713515601E+02  0.90463064781E+02  0.47000000000E+01 0.  1.
         11    1    6    6    0    0  0.24930997620E+02 -0.60255061462E+02  0.22364581322E+03  0.23295853031E+03  0.00000000000E+00 0. -1.
        -12    1    6    6    0    0  0.39750066621E+02  0.20054512306E+02  0.21012614651E+03  0.21479117465E+03  0.00000000000E+00 0.  1.
</event>
<event>
12    1  0.8691829E-002  0.1962561E+03  0.7818608E-02  0.1153582E+00
         21   -1    0    0  503  502  0.00000000000E+00  0.00000000000E+00  0.19547541448E+04  0.19547541448E+04  0.00000000000E+00 0.  1.
         21   -1    0    0  501  503 -0.00000000000E+00 -0.00000000000E+00 -0.73570353986E+02  0.73570353986E+02  0.00000000000E+00 0. -1.
          6    2    1    2  501    0 -0.50028765677E+02  0.73403199780E+02  0.72312192191E+02  0.20915427734E+03  0.17500157559E+03 0.  0.
         24    2    3    3    0    0 -0.48267106543E+02 -0.13540845165E+02  0.76306082413E+02  0.12197393808E+03  0.80882354669E+02 0.  0.
         -6    2    1    2    0  502  0.50028765677E+02 -0.73403199780E+02  0.18088715986E+04  0.18191702214E+04  0.17167681015E+03 0.  0.
        -24    2    5    5    0    0 -0.12044515400E+02 -0.96465991150E+02  0.10636065684E+04  0.10709543169E+04  0.78952255795E+02 0.  0.
          5    1    3    3  501    0 -0.17616591335E+01  0.86944044945E+02 -0.39938902219E+01  0.87180339259E+02  0.47000000000E+01 0. -1.
        -13    1    4    4    0    0 -0.44712546468E+02  0.19198309684E+02  0.74512195095E+02  0.88993562263E+02  0.00000000000E+00 0.  1.
         14    1    4    4    0    0 -0.35545600750E+01 -0.32739154849E+02  0.17938873176E+01  0.32980375821E+02  0.00000000000E+00 0. -1.
         -5    1    5    5    0  502  0.62073281077E+02  0.23062791370E+02  0.74526503021E+03  0.74821590455E+03  0.47000000000E+01 0.  1.
         11    1    6    6    0    0  0.18229865369E+02 -0.34636625628E+02  0.15957277679E+03  0.16430305815E+03  0.00000000000E+00 0. -1.
        -12    1    6    6    0    0 -0.30274380770E+02 -0.61829365522E+02  0.90403379161E+03  0.90665125872E+03  0.00000000000E+00 0.  1.
</event>
<event>
12    1  0.8691829E-002  0.1726510E+03  0.7818608E-02  0.1176153E+00
         21   -1    0    0  501  502  0.00000000000E+00  0.00000000000E+00  0.81230057622E+03  0.81230057622E+03  0.00000000000E+00 0. -1.
         21   -1    0    0  502  503 -0.00000000000E+00 -0.00000000000E+00 -0.91981433827E+02  0.91981433827E+02  0.00000000000E+00 0. -1.
         -6    2    1    2    0  503 -0.11498959102E+02  0.26681039114E+01  0.86056625913E+01  0.17286538004E+03  0.17224702420E+03 0.  0.
        -24    2    3    3    0    0  0.60570101011E+01  0.62403398832E+02 -0.30383487783E+02  0.99253143548E+02  0.70690583653E+02 0.  0.
          6    2    1    2  501    0  0.11498959102E+02 -0.26681039114E+01  0.71171347980E+03  0.73141663001E+03  0.16821077399E+03 0.  0.
         24    2    5    5    0    0  0.39340132861E+02  0.54064519060E+02  0.48434619426E+03  0.49538338236E+03  0.79641957171E+02 0.  0.
          5    1    5    5  501    0 -0.27841173759E+02 -0.56732622972E+02  0.22736728554E+03  0.23603324765E+03  0.47000000000E+01 0. -1.
        -11    1    6    6    0    0  0.39231061322E+02  0.10691234678E+02  0.38291307311E+03  0.38506596867E+03  0.00000000000E+00 0.  1.
         12    1    6    6    0    0  0.10907153875E+00  0.43373284383E+02  0.10143312115E+03  0.11031741368E+03  0.00000000000E+00 0. -1.
         -5    1    3    3    0  503 -0.17555969203E+02 -0.59735294920E+02  0.38989150374E+02  0.73612236488E+02  0.47000000000E+01 0.  1.
         13    1    4    4    0    0  0.29604603706E+02  0.50078898919E+01 -0.20686927699E+02  0.36461767640E+02  0.00000000000E+00 0. -1.
        -14    1    4    4    0    0 -0.23547593605E+02  0.57395508940E+02 -0.96965600832E+01  0.62791375909E+02  0.00000000000E+00 0.  1.
</event>
<event>
12    1  0.8691829E-002  0.2335367E+03  0.7818608E-02  0.1124307E+00
         21   -1    0    0  501  502  0.00000000000E+00  0.00000000000E+00  0.12231546464E+03  0.12231546464E+03  0.00000000000E+00 0.  1.
         21   -1    0    0  502  503 -0.00000000000E+00 -0.00000000000E+00 -0.47952362121E+03  0.47952362121E+03  0.00000000000E+00 0. -1.
         -6    2    1    2    0  503 -0.65163423583E+02 -0.14362463810E+03 -0.25973658793E+03  0.34877766583E+03  0.17119712798E+03 0.  0.
        -24    2    3    3    0    0 -0.91940012368E+02 -0.15914364985E+03 -0.21436381285E+03  0.29365413047E+03  0.80630248146E+02 0.  0.
          6    2    1    2  501    0  0.65163423583E+02  0.14362463810E+03 -0.97471568638E+02  0.25306142002E+03  0.17223549914E+03 0.  0.
         24    2    5    5    0    0  0.66777431948E+02  0.76413674932E+02  0.44368857169E+01  0.13088391938E+03  0.82538713720E+02 0.  0.
          5    1    5    5  501    0 -0.16140083655E+01  0.67210963168E+02 -0.10190845436E+03  0.12217750064E+03  0.47000000000E+01 0. -1.
        -13    1    6    6    0    0 -0.12121900844E+02  0.42719027635E+02 -0.44692135981E+01  0.44629919026E+02  0.00000000000E+00 0.  1.
         14    1    6    6    0    0  0.78899332792E+02  0.33694647297E+02  0.89060993150E+01  0.86254000351E+02  0.00000000000E+00 0. -1.
         -5    1    3    3    0  503  0.26776588785E+02  0.15519011754E+02 -0.45372775079E+02  0.55123535365E+02  0.47000000000E+01 0.  1.
         13    1    4    4    0    0 -0.89983093390E+02 -0.11223342943E+03 -0.19625999601E+03  0.24333369231E+03  0.00000000000E+00 0. -1.
        -14    1    4    4    0    0 -0.19569189782E+01 -0.46910220425E+02 -0.18103816838E+02  0.50320438157E+02  0.00000000000E+00 0.  1.
</event>
<event>
12    1  0.8691829E-002  0.1920669E+03  0.7818608E-02  0.1156875E+00
         21   -1    0    0  501  502  0.00000000000E+00  0.00000000000E+00  0.81686173040E+03  0.81686173040E+03  0.00000000000E+00 0. -1.
         21   -1    0    0  502  503 -0.00000000000E+00 -0.00000000000E+00 -0.63300709543E+02  0.63300709543E+02  0.00000000000E+00 0. -1.
         -6    2    1    2    0  503  0.82557704286E+02  0.93638036928E+00  0.13856537875E+03  0.23587263504E+03  0.17210137834E+03 0.  0.
        -24    2    3    3    0    0  0.82425238549E+02 -0.36550639737E+02  0.34734574054E+02  0.12538181991E+03  0.79901445001E+02 0.  0.
          6    2    1    2  501    0 -0.82557704286E+02 -0.93638036928E+00  0.61499564210E+03  0.64428980491E+03  0.17341586304E+03 0.  0.
         24    2    5    5    0    0 -0.41741051698E+02 -0.67737543653E+02  0.32304210142E+03  0.34198639033E+03  0.79169449077E+02 0.  0.
          5    1    5    5  501    0 -0.40816652587E+02  0.66801163283E+02  0.29195354069E+03  0.30230341457E+03  0.47000000000E+01 0. -1.
        -11    1    6    6    0    0 -0.21921391147E+02 -0.38976709328E+02  0.51493100366E+02  0.68200224671E+02  0.00000000000E+00 0.  1.
         12    1    6    6    0    0 -0.19819660551E+02 -0.28760834325E+02  0.27154900105E+03  0.27378616566E+03  0.00000000000E+00 0. -1.
         -5    1    3    3    0  503  0.13246573674E+00  0.37487020106E+02  0.10383080470E+03  0.11049081513E+03  0.47000000000E+01 0.  1.
         13    1    4    4    0    0  0.90404654628E+02 -0.19582789312E+02  0.46207042972E+02  0.10340008721E+03  0.00000000000E+00 0. -1.
        -14    1    4    4    0    0 -0.79794160796E+01 -0.16967850426E+02 -0.11472468918E+02  0.21981732691E+02  0.00000000000E+00 0.  1.
</event>
<event>
12    1  0.8691829E-002  0.2537840E+03  0.7818608E-02  0.1111701E+00
         21   -1    0    0  501  502  0.00000000000E+00  0.00000000000E+00  0.26209980988E+03  0.26209980988E+03  0.00000000000E+00 0.  1.
         21   -1    0    0  502  503 -0.00000000000E+00 -0.00000000000E+00 -0.24104839014E+03  0.24104839014E+03  0.00000000000E+00 0. -1.
         -6    2    1    2    0  503 -0.17780391188E+03  0.30327069284E+02  0.12641326973E+02  0.24922491369E+03  0.17152053009E+03 0.  0.
        -24    2    3    3    0    0 -0.12901029445E+03  0.17237770390E+02 -0.56959133387E+02  0.16309442588E+03  0.80091523114E+02 0.  0.
          6    2    1    2  501    0  0.17780391188E+03 -0.30327069284E+02  0.84100927642E+01  0.25392328633E+03  0.17852827079E+03 0.  0.
         24    2    5    5    0    0  0.12108990835E+03 -0.87095994912E+02 -0.13789816884E+02  0.17053194925E+03  0.81501585441E+02 0.  0.
          5    1    5    5  501    0  0.56714003527E+02  0.56768925628E+02  0.22199909648E+02  0.83391337089E+02  0.47000000000E+01 0. -1.
        -13    1    6    6    0    0  0.95375008170E+02 -0.26350108125E+02  0.12066144205E+02  0.99681052450E+02  0.00000000000E+00 0.  1.
         14    1    6    6    0    0  0.25714900182E+02 -0.60745886787E+02 -0.25855961089E+02  0.70850896795E+02  0.00000000000E+00 0. -1.
         -5    1    3    3    0  503 -0.48793617426E+02  0.13089298894E+02  0.69600460360E+02  0.86130487804E+02  0.47000000000E+01 0.  1.
         13    1    4    4    0    0 -0.10153365554E+03 -0.17932085859E+02 -0.58295070331E+02  0.11844390291E+03  0.00000000000E+00 0. -1.
        -14    1    4    4    0    0 -0.27476638911E+02  0.35169856249E+02  0.13359369441E+01  0.44650522974E+02  0.00000000000E+00 0.  1.
</event>
<event>
12    1  0.8691829E-002  0.1975982E+03  0.7818608E-02  0.1153010E+00
         21   -1    0    0  503  502  0.00000000000E+00  0.00000000000E+00  0.74671686351E+03  0.74671686351E+03  0.00000000000E+00 0. -1.
         21   -1    0    0  501  503 -0.00000000000E+00 -0.00000000000E+00 -0.90384117808E+02  0.90384117808E+02  0.00000000000E+00 0. -1.
          6    2    1    2  501    0 -0.80917186191E+02  0.53150608268E+02  0.53886321408E+02  0.20481403399E+03  0.17225700190E+03 0.  0.
         24    2    3    3    0    0 -0.59207423843E+01  0.33086373698E+02  0.84827035205E+02  0.12110944712E+03  0.79637359102E+02 0.  0.
         -6    2    1    2    0  502  0.80917186191E+02 -0.53150608268E+02  0.60244642430E+03  0.63228694733E+03  0.16574833767E+03 0.  0.
        -24    2    5    5    0    0  0.89052972720E+02 -0.73122092615E+02  0.59093627368E+03  0.60739468395E+03  0.80282938103E+02 0.  0.
          5    1    3    3  501    0 -0.74996443806E+02  0.20064234570E+02 -0.30940713796E+02  0.83704586868E+02  0.47000000000E+01 0. -1.
        -13    1    4    4    0    0  0.10063034116E+02 -0.22647313438E+02  0.10683084180E+02  0.26986918112E+02  0.00000000000E+00 0.  1.
         14    1    4    4    0    0 -0.15983776501E+02  0.55733687136E+02  0.74143951024E+02  0.94122529006E+02  0.00000000000E+00 0. -1.
         -5    1    5    5    0  502 -0.81357865299E+01  0.19971484347E+02  0.11510150611E+02  0.24892263388E+02  0.47000000000E+01 0.  1.
         11    1    6    6    0    0  0.10216364929E+03 -0.52981847392E+02  0.45359628379E+03  0.46796802888E+03  0.00000000000E+00 0. -1.
        -12    1    6    6    0    0 -0.13110676566E+02 -0.20140245222E+02  0.13733998990E+03  0.13942665507E+03  0.00000000000E+00 0.  1.
</event>
<event>
12    1  0.8691829E-002  0.2243339E+03  0.7818608E-02  0.1130890E+00
         21   -1    0    0  503  502  0.00000000000E+00  0.00000000000E+00  0.24577043046E+03  0.24577043046E+03  0.00000000000E+00 0. -1.
         21   -1    0    0  501  503 -0.00000000000E+00 -0.00000000000E+00 -0.35242701655E+03  0.35242701655E+03  0.00000000000E+00 0.  1.
          6    2    1    2  501    0  0.13471661603E+03  0.47959122188E+02 -0.24765332397E+03  0.33415246490E+03  0.17284981022E+03 0.  0.
         24    2    3    3    0    0  0.20196557672E+02 -0.33308332023E+02 -0.10950252757E+03  0.13710684728E+03  0.72733335564E+02 0.  0.
         -6    2    1    2    0  502 -0.13471661603E+03 -0.47959122188E+02  0.14099673788E+03  0.26404498210E+03  0.17143811842E+03 0.  0.
        -24    2    5    5    0    0 -0.10724556436E+03 -0.89246905268E+02  0.14143830472E+03  0.21422907408E+03  0.80141630650E+02 0.  0.
          5    1    3    3  501    0  0.11452005835E+03  0.81267454210E+02 -0.13815079640E+03  0.19704561763E+03  0.47000000000E+01 0. -1.
        -13    1    4    4    0    0 -0.22059524689E+02 -0.10539871423E+01 -0.98916683122E+01  0.24198731793E+02  0.00000000000E+00 0.  1.
         14    1    4    4    0    0  0.42256082361E+02 -0.32254344880E+02 -0.99610859260E+02  0.11290811549E+03  0.00000000000E+00 0. -1.
         -5    1    5    5    0  502 -0.27471051662E+02  0.41287783080E+02 -0.44156683890E+00  0.49815908025E+02  0.47000000000E+01 0.  1.
         13    1    6    6    0    0 -0.10028782976E+03 -0.98933624765E+02  0.14461305091E+03  0.20188720960E+03  0.00000000000E+00 0. -1.
        -14    1    6    6    0    0 -0.69577346066E+01  0.96867194972E+01 -0.31747461894E+01  0.12341864480E+02  0.00000000000E+00 0.  1.
</event>
<event>
12    1  0.8691829E-002  0.2700355E+03  0.7818608E-02  0.1101813E+00
         21   -1    0    0  503  502  0.00000000000E+00  0.00000000000E+00  0.18295806866E+03  0.18295806866E+03  0.00000000000E+00 0.  1.
         21   -1    0    0  501  503 -0.00000000000E+00 -0.00000000000E+00 -0.44227803989E+03  0.44227803989E+03  0.00000000000E+00 0.  1.
          6    2    1    2  501    0  0.19732906628E+03 -0.42293307423E+02 -0.23328017940E+03  0.35394802081E+03  0.17358592995E+03 0.  0.
         24    2    3    3    0    0  0.20282918625E+03  0.57268607385E+01 -0.19262300490E+03  0.29061332487E+03  0.78613019586E+02 0.  0.
         -6    2    1    2    0  502 -0.19732906628E+03  0.42293307423E+02 -0.26039791829E+02  0.27128808774E+03  0.17942037660E+03 0.  0.
        -24    2    5    5    0    0 -0.12856635441E+02  0.22425445212E+02  0.39635404821E+01  0.83279844199E+02  0.79067244349E+02 0.  0.
          5    1    3    3  501    0 -0.55001199693E+01 -0.48020168162E+02 -0.40657174506E+02  0.63334695932E+02  0.47000000000E+01 0. -1.
        -11    1    4    4    0    0  0.16324561784E+02  0.18968334091E+02 -0.45919066007E+01  0.25443557570E+02  0.00000000000E+00 0.  1.
         12    1    4    4    0    0  0.18650462447E+03 -0.13241473352E+02 -0.18803109830E+03  0.26516976730E+03  0.00000000000E+00 0. -1.
         -5    1    5    5    0  502 -0.18447243084E+03  0.19867862211E+02 -0.30003332311E+02  0.18800824354E+03  0.47000000000E+01 0.  1.
         11    1    6    6    0    0  0.80137139812E+00 -0.19774399654E+02 -0.23799125749E+02  0.30952664897E+02  0.00000000000E+00 0. -1.
        -12    1    6    6    0    0 -0.13658006839E+02  0.42199844866E+02  0.27762666231E+02  0.52327179303E+02  0.00000000000E+00 0.  1.
</event>
<event>
12    1  0.8691829E-002  0.1860499E+03  0.7818608E-02  0.1163095E+00
         21   -1    0    0  503  502  0.00000000000E+00  0.00000000000E+00  0.18737983126E+03  0.18737983126E+03  0.00000000000E+00 0.  1.
         21   -1    0    0  501  503 -0.00000000000E+00 -0.00000000000E+00 -0.21799292264E+03  0.21799292264E+03  0.00000000000E+00 0.  1.
          6    2    1    2  501    0  0.27406222777E+02  0.64078037261E+02 -0.99284142588E+02  0.20705415301E+03  0.16780043326E+03 0.  0.
         24    2    3    3    0    0  0.38490350046E+02  0.86301172182E+02 -0.21136390668E+02  0.12492080574E+03  0.78924402623E+02 0.  0.
         -6    2    1    2    0  502 -0.27406222777E+02 -0.64078037261E+02  0.68671051213E+02  0.19831860089E+03  0.17250350222E+03 0.  0.
        -24    2    5    5    0    0  0.85569688533E+01 -0.78674992717E+02  0.98069858600E+02  0.14940232408E+03  0.80251984903E+02 0.  0.
          5    1    3    3  501    0 -0.11084127268E+02 -0.22223134921E+02 -0.78147751920E+02  0.82133347267E+02  0.47000000000E+01 0. -1.
        -11    1    4    4    0    0  0.63744091278E+01  0.31813646261E+02  0.29537050185E+02  0.43876856243E+02  0.00000000000E+00 0.  1.
         12    1    4    4    0    0  0.32115940918E+02  0.54487525921E+02 -0.50673440853E+02  0.81043949496E+02  0.00000000000E+00 0. -1.
         -5    1    5    5    0  502 -0.35963191631E+02  0.14596955455E+02 -0.29398807387E+02  0.48916276807E+02  0.47000000000E+01 0.  1.
         13    1    6    6    0    0  0.35418919712E+02 -0.77521308494E+02  0.80831709371E+02  0.11746411530E+03  0.00000000000E+00 0. -1.
        -14    1    6    6    0    0 -0.26861950859E+02 -0.11536842222E+01  0.17238149230E+02  0.31938208781E+02  0.00000000000E+00 0.  1.
</event>
<event>
12    1  0.8691829E-002  0.1922122E+03  0.7818608E-02  0.1157022E+00
         21   -1    0    0  501  502  0.00000000000E+00  0.00000000000E+00  0.62223541018E+02  0.62223541018E+02  0.00000000000E+00 0. -1.
         21   -1    0    0  502  503 -0.00000000000E+00 -0.00000000000E+00 -0.58973067468E+03  0.58973067468E+03  0.00000000000E+00 0. -1.
         -6    2    1    2    0  503 -0.75522346352E+02 -0.42090450849E+02 -0.24058805978E+03  0.30794178338E+03  0.17166914863E+03 0.  0.
        -24    2    3    3    0    0 -0.90490587776E+02 -0.28723819396E+02 -0.25442274269E+03  0.28311833601E+03  0.80071567453E+02 0.  0.
          6    2    1    2  501    0  0.75522346352E+02  0.42090450849E+02 -0.28691907389E+03  0.34401243233E+03  0.16895788760E+03 0.  0.
         24    2    5    5    0    0 -0.74806090587E+01 -0.26123784620E+02 -0.12931471657E+03  0.15321438209E+03  0.77549592669E+02 0.  0.
          5    1    5    5  501    0  0.83002955411E+02  0.68214235469E+02 -0.15760435732E+03  0.19079805024E+03  0.47000000000E+01 0. -1.
        -11    1    6    6    0    0 -0.32747280114E+02 -0.78128944396E+01 -0.11318933470E+03  0.11809001297E+03  0.00000000000E+00 0.  1.
         12    1    6    6    0    0  0.25266671055E+02 -0.18310890181E+02 -0.16125381870E+02  0.35124369117E+02  0.00000000000E+00 0. -1.
         -5    1    3    3    0  503  0.14968241423E+02 -0.13366631452E+02  0.13834682911E+02  0.24823447362E+02  0.47000000000E+01 0.  1.
         13    1    4    4    0    0 -0.46339155180E+02  0.24898376539E+02 -0.13612496204E+03  0.14593577953E+03  0.00000000000E+00 0. -1.
        -14    1    4    4    0    0 -0.44151432595E+02 -0.53622195935E+02 -0.11829778065E+03  0.13718255648E+03  0.00000000000E+00 0.  1.
</event>
<event>
12    1  0.8691829E-002  0.1793873E+03  0.7818608E-02  0.1168998E+00
         21   -1    0    0  503  502  0.00000000000E+00  0.00000000000E+00  0.28757619016E+03  0.28757619016E+03  0.00000000000E+00 0. -1.
         21   -1    0    0  501  503 -0.00000000000E+00 -0.00000000000E+00 -0.12881307331E+03  0.12881307331E+03  0.00000000000E+00 0. -1.
          6    2    1    2  501    0 -0.39179218104E+01 -0.43130924858E+02  0.10853187328E+01  0.17939058216E+03  0.17408094743E+03 0.  0.
         24    2    3    3    0    0  0.25193889425E+02 -0.41835665712E+01  0.59814429467E+02  0.10299953086E+03  0.79868035475E+02 0.  0.
         -6    2    1    2    0  502  0.39179218104E+01  0.43130924858E+02  0.15767779811E+03  0.23699868132E+03  0.17155308257E+03 0.  0.
        -24    2    5    5    0    0  0.49440286870E+02  0.64357909327E+02  0.68074856455E+02  0.13417043742E+03  0.82348270996E+02 0.  0.
          5    1    3    3  501    0 -0.29111811236E+02 -0.38947358286E+02 -0.58729110734E+02  0.76391051299E+02  0.47000000000E+01 0. -1.
        -11    1    4    4    0    0 -0.79803485510E+00 -0.18937281946E+02  0.69140083884E+02  0.71691064343E+02  0.00000000000E+00 0.  1.
         12    1    4    4    0    0  0.25991924280E+02  0.14753715375E+02 -0.93256544173E+01  0.31308466514E+02  0.00000000000E+00 0. -1.
         -5    1    5    5    0  502 -0.45522365060E+02 -0.21226984469E+02  0.89602941656E+02  0.10282824390E+03  0.47000000000E+01 0.  1.
         13    1    6    6    0    0 -0.24678568119E+00  0.55194608802E+02  0.62430618621E+02  0.83331193952E+02  0.00000000000E+00 0. -1.
        -14    1    6    6    0    0  0.49687072551E+02  0.91633005252E+01  0.56442378337E+01  0.50839243464E+02  0.00000000000E+00 0.  1.
</event>
<event>
12    1  0.8691829E-002  0.1887453E+03  0.7818608E-02  0.1159639E+00
         21   -1    0    0  503  502  0.00000000000E+00  0.00000000000E+00  0.64350362803E+02  0.64350362803E+02  0.00000000000E+00 0. -1.
         21   -1    0    0  501  503 -0.00000000000E+00 -0.00000000000E+00 -0.75505644102E+03  0.75505644102E+03  0.00000000000E+00 0.  1.
          6    2    1    2  501    0  0.78917103311E+02  0.51041274337E+01 -0.55737402948E+03  0.58846459686E+03  0.17137914608E+03 0.  0.
         24    2    3    3    0    0  0.70655514830E+02  0.64748931552E+02 -0.31345864543E+03  0.33718276091E+03  0.79064947662E+02 0.  0.
         -6    2    1    2    0  502 -0.78917103311E+02 -0.51041274337E+01 -0.13333204873E+03  0.23094220696E+03  0.17118091723E+03 0.  0.
        -24    2    5    5    0    0  0.13013086758E+02 -0.15104721320E+02 -0.10071711241E+03  0.13277400541E+03  0.84187331270E+02 0.  0.
          5    1    3    3  501    0  0.82615884804E+01 -0.59644804118E+02 -0.24391538405E+03  0.25128183595E+03  0.47000000000E+01 0. -1.
        -11    1    4    4    0    0  0.23262062456E+02  0.70122514843E+02 -0.22299557112E+03  0.23491554946E+03  0.00000000000E+00 0.  1.
         12    1    4    4    0    0  0.47393452374E+02 -0.53735832907E+01 -0.90463074314E+02  0.10226721146E+03  0.00000000000E+00 0. -1.
         -5    1    5    5    0  502 -0.91930190068E+02  0.10000593887E+02 -0.32614936322E+02  0.98168201549E+02  0.47000000000E+01 0.  1.
         13    1    6    6    0    0 -0.10243789687E+02  0.22651928938E+02 -0.24701297898E+01  0.24982927229E+02  0.00000000000E+00 0. -1.
        -14    1    6    6    0    0  0.23256876444E+02 -0.37756650258E+02 -0.98246982620E+02  0.10779107818E+03  0.00000000000E+00 0.  1.
</event>
<event>
12    1  0.8691829E-002  0.1807857E+03  0.7818608E-02  0.1167052E+00
         21   -1    0    0  503  502  0.00000000000E+00  0.00000000000E+00  0.61138596677E+02  0.61138596677E+02  0.00000000000E+00 0. -1.
         21   -1    0    0  501  503 -0.00000000000E+00 -0.00000000000E+00 -0.57682914795E+03  0.57682914795E+03  0.00000000000E+00 0. -1.
          6    2    1    2  501    0  0.74841527428E+01  0.56768191988E+02 -0.34423952973E+03  0.38881135788E+03  0.17144905373E+03 0.  0.
         24    2    3    3    0    0  0.52517164010E+02  0.77026276086E+02 -0.29278327382E+03  0.31733969673E+03  0.79317954909E+02 0.  0.
         -6    2    1    2    0  502 -0.74841527428E+01 -0.56768191988E+02 -0.17145102154E+03  0.24915638674E+03  0.17147831380E+03 0.  0.
        -24    2    5    5    0    0  0.28096135829E+02  0.13615887425E+02 -0.13870524786E+03  0.16363299074E+03  0.81005090179E+02 0.  0.
          5    1    3    3  501    0 -0.45033011268E+02 -0.20258084098E+02 -0.51456255915E+02  0.71471661153E+02  0.47000000000E+01 0. -1.
        -13    1    4    4    0    0  0.10501859286E+02 -0.16164355047E+02 -0.33777111687E+02  0.38890470509E+02  0.00000000000E+00 0.  1.
         14    1    4    4    0    0  0.42015304724E+02  0.93190631133E+02 -0.25900616213E+03  0.27844922622E+03  0.00000000000E+00 0. -1.
         -5    1    5    5    0  502 -0.35580288572E+02 -0.70384079413E+02 -0.32745773675E+02  0.85523395999E+02  0.47000000000E+01 0.  1.
         11    1    6    6    0    0  0.49914064361E+02  0.94466219726E+01 -0.46766465559E+02  0.69048930394E+02  0.00000000000E+00 0. -1.
        -12    1    6    6    0    0 -0.21817928533E+02  0.41692654528E+01 -0.91938782305E+02  0.94584060346E+02  0.00000000000E+00 0.  1.
</event>
<event>
12    1  0.8691829E-002  0.2318817E+03  0.7818608E-02  0.1125535E+00
         21   -1    0    0  503  502  0.00000000000E+00  0.00000000000E+00  0.89313785067E+03  0.89313785067E+03  0.00000000000E+00 0. -1.
         21   -1    0    0  501  503 -0.00000000000E+00 -0.00000000000E+00 -0.75694033754E+02  0.75694033754E+02  0.00000000000E+00 0. -1.
          6    2    1    2  501    0 -0.15496421788E+03 -0.19296904414E+01  0.18820428462E+03  0.29864692604E+03  0.17248623468E+03 0.  0.
         24    2    3    3    0    0 -0.68342578796E+01 -0.10022335389E+02  0.90468223426E+02  0.12093253830E+03  0.79328589307E+02 0.  0.
         -6    2    1    2    0  502  0.15496421788E+03  0.19296904414E+01  0.62923953230E+03  0.67018495838E+03  0.17084454017E+03 0.  0.
        -24    2    5    5    0    0  0.13681100859E+03 -0.54635241408E+02  0.44229012876E+03  0.47396747699E+03  0.85570728444E+02 0.  0.
          5    1    3    3  501    0 -0.14812996001E+03  0.80926449479E+01  0.97736061189E+02  0.17771438774E+03  0.47000000000E+01 0. -1.
        -13    1    4    4    0    0 -0.35747250182E+02 -0.24657390507E+02  0.70703117034E+02  0.82974595875E+02  0.00000000000E+00 0.  1.
         14    1    4    4    0    0  0.28912992303E+02  0.14635055118E+02  0.19765106392E+02  0.37957942422E+02  0.00000000000E+00 0. -1.
         -5    1    5    5    0  502  0.18153209295E+02  0.56564931850E+02  0.18694940354E+03  0.19621748140E+03  0.47000000000E+01 0.  1.
         13    1    6    6    0    0  0.11957907725E+03 -0.11876517425E+02  0.36150447051E+03  0.38095365805E+03  0.00000000000E+00 0. -1.
        -14    1    6    6    0    0  0.17231931341E+02 -0.42758723983E+02  0.80785658252E+02  0.93013818939E+02  0.00000000000E+00 0.  1.
</event>
<event>
12    1  0.8691829E-002  0.1882451E+03  0.7818608E-02  0.1160432E+00
         21   -1    0    0  503  502  0.00000000000E+00  0.00000000000E+00  0.55346964011E+03  0.55346964011E+03  0.00000000000E+00 0. -1.
         21   -1    0    0  501  503 -0.00000000000E+00 -0.00000000000E+00 -0.19246533597E+03  0.19246533597E+03  0.00000000000E+00 0. -1.
          6    2    1    2  501    0  0.68951410758E+02  0.25524679431E+02 -0.12457814898E+03  0.22573416915E+03  0.17329279735E+03 0.  0.
         24    2    3    3    0    0 -0.21761310409E+02  0.42742335908E+02 -0.80517387725E+02  0.12331988226E+03  0.80151617112E+02 0.  0.
         -6    2    1    2    0  502 -0.68951410758E+02 -0.25524679431E+02  0.48558245312E+03  0.52020080694E+03  0.17150147071E+03 0.  0.
        -24    2    5    5    0    0  0.93485691873E+01 -0.60950604133E+02  0.25588495226E+03  0.27490727889E+03  0.79338082311E+02 0.  0.
          5    1    3    3  501    0  0.90712721167E+02 -0.17217656477E+02 -0.44060761255E+02  0.10241428689E+03  0.47000000000E+01 0. -1.
        -11    1    4    4    0    0 -0.50647197344E+01 -0.23739801685E+02 -0.15226544049E+02  0.28654444921E+02  0.00000000000E+00 0.  1.
         12    1    4    4    0    0 -0.16696590674E+02  0.66482137593E+02 -0.65290843676E+02  0.94665437341E+02  0.00000000000E+00 0. -1.
         -5    1    5    5    0  502 -0.78299979946E+02  0.35425924703E+02  0.22969750086E+03  0.24529352805E+03  0.47000000000E+01 0.  1.
         11    1    6    6    0    0  0.70218158665E+00 -0.35166098904E+02  0.24167862581E+03  0.24422470338E+03  0.00000000000E+00 0. -1.
        -12    1    6    6    0    0  0.86463876007E+01 -0.25784505229E+02  0.14206326450E+02  0.30682575506E+02  0.00000000000E+00 0.  1.
</event>
<event>
12    1  0.8691829E-002  0.2195836E+03  0.7818608E-02  0.1134676E+00
         21   -1    0    0  503  502  0.00000000000E+00  0.00000000000E+00  0.16535961609E+04  0.16535961609E+04  0.00000000000E+00 0.  1.
         21   -1    0    0  501  503 -0.00000000000E+00 -0.00000000000E+00 -0.30014738161E+02  0.30014738161E+02  0.00000000000E+00 0.  1.
          6    2    1    2  501    0 -0.13181510284E+03  0.11952557817E+02  0.63922303761E+03  0.67505828649E+03  0.17198695697E+03 0.  0.
         24    2    3    3    0    0 -0.14129250157E+03  0.18204224335E+02  0.64210543733E+03  0.66243677117E+03  0.78918428540E+02 0.  0.
         -6    2    1    2    0  502  0.13181510284E+03 -0.11952557817E+02  0.98435838514E+03  0.10085526126E+04  0.17521089287E+03 0.  0.
        -24    2    5    5    0    0  0.77060630137E+02  0.60614931562E+02  0.49731911342E+03  0.51307967186E+03  0.79447708934E+02 0.  0.
          5    1    3    3  501    0  0.94773987255E+01 -0.62516665177E+01 -0.28823997180E+01  0.12621515321E+02  0.47000000000E+01 0. -1.
        -11    1    4    4    0    0 -0.97952948713E+01  0.28790076279E+02  0.10078953500E+03  0.10527747460E+03  0.00000000000E+00 0.  1.
         12    1    4    4    0    0 -0.13149720670E+03 -0.10585851944E+02  0.54131590234E+03  0.55715929657E+03  0.00000000000E+00 0. -1.
         -5    1    5    5    0  502  0.54754472707E+02 -0.72567489379E+02  0.48703927173E+03  0.49547294073E+03  0.47000000000E+01 0.  1.
         13    1    6    6    0    0  0.73500784106E+02  0.11754854054E+02  0.35003596538E+03  0.35786270959E+03  0.00000000000E+00 0. -1.
        -14    1    6    6    0    0  0.35598460315E+01  0.48860077508E+02  0.14728314804E+03  0.15521696227E+03  0.00000000000E+00 0.  1.
</event>
<event>
12    1  0.8691829E-002  0.2270232E+03  0.7818608E-02  0.1128772E+00
         21   -1    0    0  503  502  0.00000000000E+00  0.00000000000E+00  0.14230663876E+03  0.14230663876E+03  0.00000000000E+00 0. -1.
         21   -1    0    0  501  503 -0.00000000000E+00 -0.00000000000E+00 -0.39760574999E+03  0.39760574999E+03  0.00000000000E+00 0.  1.
          6    2    1    2  501    0 -0.10679647896E+03  0.10223810018E+03 -0.20845931538E+03  0.30821231662E+03  0.17228299075E+03 0.  0.
         24    2    3    3    0    0 -0.83227773308E+02 -0.72939793835E-01 -0.65259968733E+02  0.13058581053E+03  0.76595840766E+02 0.  0.
         -6    2    1    2    0  502  0.10679647896E+03 -0.10223810018E+03 -0.46839795851E+02  0.23170007212E+03  0.17214191790E+03 0.  0.
        -24    2    5    5    0    0  0.70267134638E+02 -0.12184740699E+03  0.86116040681E+01  0.16230363372E+03  0.80523592765E+02 0.  0.
          5    1    3    3  501    0 -0.23568705652E+02  0.10231103998E+03 -0.14319934665E+03  0.17762650609E+03  0.47000000000E+01 0. -1.
        -13    1    4    4    0    0 -0.62646116312E+02 -0.21191921672E+02 -0.74561208995E+02  0.99664473710E+02  0.00000000000E+00 0.  1.
         14    1    4    4    0    0 -0.20581656996E+02  0.21118981878E+02  0.93012402618E+01  0.30921336819E+02  0.00000000000E+00 0. -1.
         -5    1    5    5    0  502  0.36529344321E+02  0.19609306811E+02 -0.55451399919E+02  0.69396438403E+02  0.47000000000E+01 0.  1.
         13    1    6    6    0    0  0.53203735333E+02 -0.64754422374E+02  0.42272113975E+02  0.93865351916E+02  0.00000000000E+00 0. -1.
        -14    1    6    6    0    0  0.17063399306E+02 -0.57092984621E+02 -0.33660509907E+02  0.68438281802E+02  0.00000000000E+00 0.  1.
</event>
<event>
12    1  0.8691829E-002  0.1825612E+03  0.7818608E-02  0.1165355E+00
         21   -1    0    0  503  502  0.00000000000E+00  0.00000000000E+00  0.47147487853E+03  0.47147487853E+03  0.00000000000E+00 0.  1.
         21   -1    0    0  501  503 -0.00000000000E+00 -0.00000000000E+00 -0.17963110231E+03  0.17963110231E+03  0.00000000000E+00 0.  1.
          6    2    1    2  501    0  0.55625462706E+02  0.23389851891E+02 -0.10762759694E+03  0.21189536323E+03  0.17226336831E+03 0.  0.
         24    2    3    3    0    0  0.64256662056E+02  0.51179821728E+02 -0.13119551839E+03  0.17415523940E+03  0.79809088411E+02 0.  0.
         -6    2    1    2    0  502 -0.55625462706E+02 -0.23389851891E+02  0.39947137316E+03  0.43921061761E+03  0.17230006203E+03 0.  0.
        -24    2    5    5    0    0 -0.81081629868E+02 -0.35538139424E+02  0.39147473713E+03  0.40951830338E+03  0.81336221570E+02 0.  0.
          5    1    3    3  501    0 -0.86311993492E+01 -0.27789969838E+02  0.23567921446E+02  0.37740123835E+02  0.47000000000E+01 0. -1.
        -13    1    4    4    0    0  0.14932348910E+02  0.51869227530E+02 -0.30428772515E+02  0.61962101363E+02  0.00000000000E+00 0.  1.
         14    1    4    4    0    0  0.49324313146E+02 -0.68940580205E+00 -0.10076674587E+03  0.11219313803E+03  0.00000000000E+00 0. -1.
         -5    1    5    5    0  502  0.25456167162E+02  0.12148287534E+02  0.79966360366E+01  0.29692314233E+02  0.47000000000E+01 0.  1.
         13    1    6    6    0    0  0.13100116779E+02  0.77916484883E+01  0.73720978836E+02  0.75280180435E+02  0.00000000000E+00 0. -1.
        -14    1    6    6    0    0 -0.94181746648E+02 -0.43329787913E+02  0.31775375829E+03  0.33423812295E+03  0.00000000000E+00 0.  1.
</event>
<event>
12    1  0.8691829E-002  0.1910671E+03  0.7818608E-02  0.1158143E+00
         21   -1    0    0  501  502  0.00000000000E+00  0.00000000000E+00  0.20930370122E+03  0.20930370122E+03  0.00000000000E+00 0.  1.
         21   -1    0    0  502  503 -0.00000000000E+00 -0.00000000000E+00 -0.25632535593E+03  0.25632535593E+03  0.00000000000E+00 0.  1.
         -6    2    1    2    0  503  0.60403534769E+02 -0.46566033985E+02 -0.15705219563E+03  0.24514466090E+03  0.17208582185E+03 0.  0.
        -24    2    3    3    0    0 -0.30185023753E+02 -0.83373209848E+01 -0.50124887555E+02  0.99806226050E+02  0.80424696616E+02 0.  0.
          6    2    1    2  501    0 -0.60403534769E+02  0.46566033985E+02  0.11003054091E+03  0.22048439625E+03  0.17518466406E+03 0.  0.
         24    2    5    5    0    0 -0.87346700781E+02  0.44483231599E+02  0.21178585038E+02  0.12749497576E+03  0.78728853346E+02 0.  0.
          5    1    5    5  501    0  0.26943166013E+02  0.20828023852E+01  0.88851955875E+02  0.92989420491E+02  0.47000000000E+01 0. -1.
        -13    1    6    6    0    0 -0.44790619251E+01  0.42418876092E+02  0.10395821010E+02  0.43903258867E+02  0.00000000000E+00 0.  1.
         14    1    6    6    0    0 -0.82867638856E+02  0.20643555074E+01  0.10782764028E+02  0.83591716894E+02  0.00000000000E+00 0. -1.
         -5    1    3    3    0  503  0.90588558521E+02 -0.38228713000E+02 -0.10692730807E+03  0.14533843485E+03  0.47000000000E+01 0.  1.
         13    1    4    4    0    0  0.94061968998E+01  0.27355389812E+02 -0.32851413282E+02  0.43772242877E+02  0.00000000000E+00 0. -1.
        -14    1    4    4    0    0 -0.39591220652E+02 -0.35692710797E+02 -0.17273474273E+02  0.56033983173E+02  0.00000000000E+00 0.  1.
</event>
<event>
12    1  0.8691829E-002  0.1802540E+03  0.7818608E-02  0.1168277E+00
         21   -1    0    0  501  502  0.00000000000E+00  0.00000000000E+00  0.82435720737E+03  0.82435720737E+03  0.00000000000E+00 0.  1.
         21   -1    0    0  502  503 -0.00000000000E+00 -0.00000000000E+00 -0.42407881226E+02  0.42407881226E+02  0.00000000000E+00 0. -1.
         -6    2    1    2    0  503  0.44484553906E+02 -0.47509407346E+01  0.52082579519E+03  0.55113611077E+03  0.17461402202E+03 0.  0.
        -24    2    3    3    0    0 -0.40782174142E+00  0.43643954453E+01  0.10248981084E+03  0.13027330587E+03  0.80297936651E+02 0.  0.
          6    2    1    2  501    0 -0.44484553906E+02  0.47509407346E+01  0.26112353095E+03  0.31562897783E+03  0.17156545763E+03 0.  0.
         24    2    5    5    0    0  0.41944570718E+02 -0.57832298616E+01  0.11919784536E+03  0.14905781416E+03  0.78849938894E+02 0.  0.
          5    1    5    5  501    0 -0.86429124624E+02  0.10534170596E+02  0.14192568560E+03  0.16657116367E+03  0.47000000000E+01 0. -1.
        -13    1    6    6    0    0 -0.12678592144E+01  0.20144278370E+02  0.86874371040E+02  0.89188316284E+02  0.00000000000E+00 0.  1.
         14    1    6    6    0    0  0.43212429933E+02 -0.25927508231E+02  0.32323474315E+02  0.59869497873E+02  0.00000000000E+00 0. -1.
         -5    1    3    3    0  503  0.44892375647E+02 -0.91153361799E+01  0.41833598436E+03  0.42086280490E+03  0.47000000000E+01 0.  1.
         13    1    4    4    0    0  0.39921436020E+02  0.31492979765E+01  0.52659174073E+02  0.66156086234E+02  0.00000000000E+00 0. -1.
        -14    1    4    4    0    0 -0.40329257762E+02  0.12150974688E+01  0.49830636765E+02  0.64117219636E+02  0.00000000000E+00 0.  1.
</event>
<event>
12    1  0.8691829E-002  0.1950392E+03  0.7818608E-02  0.1154311E+00
         21   -1    0    0  503  502  0.00000000000E+00  0.00000000000E+00  0.20442144894E+03  0.20442144894E+03  0.00000000000E+00 0. -1.
         21   -1    0    0  501  503 -0.00000000000E+00 -0.00000000000E+00 -0.22233795440E+03  0.22233795440E+03  0.00000000000E+00 0.  1.
          6    2    1    2  501    0  0.88849663576E+02  0.28960532354E+02 -0.96718871470E+02  0.21640234067E+03  0.16953600738E+03 0.  0.
         24    2    3    3    0    0  0.92810161480E+01 -0.28020504393E+02 -0.30950326593E+02  0.98395562486E+02  0.88614209208E+02 0.  0.
         -6    2    1    2    0  502 -0.88849663576E+02 -0.28960532354E+02  0.78802366005E+02  0.21035706267E+03  0.17119376675E+03 0.  0.
        -24    2    5    5    0    0 -0.95165661173E+02  0.25998011756E+02  0.81070697700E+02  0.15479116733E+03  0.87495415740E+02 0.  0.
          5    1    3    3  501    0  0.79568647428E+02  0.56981036747E+02 -0.65768544877E+02  0.11800677818E+03  0.47000000000E+01 0. -1.
        -11    1    4    4    0    0  0.81234532877E+01 -0.48819626739E+02 -0.49866839020E+02  0.70257014469E+02  0.00000000000E+00 0.  1.
         12    1    4    4    0    0  0.11575628604E+01  0.20799122346E+02  0.18916512427E+02  0.28138548017E+02  0.00000000000E+00 0. -1.
         -5    1    5    5    0  502  0.63159975965E+01 -0.54958544111E+02 -0.22683316950E+01  0.55565895341E+02  0.47000000000E+01 0.  1.
         11    1    6    6    0    0 -0.47051996255E+01  0.38759227367E+02  0.14078881313E+02  0.41504596235E+02  0.00000000000E+00 0. -1.
        -12    1    6    6    0    0 -0.90460461547E+02 -0.12761215611E+02  0.66991816388E+02  0.11328657109E+03  0.00000000000E+00 0.  1.
</event>
<event>
12    1  0.8691829E-002  0.1999878E+03  0.7818608E-02  0.1149945E+00
         21   -1    0    0  503  502  0.00000000000E+00  0.00000000000E+00  0.27994527142E+03  0.27994527142E+03  0.00000000000E+00 0. -1.
         21   -1    0    0  501  503 -0.00000000000E+00 -0.00000000000E+00 -0.18845147024E+03  0.18845147024E+03  0.00000000000E+00 0. -1.
          6    2    1    2  501    0  0.95608122991E+02  0.36884778521E+02 -0.70188449392E+02  0.21194699498E+03  0.17173732904E+03 0.  0.
         24    2    3    3    0    0  0.41263718184E+02  0.88926038480E+01  0.30196195898E+02  0.94320283783E+02  0.78757430409E+02 0.  0.
         -6    2    1    2    0  502 -0.95608122991E+02 -0.36884778521E+02  0.16168225057E+03  0.25644974667E+03  0.17065732434E+03 0.  0.
        -24    2    5    5    0    0 -0.44086470865E+02 -0.48534458219E+02  0.17393959258E+03  0.20202063582E+03  0.79108437496E+02 0.  0.
          5    1    3    3  501    0  0.54344404807E+02  0.27992174673E+02 -0.10038464529E+03  0.11762671120E+03  0.47000000000E+01 0. -1.
        -13    1    4    4    0    0  0.51404005659E+02 -0.15343218496E+02 -0.84785535613E+00  0.53651700908E+02  0.00000000000E+00 0.  1.
         14    1    4    4    0    0 -0.10140287475E+02  0.24235822344E+02  0.31044051254E+02  0.40668582875E+02  0.00000000000E+00 0. -1.
         -5    1    5    5    0  502 -0.51521652126E+02  0.11649679698E+02 -0.12257342008E+02  0.54429110851E+02  0.47000000000E+01 0.  1.
         13    1    6    6    0    0 -0.53130884474E+02 -0.47123442277E+01  0.12389514466E+03  0.13488922842E+03  0.00000000000E+00 0. -1.
        -14    1    6    6    0    0  0.90444136096E+01 -0.43822113991E+02  0.50044447918E+02  0.67131407401E+02  0.00000000000E+00 0.  1.
</event>
<event>
12    1  0.8691829E-002  0.3010793E+03  0.7818608E-02  0.1085050E+00
         21   -1    0    0  501  502  0.00000000000E+00  0.00000000000E+00  0.23131612718E+03  0.23131612718E+03  0.00000000000E+00 0.  1.
         21   -1    0    0  502  503 -0.00000000000E+00 -0.00000000000E+00 -0.46381213360E+03  0.46381213360E+03  0.00000000000E+00 0. -1.
         -6    2    1    2    0  503 -0.24244718714E+03 -0.25628862523E+02 -0.25606176334E+03  0.39312810036E+03  0.17188542552E+03 0.  0.
        -24    2    3    3    0    0 -0.16379274531E+03  0.11310380224E+02 -0.84976448233E+02  0.20118200397E+03  0.79354986302E+02 0.  0.
          6    2    1    2  501    0  0.24244718714E+03  0.25628862523E+02  0.23565756922E+02  0.30200016041E+03  0.17666713006E+03 0.  0.
         24    2    5    5    0    0  0.43152110051E+02 -0.38818124244E+01  0.26374469309E+02  0.10045764243E+03  0.86711892047E+02 0.  0.
          5    1    5    5  501    0  0.19929507709E+03  0.29510674947E+02 -0.28087123869E+01  0.20154251798E+03  0.47000000000E+01 0. -1.
        -13    1    6    6    0    0  0.29833252904E+02  0.39254651846E+02  0.24528130447E+01  0.49365645566E+02  0.00000000000E+00 0.  1.
         14    1    6    6    0    0  0.13318857147E+02 -0.43136464270E+02  0.23921656264E+02  0.51091996867E+02  0.00000000000E+00 0. -1.
         -5    1    3    3    0  503 -0.78654441828E+02 -0.36939242747E+02 -0.17108531511E+03  0.19194609639E+03  0.47000000000E+01 0.  1.
         11    1    4    4    0    0 -0.14618246379E+03  0.21815341174E+02 -0.97584917295E+02  0.17711024226E+03  0.00000000000E+00 0. -1.
        -12    1    4    4    0    0 -0.17610281522E+02 -0.10504960951E+02  0.12608469062E+02  0.24071761713E+02  0.00000000000E+00 0.  1.
</event>
<event>
12    1  0.8691829E-002  0.1989984E+03  0.7818608E-02  0.1152718E+00
         21   -1    0    0  501  502  0.00000000000E+00  0.00000000000E+00  0.12664775499E+04  0.12664775499E+04  0.00000000000E+00 0.  1.
         21   -1    0    0  502  503 -0.00000000000E+00 -0.00000000000E+00 -0.55215712863E+02  0.55215712863E+02  0.00000000000E+00 0.  1.
         -6    2    1    2    0  503  0.14451082767E+02 -0.10092049814E+03  0.16514140225E+03  0.25859627129E+03  0.17089929213E+03 0.  0.
        -24    2    3    3    0    0  0.19622971392E+02  0.78322257402E+01  0.11232911340E+03  0.13749659649E+03  0.76426955734E+02 0.  0.
          6    2    1    2  501    0 -0.14451082767E+02  0.10092049814E+03  0.10461204348E+04  0.10630969915E+04  0.15941602325E+03 0.  0.
         24    2    5    5    0    0 -0.65230093557E+02  0.89701231081E+02  0.76961015417E+03  0.78169975415E+03  0.80333307341E+02 0.  0.
          5    1    5    5  501    0  0.50779010790E+02  0.11219267056E+02  0.27651028059E+03  0.28139723730E+03  0.47000000000E+01 0. -1.
        -13    1    6    6    0    0  0.16342150272E+01  0.34146778861E+02  0.85384873610E+02  0.91974180109E+02  0.00000000000E+00 0.  1.
         14    1    6    6    0    0 -0.66864308584E+02  0.55554452220E+02  0.68422528056E+03  0.68972557404E+03  0.00000000000E+00 0. -1.
         -5    1    3    3    0  503 -0.51718886250E+01 -0.10875272388E+03  0.52812288852E+02  0.12109967480E+03  0.47000000000E+01 0.  1.
         13    1    4    4    0    0  0.15482902838E+02 -0.20619913510E+02  0.10458964403E+03  0.10772137556E+03  0.00000000000E+00 0. -1.
        -14    1    4    4    0    0  0.41400685537E+01  0.28452139250E+02  0.77394693713E+01  0.29775220934E+02  0.00000000000E+00 0.  1.
</event>
<event>
12    1  0.8691829E-002  0.1864032E+03  0.7818608E-02  0.1161825E+00
         21   -1    0    0  501  502  0.00000000000E+00  0.00000000000E+00  0.11456114098E+03  0.11456114098E+03  0.00000000000E+00 0.  1.
         21   -1    0    0  502  503 -0.00000000000E+00 -0.00000000000E+00 -0.36047155516E+03  0.36047155516E+03  0.00000000000E+00 0.  1.
         -6    2    1    2    0  503 -0.12753220936E+02 -0.69755746043E+02 -0.21809686738E+03  0.28690134787E+03  0.17238802482E+03 0.  0.
        -24    2    3    3    0    0  0.57093694014E+02 -0.28416814427E+02 -0.99988702508E+02  0.14351680406E+03  0.80821576203E+02 0.  0.
          6    2    1    2  501    0  0.12753220936E+02  0.69755746043E+02 -0.27813546799E+02  0.18813134827E+03  0.17202122562E+03 0.  0.
         24    2    5    5    0    0  0.39691170889E+02 -0.24194091325E+02 -0.11619676488E+02  0.88951932435E+02  0.74944554843E+02 0.  0.
          5    1    5    5  501    0 -0.26937949953E+02  0.93949837368E+02 -0.16193870312E+02  0.99179415832E+02  0.47000000000E+01 0. -1.
        -13    1    6    6    0    0  0.26980348894E+02 -0.13515096315E+01 -0.41331960511E+02  0.49377087444E+02  0.00000000000E+00 0.  1.
         14    1    6    6    0    0  0.12710821994E+02 -0.22842581694E+02  0.29712284023E+02  0.39574844991E+02  0.00000000000E+00 0. -1.
         -5    1    3    3    0  503 -0.69846914950E+02 -0.41338931615E+02 -0.11810816487E+03  0.14338454381E+03  0.47000000000E+01 0.  1.
         13    1    4    4    0    0  0.18058011764E+02 -0.47184007028E+02 -0.23731571615E+02  0.55817647742E+02  0.00000000000E+00 0. -1.
        -14    1    4    4    0    0  0.39035682250E+02  0.18767192601E+02 -0.76257130893E+02  0.87699156318E+02  0.00000000000E+00 0.  1.
</event>
<event>
12    1  0.8691829E-002  0.3816325E+03  0.7818608E-02  0.1050709E+00
         21   -1    0    0  503  502  0.00000000000E+00  0.00000000000E+00  0.23700770999E+03  0.23700770999E+03  0.00000000000E+00 0. -1.
         21   -1    0    0  501  503 -0.00000000000E+00 -0.00000000000E+00 -0.65882322351E+03  0.65882322351E+03  0.00000000000E+00 0.  1.
          6    2    1    2  501    0 -0.33464449702E+03  0.42385837309E+02 -0.87498580594E+02  0.39153464262E+03  0.17849335051E+03 0.  0.
         24    2    3    3    0    0 -0.18401174492E+03  0.85922700284E+02 -0.86219896882E+02  0.23466077777E+03  0.79929827421E+02 0.  0.
         -6    2    1    2    0  502  0.33464449702E+03 -0.42385837309E+02 -0.33431693293E+03  0.50429629088E+03  0.16959787371E+03 0.  0.
        -24    2    5    5    0    0  0.16424341150E+03 -0.63288814611E+02 -0.24117667932E+03  0.30892315750E+03  0.79284010465E+02 0.  0.
          5    1    3    3  501    0 -0.15063275209E+03 -0.43536862975E+02 -0.12786837127E+01  0.15687386485E+03  0.47000000000E+01 0. -1.
        -13    1    4    4    0    0 -0.64849077004E+02  0.52686891725E+02 -0.71699872955E+02  0.11010078624E+03  0.00000000000E+00 0.  1.
         14    1    4    4    0    0 -0.11916266792E+03  0.33235808560E+02 -0.14520023926E+02  0.12455999153E+03  0.00000000000E+00 0. -1.
         -5    1    5    5    0  502  0.17040108551E+03  0.20902977302E+02 -0.93140253606E+02  0.19537313338E+03  0.47000000000E+01 0.  1.
         11    1    6    6    0    0 -0.80832071747E+01  0.25810044784E+01 -0.89148855161E+01  0.12307518276E+02  0.00000000000E+00 0. -1.
        -12    1    6    6    0    0  0.17232661868E+03 -0.65869819090E+02 -0.23226179381E+03  0.29661563923E+03  0.00000000000E+00 0.  1.
</event>
<event>
12    1  0.8691829E-002  0.1976098E+03  0.7818608E-02  0.1152716E+00
         21   -1    0    0  501  502  0.00000000000E+00  0.00000000000E+00  0.78092066470E+02  0.78092066470E+02  0.00000000000E+00 0.  1.
         21   -1    0    0  502  503 -0.00000000000E+00 -0.00000000000E+00 -0.69483267790E+03  0.69483267790E+03  0.00000000000E+00 0. -1.
         -6    2    1    2    0  503  0.86929524556E+01  0.87453414637E+02 -0.52108232273E+03  0.55729384366E+03  0.17699145169E+03 0.  0.
        -24    2    3    3    0    0 -0.47484500271E+02  0.74771264752E+02 -0.21479950862E+03  0.24560811198E+03  0.79617811863E+02 0.  0.
          6    2    1    2  501    0 -0.86929524556E+01 -0.87453414637E+02 -0.95658288703E+02  0.21563090071E+03  0.17211191123E+03 0.  0.
         24    2    5    5    0    0 -0.57035859522E+02 -0.47623577254E+02 -0.10080040544E+02  0.10947451057E+03  0.79761938697E+02 0.  0.
          5    1    5    5  501    0  0.48342907067E+02 -0.39829837383E+02 -0.85578248160E+02  0.10615639014E+03  0.47000000000E+01 0. -1.
        -13    1    6    6    0    0 -0.59314474963E+02 -0.49061901814E+02 -0.34893418523E+02  0.84515251913E+02  0.00000000000E+00 0.  1.
         14    1    6    6    0    0  0.22786154407E+01  0.14383245596E+01  0.24813377979E+02  0.24959258655E+02  0.00000000000E+00 0. -1.
         -5    1    3    3    0  503  0.56177452726E+02  0.12682149885E+02 -0.30628281411E+03  0.31168573169E+03  0.47000000000E+01 0.  1.
         13    1    4    4    0    0 -0.13477260686E+02  0.16007871342E+02 -0.15099507897E+03  0.15243819198E+03  0.00000000000E+00 0. -1.
        -14    1    4    4    0    0 -0.34007239585E+02  0.58763393410E+02 -0.63804429652E+02  0.93169919998E+02  0.00000000000E+00 0.  1.
</event>
<event>
12    1  0.8691829E-002  0.2327225E+03  0.7818608E-02  0.1124899E+00
         21   -1    0    0  501  502  0.00000000000E+00  0.00000000000E+00  0.66006758241E+03  0.66006758241E+03  0.00000000000E+00 0.  1.
         21   -1    0    0  502  503 -0.00000000000E+00 -0.00000000000E+00 -0.15297403505E+03  0.15297403505E+03  0.00000000000E+00 0. -1.
         -6    2    1    2    0  503 -0.64064113519E+02  0.14386283308E+03 -0.23618189486E+02  0.23391789458E+03  0.17134479025E+03 0.  0.
        -24    2    3    3    0    0 -0.70083252378E+02  0.16729083758E+03 -0.43666082122E+02  0.20215141183E+03  0.77849726862E+02 0.  0.
          6    2    1    2  501    0  0.64064113519E+02 -0.14386283308E+03  0.53071173685E+03  0.57912372289E+03  0.17008413624E+03 0.  0.
         24    2    5    5    0    0  0.99117511469E+02 -0.14327966855E+03  0.45537723220E+03  0.49589837591E+03  0.90517573580E+02 0.  0.
          5    1    5    5  501    0 -0.35053397950E+02 -0.58316452922E+00  0.75334504649E+02  0.83225346977E+02  0.47000000000E+01 0. -1.
        -13    1    6    6    0    0  0.10607203280E+02  0.62118680518E+01  0.95433571898E+02  0.96221965846E+02  0.00000000000E+00 0.  1.
         14    1    6    6    0    0  0.88510308190E+02 -0.14949153661E+03  0.35994366030E+03  0.39967641007E+03  0.00000000000E+00 0. -1.
         -5    1    3    3    0  503  0.60191388588E+01 -0.23428004499E+02  0.20047892636E+02  0.31766482754E+02  0.47000000000E+01 0.  1.
         13    1    4    4    0    0  0.13828563019E+02  0.17192863796E+02 -0.17604695691E+02  0.28226743189E+02  0.00000000000E+00 0. -1.
        -14    1    4    4    0    0 -0.83911815396E+02  0.15009797379E+03 -0.26061386431E+02  0.17392466864E+03  0.00000000000E+00 0.  1.
</event>
<event>
12    1  0.8691829E-002  0.1896147E+03  0.7818608E-02  0.1158828E+00
         21   -1    0    0  503  502  0.00000000000E+00  0.00000000000E+00  0.10519576504E+03  0.10519576504E+03  0.00000000000E+00 0. -1.
         21   -1    0    0  501  503 -0.00000000000E+00 -0.00000000000E+00 -0.36046412343E+03  0.36046412343E+03  0.00000000000E+00 0. -1.
          6    2    1    2  501    0  0.17918088311E+02 -0.78715903483E+02 -0.18088324368E+03  0.26205436847E+03  0.17157066428E+03 0.  0.
         24    2    3    3    0    0 -0.13037201275E+02  0.20555648364E+02 -0.68089465134E+02  0.10856952414E+03  0.80985572872E+02 0.  0.
         -6    2    1    2    0  502 -0.17918088311E+02  0.78715903483E+02 -0.74385114712E+02  0.20360552000E+03  0.17147831097E+03 0.  0.
        -24    2    5    5    0    0  0.90960847643E+01  0.11295389199E+03 -0.29814420616E+02  0.14107039246E+03  0.78553392528E+02 0.  0.
          5    1    3    3  501    0  0.30955289586E+02 -0.99271551847E+02 -0.11279377855E+03  0.15348484433E+03  0.47000000000E+01 0. -1.
        -11    1    4    4    0    0  0.35620095361E+01  0.38472573409E+02 -0.73964914342E+02  0.83448399446E+02  0.00000000000E+00 0.  1.
         12    1    4    4    0    0 -0.16599210811E+02 -0.17916925044E+02  0.58754492075E+01  0.25121124696E+02  0.00000000000E+00 0. -1.
         -5    1    5    5    0  502 -0.27014173075E+02 -0.34237988510E+02 -0.44570694096E+02  0.62535127539E+02  0.47000000000E+01 0.  1.
         11    1    6    6    0    0 -0.30871691827E+02  0.61200124505E+02 -0.31992068324E+02  0.75643962293E+02  0.00000000000E+00 0. -1.
        -12    1    6    6    0    0  0.39967776591E+02  0.51753767488E+02  0.21776477086E+01  0.65426430167E+02  0.00000000000E+00 0.  1.
</event>
<event>
12    1  0.8691829E-002  0.1977364E+03  0.7818608E-02  0.1151688E+00
         21   -1    0    0  503  502  0.00000000000E+00  0.00000000000E+00  0.39662345316E+03  0.39662345316E+03  0.00000000000E+00 0.  1.
         21   -1    0    0  501  503 -0.00000000000E+00 -0.00000000000E+00 -0.15651764447E+03  0.15651764447E+03  0.00000000000E+00 0.  1.
          6    2    1    2  501    0  0.40615616356E+02  0.88773231461E+02 -0.48320859095E+02  0.20344178682E+03  0.17182357314E+03 0.  0.
         24    2    3    3    0    0  0.62779492582E+02  0.11687844458E+03 -0.17974566478E+02  0.15628112642E+03  0.80615568843E+02 0.  0.
         -6    2    1    2    0  502 -0.40615616356E+02 -0.88773231461E+02  0.28842666778E+03  0.34969931081E+03  0.17195740862E+03 0.  0.
        -24    2    5    5    0    0  0.83802133673E+01 -0.77928418751E+02  0.83841955848E+02  0.13899763628E+03  0.78407926300E+02 0.  0.
          5    1    3    3  501    0 -0.22163876226E+02 -0.28105213116E+02 -0.30346292618E+02  0.47160660399E+02  0.47000000000E+01 0. -1.
        -11    1    4    4    0    0  0.28784465528E+02  0.74868962363E+01  0.19720842540E+02  0.35686281699E+02  0.00000000000E+00 0.  1.
         12    1    4    4    0    0  0.33995027054E+02  0.10939154834E+03 -0.37695409017E+02  0.12059484472E+03  0.00000000000E+00 0. -1.
         -5    1    5    5    0  502 -0.48995829724E+02 -0.10844812710E+02  0.20458471193E+03  0.21070167453E+03  0.47000000000E+01 0.  1.
         13    1    6    6    0    0  0.20213227884E+02 -0.68842617797E+02  0.95932038445E+02  0.11979497739E+03  0.00000000000E+00 0. -1.
        -14    1    6    6    0    0 -0.11833014516E+02 -0.90858009543E+01 -0.12090082597E+02  0.19202658897E+02  0.00000000000E+00 0.  1.
</event>
<event>
12    1  0.8691829E-002  0.2030587E+03  0.7818608E-02  0.1148195E+00
         21   -1    0    0  503  502  0.00000000000E+00  0.00000000000E+00  0.58554537813E+02  0.58554537813E+02  0.00000000000E+00 0. -1.
         21   -1    0    0  501  503 -0.00000000000E+00 -0.00000000000E+00 -0.92048371164E+03  0.92048371164E+03  0.00000000000E+00 0. -1.
          6    2    1    2  501    0  0.10832131755E+03 -0.27670334134E+01 -0.68108434251E+03  0.71071000471E+03  0.17173137416E+03 0.  0.
         24    2    3    3    0    0  0.86774319270E+02 -0.18384992208E+02 -0.67258080850E+03  0.68237991713E+03  0.73550097981E+02 0.  0.
         -6    2    1    2    0  502 -0.10832131755E+03  0.27670334134E+01 -0.18084483132E+03  0.26832824474E+03  0.16599406497E+03 0.  0.
        -24    2    5    5    0    0 -0.14264457345E+03  0.18992244246E+02 -0.13628444361E+03  0.20959953358E+03  0.68193366462E+02 0.  0.
          5    1    3    3  501    0  0.21546998280E+02  0.15617958794E+02 -0.85035340125E+01  0.28330087583E+02  0.47000000000E+01 0. -1.
        -13    1    4    4    0    0  0.25219115067E+01 -0.26754712185E+02 -0.98944806399E+02  0.10252926107E+03  0.00000000000E+00 0.  1.
         14    1    4    4    0    0  0.84252407763E+02  0.83697199775E+01 -0.57363600210E+03  0.57985065606E+03  0.00000000000E+00 0. -1.
         -5    1    5    5    0  502  0.34323255904E+02 -0.16225210832E+02 -0.44560387713E+02  0.58728711169E+02  0.47000000000E+01 0.  1.
         11    1    6    6    0    0 -0.87195665873E+02  0.10907126775E+02 -0.36492168487E+02  0.95151079460E+02  0.00000000000E+00 0. -1.
        -12    1    6    6    0    0 -0.55448907581E+02  0.80851174710E+01 -0.99792275118E+02  0.11444845412E+03  0.00000000000E+00 0.  1.
</event>
<event>
12    1  0.8691829E-002  0.2067499E+03  0.7818608E-02  0.1144623E+00
         21   -1    0    0  501  502  0.00000000000E+00  0.00000000000E+00  0.14342765454E+03  0.14342765454E+03  0.00000000000E+00 0.  1.
         21   -1    0    0  502  503 -0.00000000000E+00 -0.00000000000E+00 -0.35983193720E+03  0.35983193720E+03  0.00000000000E+00 0.  1.
         -6    2    1    2    0  503  0.53656677781E+02  0.97327006489E+02 -0.74288144143E+00  0.20450320883E+03  0.17166661087E+03 0.  0.
        -24    2    3    3    0    0  0.87554169195E+02  0.75725564979E+02 -0.42165814258E+02  0.14659283357E+03  0.79444378204E+02 0.  0.
          6    2    1    2  501    0 -0.53656677781E+02 -0.97327006489E+02 -0.21566140122E+03  0.29875638291E+03  0.17433861044E+03 0.  0.
         24    2    5    5    0    0 -0.74754236596E+02 -0.83058220352E+01 -0.82963039845E+02  0.13750867477E+03  0.79803427789E+02 0.  0.
          5    1    5    5  501    0  0.21097558815E+02 -0.89021184454E+02 -0.13269836137E+03  0.16124770814E+03  0.47000000000E+01 0. -1.
        -11    1    6    6    0    0 -0.72333528399E+02  0.14975897511E+02 -0.86595905827E+02  0.11382120955E+03  0.00000000000E+00 0.  1.
         12    1    6    6    0    0 -0.24207081976E+01 -0.23281719547E+02  0.36328659826E+01  0.23687465218E+02  0.00000000000E+00 0. -1.
         -5    1    3    3    0  503 -0.33897491414E+02  0.21601441510E+02  0.41422932816E+02  0.57910375259E+02  0.47000000000E+01 0.  1.
         13    1    4    4    0    0  0.20412047975E+02  0.46342958456E+02 -0.52074031556E+02  0.72636259977E+02  0.00000000000E+00 0. -1.
        -14    1    4    4    0    0  0.67142121220E+02  0.29382606523E+02  0.99082172982E+01  0.73956573596E+02  0.00000000000E+00 0.  1.
</event>
<event>
12    1  0.8691829E-002  0.2464942E+03  0.7818608E-02  0.1116042E+00
         21   -1    0    0  503  502  0.00000000000E+00  0.00000000000E+00  0.21422508884E+03  0.21422508884E+03  0.00000000000E+00 0.  1.
         21   -1    0    0  501  503 -0.00000000000E+00 -0.00000000000E+00 -0.32039687898E+03  0.32039687898E+03  0.00000000000E+00 0.  1.
          6    2    1    2  501    0 -0.15906604646E+03 -0.74090747279E+02 -0.14820586940E+03  0.28761847789E+03  0.17311257358E+03 0.  0.
         24    2    3    3    0    0 -0.13236070970E+03  0.10200768655E+02 -0.11585393408E+03  0.19334773806E+03  0.79610304707E+02 0.  0.
         -6    2    1    2    0  502  0.15906604646E+03  0.74090747279E+02  0.42034079254E+02  0.24700348993E+03  0.16867843445E+03 0.  0.
        -24    2    5    5    0    0  0.34838739354E+02  0.34674052860E+01  0.56199812632E+02  0.10332733232E+03  0.79324384677E+02 0.  0.
          5    1    3    3  501    0 -0.26705336751E+02 -0.84291515934E+02 -0.32351935314E+02  0.94270739830E+02  0.47000000000E+01 0. -1.
        -13    1    4    4    0    0 -0.77896647357E+02 -0.33640915677E+02 -0.65290054417E+02  0.10706255220E+03  0.00000000000E+00 0.  1.
         14    1    4    4    0    0 -0.54464062348E+02  0.43841684333E+02 -0.50563879666E+02  0.86285185863E+02  0.00000000000E+00 0. -1.
         -5    1    5    5    0  502  0.12422730710E+03  0.70623341993E+02 -0.14165733377E+02  0.14367615761E+03  0.47000000000E+01 0.  1.
         11    1    6    6    0    0  0.17441892968E+01 -0.35017241508E+02  0.15807837137E+02  0.38459551663E+02  0.00000000000E+00 0. -1.
        -12    1    6    6    0    0  0.33094550057E+02  0.38484646794E+02  0.40391975495E+02  0.64867780652E+02  0.00000000000E+00 0.  1.
</event>
<event>
12    1  0.8691829E-002  0.1853376E+03  0.7818608E-02  0.1164241E+00
         21   -1    0    0  503  502  0.00000000000E+00  0.00000000000E+00  0.18017233922E+03  0.18017233922E+03  0.00000000000E+00 0.  1.
         21   -1    0    0  501  503 -0.00000000000E+00 -0.00000000000E+00 -0.84218835768E+03  0.84218835768E+03  0.00000000000E+00 0.  1.
          6    2    1    2  501    0 -0.45531868618E+02 -0.31099157016E+02 -0.78409527822E+03  0.80570181468E+03  0.17694547246E+03 0.  0.
         24    2    3    3    0    0 -0.95994038957E+02 -0.29785567139E+02 -0.65088381025E+03  0.66316921718E+03  0.77727991318E+02 0.  0.
         -6    2    1    2    0  502  0.45531868618E+02  0.31099157016E+02  0.12207925976E+03  0.21665888222E+03  0.17028627941E+03 0.  0.
        -24    2    5    5    0    0  0.92762512626E+02  0.19642680239E+01  0.82174946167E+02  0.14814596568E+03  0.81152715737E+02 0.  0.
          5    1    3    3  501    0  0.50462170339E+02 -0.13135898769E+01 -0.13321146797E+03  0.14253259751E+03  0.47000000000E+01 0. -1.
        -13    1    4    4    0    0 -0.21731830397E+02 -0.33938441637E+02 -0.10912725284E+03  0.11633076801E+03  0.00000000000E+00 0.  1.
         14    1    4    4    0    0 -0.74262208560E+02  0.41528744976E+01 -0.54175655741E+03  0.54683844917E+03  0.00000000000E+00 0. -1.
         -5    1    5    5    0  502 -0.47230644008E+02  0.29134888992E+02  0.39904313594E+02  0.68512916544E+02  0.47000000000E+01 0.  1.
         11    1    6    6    0    0 -0.11777414629E+02  0.65721556872E+01 -0.22755747358E+01  0.13677681313E+02  0.00000000000E+00 0. -1.
        -12    1    6    6    0    0  0.10453992725E+03 -0.46078876632E+01  0.84450520903E+02  0.13446828436E+03  0.00000000000E+00 0.  1.
</event>
<event>
12    1  0.8691829E-002  0.2159580E+03  0.7818608E-02  0.1138401E+00
         21   -1    0    0  503  502  0.00000000000E+00  0.00000000000E+00  0.15066420183E+03  0.15066420183E+03  0.00000000000E+00 0. -1.
         21   -1    0    0  501  503 -0.00000000000E+00 -0.00000000000E+00 -0.35411983930E+03  0.35411983930E+03  0.00000000000E+00 0.  1.
          6    2    1    2  501    0  0.10109302804E+03 -0.83908025985E+02 -0.20296873548E+03  0.29636826535E+03  0.17139861138E+03 0.  0.
         24    2    3    3    0    0  0.75962747718E+02 -0.12897876316E+03 -0.17225791997E+03  0.23613416763E+03  0.60668721282E+02 0.  0.
         -6    2    1    2    0  502 -0.10109302804E+03  0.83908025985E+02 -0.48690199295E+00  0.20841577578E+03  0.16179166041E+03 0.  0.
        -24    2    5    5    0    0 -0.28188241338E+02  0.38613204902E+02  0.52718599972E+02  0.10732351999E+03  0.80333869679E+02 0.  0.
          5    1    3    3  501    0  0.25130280325E+02  0.45070737178E+02 -0.30710815508E+02  0.60234097720E+02  0.47000000000E+01 0. -1.
        -13    1    4    4    0    0  0.60566660237E+02 -0.55041900576E+02 -0.11598224919E+03  0.14195003796E+03  0.00000000000E+00 0.  1.
         14    1    4    4    0    0  0.15396087481E+02 -0.73936862587E+02 -0.56275670781E+02  0.94184129665E+02  0.00000000000E+00 0. -1.
         -5    1    5    5    0  502 -0.72904786705E+02  0.45294821083E+02 -0.53205501965E+02  0.10109225579E+03  0.47000000000E+01 0.  1.
         11    1    6    6    0    0  0.25222145321E+02  0.29133519503E+02  0.28439394387E+02  0.47892773216E+02  0.00000000000E+00 0. -1.
        -12    1    6    6    0    0 -0.53410386659E+02  0.94796853983E+01  0.24279205585E+02  0.59430746774E+02  0.00000000000E+00 0.  1.
</event>
<event>
12    1  0.8691829E-002  0.1747677E+03  0.7818608E-02  0.1173109E+00
         21   -1    0    0  501  502  0.00000000000E+00  0.00000000000E+00  0.64400976719E+02  0.64400976719E+02  0.00000000000E+00 0. -1.
         21   -1    0    0  502  503 -0.00000000000E+00 -0.00000000000E+00 -0.72667998022E+03  0.72667998022E+03  0.00000000000E+00 0. -1.
         -6    2    1    2    0  503  0.20619010540E+02  0.97480481146E+00 -0.56532275315E+03  0.59172085070E+03  0.17354439227E+03 0.  0.
        -24    2    3    3    0    0  0.13085787094E+02  0.55964990224E+02 -0.48061558307E+03  0.49034006056E+03  0.78349973480E+02 0.  0.
          6    2    1    2  501    0 -0.20619010540E+02 -0.97480481146E+00 -0.96956250350E+02  0.19936010624E+03  0.17296775317E+03 0.  0.
         24    2    5    5    0    0  0.31161376170E+02 -0.31999125445E+01 -0.11620620363E+03  0.14387307844E+03  0.78830895793E+02 0.  0.
          5    1    5    5  501    0 -0.51780386711E+02  0.22251077330E+01  0.19249953283E+02  0.55487027797E+02  0.47000000000E+01 0. -1.
        -13    1    6    6    0    0  0.40464613504E+01 -0.54790146477E+01 -0.11646233566E+03  0.11666134355E+03  0.00000000000E+00 0.  1.
         14    1    6    6    0    0  0.27114914820E+02  0.22791021032E+01  0.25613202821E+00  0.27211734890E+02  0.00000000000E+00 0. -1.
         -5    1    3    3    0  503  0.75332234462E+01 -0.54990185412E+02 -0.84707170076E+02  0.10138079014E+03  0.47000000000E+01 0.  1.
         11    1    4    4    0    0  0.11958001116E+02  0.72316088476E+02 -0.29373894481E+03  0.30274606214E+03  0.00000000000E+00 0. -1.
        -12    1    4    4    0    0  0.11277859780E+01 -0.16351098253E+02 -0.18687663827E+03  0.18759399842E+03  0.00000000000E+00 0.  1.
</event>
<event>
12    1  0.8691829E-002  0.1731913E+03  0.7818608E-02  0.1174631E+00
         21   -1    0    0  503  502  0.00000000000E+00  0.00000000000E+00  0.15994011678E+02  0.15994011678E+02  0.00000000000E+00 0.  1.
         21   -1    0    0  501  503 -0.00000000000E+00 -0.00000000000E+00 -0.19809537815E+04  0.19809537815E+04  0.00000000000E+00 0.  1.
          6    2    1    2  501    0  0.19584782430E+02  0.22533893778E+01 -0.74949667844E+03  0.76924670999E+03  0.17206565133E+03 0.  0.
         24    2    3    3    0    0  0.53127818147E+02  0.18623388886E+02 -0.70190397051E+03  0.70858149774E+03  0.79051625185E+02 0.  0.
         -6    2    1    2    0  502 -0.19584782430E+02 -0.22533893778E+01 -0.12154630914E+04  0.12277010832E+04  0.17178702422E+03 0.  0.
        -24    2    5    5    0    0 -0.44810230816E+02 -0.54134506835E+02 -0.59137463558E+03  0.60093440869E+03  0.80372273378E+02 0.  0.
          5    1    3    3  501    0 -0.33543035717E+02 -0.16369999508E+02 -0.47592707923E+02  0.60665212243E+02  0.47000000000E+01 0. -1.
        -11    1    4    4    0    0  0.36930439709E+01 -0.75765370250E+01 -0.57969629844E+01  0.10229724674E+02  0.00000000000E+00 0.  1.
         12    1    4    4    0    0  0.49434774176E+02  0.26199925911E+02 -0.69610700753E+03  0.69835177307E+03  0.00000000000E+00 0. -1.
         -5    1    5    5    0  502  0.25225448386E+02  0.51881117457E+02 -0.62408845584E+03  0.62676667454E+03  0.47000000000E+01 0.  1.
         11    1    6    6    0    0  0.43588240900E-01 -0.44602084468E+02 -0.13316503222E+03  0.14043601264E+03  0.00000000000E+00 0. -1.
        -12    1    6    6    0    0 -0.44853819057E+02 -0.95324223670E+01 -0.45820960336E+03  0.46049839605E+03  0.00000000000E+00 0.  1.
</event>
<event>
12    1  0.8691829E-002  0.2502352E+03  0.7818608E-02  0.1114802E+00
         21   -1    0    0  503  502  0.00000000000E+00  0.00000000000E+00  0.18043842772E+03  0.18043842772E+03  0.00000000000E+00 0. -1.
         21   -1    0    0  501  503 -0.00000000000E+00 -0.00000000000E+00 -0.46702779190E+03  0.46702779190E+03  0.00000000000E+00 0. -1.
          6    2    1    2  501    0 -0.16620192103E+03 -0.22467252733E+02 -0.31879992160E+03  0.40527897853E+03  0.18571430861E+03 0.  0.
         24    2    3    3    0    0 -0.26596452286E+02 -0.63303874544E+02 -0.13419255774E+03  0.17020604224E+03  0.79042409218E+02 0.  0.
         -6    2    1    2    0  502  0.16620192103E+03  0.22467252733E+02  0.32210557422E+02  0.24218724109E+03  0.17172444129E+03 0.  0.
        -24    2    5    5    0    0  0.17174563101E+03 -0.25149257005E+02  0.19224801123E+02  0.19229952129E+03  0.80501341670E+02 0.  0.
          5    1    3    3  501    0 -0.13960546874E+03  0.40836621811E+02 -0.18460736386E+03  0.23507293629E+03  0.47000000000E+01 0. -1.
        -13    1    4    4    0    0  0.21650049631E+02 -0.35174514226E+02 -0.27023661368E+02  0.49358376937E+02  0.00000000000E+00 0.  1.
         14    1    4    4    0    0 -0.48246501918E+02 -0.28129360318E+02 -0.10716889637E+03  0.12084766530E+03  0.00000000000E+00 0. -1.
         -5    1    5    5    0  502 -0.55437099824E+01  0.47616509738E+02  0.12985756299E+02  0.49887719798E+02  0.47000000000E+01 0.  1.
         11    1    6    6    0    0  0.11740238220E+03 -0.54015623394E+02  0.60695264891E+01  0.12937482780E+03  0.00000000000E+00 0. -1.
        -12    1    6    6    0    0  0.54343248810E+02  0.28866366389E+02  0.13155274634E+02  0.62924693487E+02  0.00000000000E+00 0.  1.
</event>
<event>
12    1  0.8691829E-002  0.1742675E+03  0.7818608E-02  0.1173684E+00
         21   -1    0    0  503  502  0.00000000000E+00  0.00000000000E+00  0.29387814972E+03  0.29387814972E+03  0.00000000000E+00 0. -1.
         21   -1    0    0  501  503 -0.00000000000E+00 -0.00000000000E+00 -0.10530690822E+03  0.10530690822E+03  0.00000000000E+00 0. -1.
          6    2    1    2  501    0  0.82903399437E+00 -0.24315496805E+02  0.63494658150E+02  0.18467788991E+03  0.17170445750E+03 0.  0.
         24    2    3    3    0    0 -0.20324787729E+02 -0.37387646080E+02  0.10337373723E+03  0.13744658452E+03  0.79965623691E+02 0.  0.
         -6    2    1    2    0  502 -0.82903399437E+00  0.24315496805E+02  0.12507658335E+03  0.21450716803E+03  0.17256083783E+03 0.  0.
        -24    2    5    5    0    0 -0.17104833457E+02  0.39697021894E+02  0.15315845804E+03  0.17828321672E+03  0.80367675221E+02 0.  0.
          5    1    3    3  501    0  0.21153821723E+02  0.13072149275E+02 -0.39879079083E+02  0.47231305388E+02  0.47000000000E+01 0. -1.
        -13    1    4    4    0    0 -0.21816376704E+02 -0.31122796957E+02  0.43976812187E+01  0.38261238650E+02  0.00000000000E+00 0.  1.
         14    1    4    4    0    0  0.14915889749E+01 -0.62648491231E+01  0.98976056014E+02  0.99185345875E+02  0.00000000000E+00 0. -1.
         -5    1    5    5    0  502  0.16275799462E+02 -0.15381525089E+02 -0.28081874695E+02  0.36223951311E+02  0.47000000000E+01 0.  1.
         13    1    6    6    0    0  0.31643424543E+02  0.18698140766E+02  0.78510708283E+02  0.86688281215E+02  0.00000000000E+00 0. -1.
        -14    1    6    6    0    0 -0.48748258000E+02  0.20998881128E+02  0.74647749759E+02  0.91594935508E+02  0.00000000000E+00 0.  1.
</event>
<event>
12    1  0.8691829E-002  0.2972453E+03  0.7818608E-02  0.1086828E+00
         21   -1    0    0  501  502  0.00000000000E+00  0.00000000000E+00  0.12866173728E+03  0.12866173728E+03  0.00000000000E+00 0.  1.
         21   -1    0    0  502  503 -0.00000000000E+00 -0.00000000000E+00 -0.77327780180E+03  0.77327780180E+03  0.00000000000E+00 0. -1.
         -6    2    1    2    0  503 -0.40890958144E+02  0.23889051111E+03 -0.47713096739E+03  0.56214656159E+03  0.17208733221E+03 0.  0.
        -24    2    3    3    0    0 -0.39797877882E+02  0.25977325777E+03 -0.43307477841E+03  0.51315348330E+03  0.81894549196E+02 0.  0.
          6    2    1    2  501    0  0.40890958144E+02 -0.23889051111E+03 -0.16748509713E+03  0.33979297749E+03  0.16931409580E+03 0.  0.
         24    2    5    5    0    0  0.29351029134E+02 -0.46623329910E+02 -0.88295268969E+02  0.13148321341E+03  0.80352741605E+02 0.  0.
          5    1    5    5  501    0  0.11539929010E+02 -0.19226718120E+03 -0.79189828162E+02  0.20830976408E+03  0.47000000000E+01 0. -1.
        -13    1    6    6    0    0  0.54129252035E+02 -0.14484001178E+02 -0.59444917114E+02  0.81691250368E+02  0.00000000000E+00 0.  1.
         14    1    6    6    0    0 -0.24778222901E+02 -0.32139328733E+02 -0.28850351855E+02  0.49791963043E+02  0.00000000000E+00 0. -1.
         -5    1    3    3    0  503 -0.10930802624E+01 -0.20882746667E+02 -0.44056188984E+02  0.48993078293E+02  0.47000000000E+01 0.  1.
         13    1    4    4    0    0  0.24359436726E+02  0.75870192623E+02 -0.14414621556E+03  0.16470519040E+03  0.00000000000E+00 0. -1.
        -14    1    4    4    0    0 -0.64157314607E+02  0.18390306515E+03 -0.28892856285E+03  0.34844829289E+03  0.00000000000E+00 0.  1.
</event>
<event>
12    1  0.8691829E-002  0.1764324E+03  0.7818608E-02  0.1171315E+00
         21   -1    0    0  503  502  0.00000000000E+00  0.00000000000E+00  0.24488665757E+02  0.24488665757E+02  0.00000000000E+00 0. -1.
         21   -1    0    0  501  503 -0.00000000000E+00 -0.00000000000E+00 -0.15331231580E+04  0.15331231580E+04  0.00000000000E+00 0. -1.
          6    2    1    2  501    0 -0.35046178425E+02 -0.25228314801E+02 -0.10764155712E+04  0.10907696878E+04  0.17100680463E+03 0.  0.
         24    2    3    3    0    0 -0.59631513286E+02  0.33550443127E+02 -0.80752642901E+03  0.81439522822E+03  0.80368554728E+02 0.  0.
         -6    2    1    2    0  502  0.35046178425E+02  0.25228314801E+02 -0.43221892096E+03  0.46684213595E+03  0.17106630814E+03 0.  0.
        -24    2    5    5    0    0  0.26028602428E+01  0.65221640321E+02 -0.16464435491E+03  0.19431640621E+03  0.79940383217E+02 0.  0.
          5    1    3    3  501    0  0.24585334861E+02 -0.58778757928E+02 -0.26888914223E+03  0.27637445954E+03  0.47000000000E+01 0. -1.
        -13    1    4    4    0    0  0.86636123758E+00  0.44121497977E+02 -0.34147825931E+03  0.34431796170E+03  0.00000000000E+00 0.  1.
         14    1    4    4    0    0 -0.60497874523E+02 -0.10571054850E+02 -0.46604816970E+03  0.47007726653E+03  0.00000000000E+00 0. -1.
         -5    1    5    5    0  502  0.32443318182E+02 -0.39993325520E+02 -0.26757456605E+03  0.27252572975E+03  0.47000000000E+01 0.  1.
         11    1    6    6    0    0 -0.26058100605E+02  0.11930154233E+02 -0.13841731678E+02  0.31826823954E+02  0.00000000000E+00 0. -1.
        -12    1    6    6    0    0  0.28660960848E+02  0.53291486087E+02 -0.15080262323E+03  0.16248958225E+03  0.00000000000E+00 0.  1.
</event>
<event>
12    1  0.8691829E-002  0.2900291E+03  0.7818608E-02  0.1090421E+00
         21   -1    0    0  501  502  0.00000000000E+00  0.00000000000E+00  0.86604429007E+02  0.86604429007E+02  0.00000000000E+00 0. -1.
         21   -1    0    0  502  503 -0.00000000000E+00 -0.00000000000E+00 -0.13083764839E+04  0.13083764839E+04  0.00000000000E+00 0. -1.
         -6    2    1    2    0  503  0.10027957148E+03  0.21052243261E+03 -0.25620179348E+03  0.38698350316E+03  0.17245632967E+03 0.  0.
        -24    2    3    3    0    0  0.11055879091E+03  0.18343937182E+03 -0.14163982038E+03  0.26872239284E+03  0.79225225226E+02 0.  0.
          6    2    1    2  501    0 -0.10027957148E+03 -0.21052243261E+03 -0.96557026143E+03  0.10079974098E+04  0.17133931614E+03 0.  0.
         24    2    5    5    0    0 -0.40777831556E+02 -0.52033450971E+02 -0.53617002860E+03  0.54640682894E+03  0.81925646640E+02 0.  0.
          5    1    5    5  501    0 -0.59501739923E+02 -0.15848898164E+03 -0.42940023283E+03  0.46159058083E+03  0.47000000000E+01 0. -1.
        -13    1    6    6    0    0  0.23629318261E+02 -0.20295530325E+01 -0.11687934935E+03  0.11926125135E+03  0.00000000000E+00 0.  1.
         14    1    6    6    0    0 -0.64407149817E+02 -0.50003897938E+02 -0.41929067925E+03  0.42714557759E+03  0.00000000000E+00 0. -1.
         -5    1    3    3    0  503 -0.10279219435E+02  0.27083060794E+02 -0.11456197310E+03  0.11826111032E+03  0.47000000000E+01 0.  1.
         11    1    4    4    0    0  0.71103838946E+02  0.46790771084E+02 -0.40937670696E+02  0.94451178148E+02  0.00000000000E+00 0. -1.
        -12    1    4    4    0    0  0.39454951968E+02  0.13664860073E+03 -0.10070214969E+03  0.17427121469E+03  0.00000000000E+00 0.  1.
</event>
<event>
12    1  0.8691829E-002  0.1894924E+03  0.7818608E-02  0.1159420E+00
         21   -1    0    0  503  502  0.00000000000E+00  0.00000000000E+00  0.55632878528E+03  0.55632878528E+03  0.00000000000E+00 0. -1.
         21   -1    0    0  501  503 -0.00000000000E+00 -0.00000000000E+00 -0.82109468605E+02  0.82109468605E+02  0.00000000000E+00 0. -1.
          6    2    1    2  501    0  0.58409270240E+02  0.53372329786E+02  0.87435885123E+02  0.20869209932E+03  0.17218336121E+03 0.  0.
         24    2    3    3    0    0 -0.21485278269E+02  0.34742558961E+02  0.86945893199E+02  0.12651827542E+03  0.82332393907E+02 0.  0.
         -6    2    1    2    0  502 -0.58409270240E+02 -0.53372329786E+02  0.38678343156E+03  0.42974615456E+03  0.16976479611E+03 0.  0.
        -24    2    5    5    0    0  0.10349133519E+02 -0.24475351701E+02  0.31511007743E+03  0.32619948334E+03  0.80034958784E+02 0.  0.
          5    1    3    3  501    0  0.79894548510E+02  0.18629770824E+02  0.48999192471E+00  0.82173823901E+02  0.47000000000E+01 0. -1.
        -13    1    4    4    0    0 -0.53905397404E+01 -0.27292514152E+02  0.26494104894E+02  0.38417142548E+02  0.00000000000E+00 0.  1.
         14    1    4    4    0    0 -0.16094738529E+02  0.62035073114E+02  0.60451788305E+02  0.88101132875E+02  0.00000000000E+00 0. -1.
         -5    1    5    5    0  502 -0.68758403759E+02 -0.28896978085E+02  0.71673354126E+02  0.10354667122E+03  0.47000000000E+01 0.  1.
         11    1    6    6    0    0 -0.27418433408E+02 -0.17277008769E+02  0.23629181706E+03  0.23850385391E+03  0.00000000000E+00 0. -1.
        -12    1    6    6    0    0  0.37767566927E+02 -0.71983429318E+01  0.78818260371E+02  0.87695629427E+02  0.00000000000E+00 0.  1.
</event>
<event>
12    1  0.8691829E-002  0.1772638E+03  0.7818608E-02  0.1171311E+00
         21   -1    0    0  501  502  0.00000000000E+00  0.00000000000E+00  0.68039340560E+02  0.68039340560E+02  0.00000000000E+00 0. -1.
         21   -1    0    0  502  503 -0.00000000000E+00 -0.00000000000E+00 -0.46090807330E+03  0.46090807330E+03  0.00000000000E+00 0. -1.
         -6    2    1    2    0  503  0.79206079320E+01  0.42668550130E+02 -0.23256031090E+03  0.29241537494E+03  0.17186946237E+03 0.  0.
        -24    2    3    3    0    0 -0.21345878011E+02  0.87924492219E+02 -0.13620879825E+03  0.18191500623E+03  0.79711165668E+02 0.  0.
          6    2    1    2  501    0 -0.79206079320E+01 -0.42668550130E+02 -0.16030842183E+03  0.23653203892E+03  0.16841993386E+03 0.  0.
         24    2    5    5    0    0  0.27496967946E+02  0.99680210941E+01 -0.29738908053E+02  0.91289134648E+02  0.81202578542E+02 0.  0.
          5    1    5    5  501    0 -0.35417575878E+02 -0.52636571224E+02 -0.13056951378E+03  0.14524290427E+03  0.47000000000E+01 0. -1.
        -11    1    6    6    0    0  0.95238361072E+01  0.42110485714E+02 -0.32967348535E+02  0.54321658026E+02  0.00000000000E+00 0.  1.
         12    1    6    6    0    0  0.17973131839E+02 -0.32142464620E+02  0.32284404817E+01  0.36967476623E+02  0.00000000000E+00 0. -1.
         -5    1    3    3    0  503  0.29266485943E+02 -0.45255942089E+02 -0.96351512658E+02  0.11050036871E+03  0.47000000000E+01 0.  1.
         11    1    4    4    0    0  0.39549168411E+00  0.46242420892E+02 -0.12543058981E+03  0.13368377150E+03  0.00000000000E+00 0. -1.
        -12    1    4    4    0    0 -0.21741369695E+02  0.41682071327E+02 -0.10778208440E+02  0.48231234729E+02  0.00000000000E+00 0.  1.
</event>
<event>
12    1  0.8691829E-002  0.3729968E+03  0.7818608E-02  0.1053588E+00
         21   -1    0    0  501  502  0.00000000000E+00  0.00000000000E+00  0.82711084397E+03  0.82711084397E+03  0.00000000000E+00 0.  1.
         21   -1    0    0  502  503 -0.00000000000E+00 -0.00000000000E+00 -0.17001738214E+03  0.17001738214E+03  0.00000000000E+00 0. -1.
         -6    2    1    2    0  503  0.30919926401E+03  0.11662630634E+03  0.27497981974E+03  0.46340105927E+03  0.17297618414E+03 0.  0.
        -24    2    3    3    0    0  0.32193010464E+03  0.94888397625E+02  0.24173607437E+03  0.42142669109E+03  0.80754727596E+02 0.  0.
          6    2    1    2  501    0 -0.30919926401E+03 -0.11662630634E+03  0.38211364209E+03  0.53372716683E+03  0.17218586747E+03 0.  0.
         24    2    5    5    0    0 -0.16127451806E+03 -0.84674251972E+01  0.24678806113E+03  0.30587814469E+03  0.81092076146E+02 0.  0.
          5    1    5    5  501    0 -0.14792474595E+03 -0.10815888114E+03  0.13532558095E+03  0.22784902215E+03  0.47000000000E+01 0. -1.
        -11    1    6    6    0    0 -0.79280228464E+02 -0.34872703702E+02  0.78808168480E+02  0.11709904999E+03  0.00000000000E+00 0.  1.
         12    1    6    6    0    0 -0.81994289593E+02  0.26405278505E+02  0.16797989265E+03  0.18877909470E+03  0.00000000000E+00 0. -1.
         -5    1    3    3    0  503 -0.12730840636E+02  0.21737908715E+02  0.33243745364E+02  0.41974368184E+02  0.47000000000E+01 0.  1.
         11    1    4    4    0    0  0.96347878499E+02  0.11013011050E+01  0.38954439435E+02  0.10393062545E+03  0.00000000000E+00 0. -1.
        -12    1    4    4    0    0  0.22558222614E+03  0.93787096520E+02  0.20278163494E+03  0.31749606563E+03  0.00000000000E+00 0.  1.
</event>
<event>
12    1  0.8691829E-002  0.2049904E+03  0.7818608E-02  0.1145965E+00
         21   -1    0    0  501  502  0.00000000000E+00  0.00000000000E+00  0.36911062946E+03  0.36911062946E+03  0.00000000000E+00 0.  1.
         21   -1    0    0  502  503 -0.00000000000E+00 -0.00000000000E+00 -0.17317180518E+03  0.17317180518E+03  0.00000000000E+00 0.  1.
         -6    2    1    2    0  503 -0.48662914707E+02 -0.10428907453E+03 -0.62341165532E+02  0.21254068506E+03  0.16745994014E+03 0.  0.
        -24    2    3    3    0    0 -0.38887897058E+02  0.32995813354E+00 -0.63521067368E+02  0.10735430223E+03  0.77315217115E+02 0.  0.
          6    2    1    2  501    0  0.48662914707E+02  0.10428907453E+03  0.25827998981E+03  0.32974174958E+03  0.16963719507E+03 0.  0.
         24    2    5    5    0    0 -0.16575372699E+02  0.11310214127E+03  0.18194504733E+03  0.22883180096E+03  0.78696604380E+02 0.  0.
          5    1    5    5  501    0  0.65238287407E+02 -0.88130667410E+01  0.76334942474E+02  0.10090994863E+03  0.47000000000E+01 0. -1.
        -13    1    6    6    0    0 -0.30269369063E+02  0.92352682442E+02  0.86182728439E+02  0.12989501661E+03  0.00000000000E+00 0.  1.
         14    1    6    6    0    0  0.13693996363E+02  0.20749458825E+02  0.95762318893E+02  0.98936784351E+02  0.00000000000E+00 0. -1.
         -5    1    3    3    0  503 -0.97750176489E+01 -0.10461903266E+03  0.11799018363E+01  0.10518638283E+03  0.47000000000E+01 0.  1.
         13    1    4    4    0    0  0.18354146683E+01  0.17137319232E+02  0.11241174916E+02  0.20577183261E+02  0.00000000000E+00 0. -1.
        -14    1    4    4    0    0 -0.40723311727E+02 -0.16807361099E+02 -0.74762242284E+02  0.86777118968E+02  0.00000000000E+00 0.  1.
</event>
<event>
12    1  0.8691829E-002  0.2007900E+03  0.7818608E-02  0.1149302E+00
         21   -1    0    0  501  502  0.00000000000E+00  0.00000000000E+00  0.76196449297E+02  0.76196449297E+02  0.00000000000E+00 0. -1.
         21   -1    0    0  502  503 -0.00000000000E+00 -0.00000000000E+00 -0.81474770613E+03  0.81474770613E+03  0.00000000000E+00 0. -1.
         -6    2    1    2    0  503 -0.90380455275E+02  0.50287909783E+02 -0.63499678973E+03  0.66598614276E+03  0.17210205932E+03 0.  0.
        -24    2    3    3    0    0 -0.33603786008E+02 -0.18967667372E+02 -0.47250947231E+03  0.48039480821E+03  0.77620767146E+02 0.  0.
          6    2    1    2  501    0  0.90380455275E+02 -0.50287909783E+02 -0.10355446711E+03  0.22495801267E+03  0.17083641075E+03 0.  0.
         24    2    5    5    0    0  0.44570007671E+02 -0.10650355568E+02  0.13091949674E+02  0.93435355446E+02  0.80366976075E+02 0.  0.
          5    1    5    5  501    0  0.45810447604E+02 -0.39637554215E+02 -0.11664641679E+03  0.13152265722E+03  0.47000000000E+01 0. -1.
        -13    1    6    6    0    0 -0.19680872147E+02 -0.17359826224E+02 -0.41609067261E+01  0.26570913416E+02  0.00000000000E+00 0.  1.
         14    1    6    6    0    0  0.64250879819E+02  0.67094706560E+01  0.17252856400E+02  0.66864442029E+02  0.00000000000E+00 0. -1.
         -5    1    3    3    0  503 -0.56776669267E+02  0.69255577156E+02 -0.16248731742E+03  0.18559133455E+03  0.47000000000E+01 0.  1.
         13    1    4    4    0    0 -0.32058970295E+02  0.25123098354E+02 -0.17809135746E+03  0.18268957071E+03  0.00000000000E+00 0. -1.
        -14    1    4    4    0    0 -0.15448157130E+01 -0.44090765726E+02 -0.29441811485E+03  0.29770523749E+03  0.00000000000E+00 0.  1.
</event>
<event>
12    1  0.8691829E-002  0.1848518E+03  0.7818608E-02  0.1163926E+00
         21   -1    0    0  503  502  0.00000000000E+00  0.00000000000E+00  0.87847333570E+03  0.87847333570E+03  0.00000000000E+00 0.  1.
         21   -1    0    0  501  503 -0.00000000000E+00 -0.00000000000E+00 -0.52004361925E+02  0.52004361925E+02  0.00000000000E+00 0.  1.
          6    2    1    2  501    0  0.56712643858E+02  0.38243511394E+02  0.17650045645E+03  0.25558286235E+03  0.17173030676E+03 0.  0.
         24    2    3    3    0    0  0.82237326676E+02  0.41788832311E+02  0.56380955814E+02  0.13264034258E+03  0.76846365535E+02 0.  0.
         -6    2    1    2    0  502 -0.56712643858E+02 -0.38243511394E+02  0.64996851732E+03  0.67489483528E+03  0.16835995675E+03 0.  0.
        -24    2    5    5    0    0  0.26283967821E+02 -0.47296363596E+02  0.39407588734E+03  0.40568577198E+03  0.79732977050E+02 0.  0.
          5    1    3    3  501    0 -0.25524682818E+02 -0.35453209171E+01  0.12011950064E+03  0.12294251977E+03  0.47000000000E+01 0. -1.
        -11    1    4    4    0    0  0.65839847298E+02 -0.90072285814E+01  0.35340537455E+02  0.75265989972E+02  0.00000000000E+00 0.  1.
         12    1    4    4    0    0  0.16397479378E+02  0.50796060893E+02  0.21040418359E+02  0.57374352606E+02  0.00000000000E+00 0. -1.
         -5    1    5    5    0  502 -0.82996611680E+02  0.90528522019E+01  0.25589262998E+03  0.26920906330E+03  0.47000000000E+01 0.  1.
         13    1    6    6    0    0  0.45145098453E+02 -0.10734836927E+02  0.12218395836E+03  0.13069902953E+03  0.00000000000E+00 0. -1.
        -14    1    6    6    0    0 -0.18861130632E+02 -0.36561526670E+02  0.27189192897E+03  0.27498674245E+03  0.00000000000E+00 0.  1.
</event>
<event>
12    1  0.8691829E-002  0.1755085E+03  0.7818608E-02  0.1172750E+00
         21   -1    0    0  501  502  0.00000000000E+00  0.00000000000E+00  0.55193564845E+03  0.55193564845E+03  0.00000000000E+00 0. -1.
         21   -1    0    0  502  503 -0.00000000000E+00 -0.00000000000E+00 -0.21218756153E+03  0.21218756153E+03  0.00000000000E+00 0. -1.
         -6    2    1    2    0  503 -0.29374600725E+02 -0.74120674552E+00 -0.15907718246E+03  0.23532280425E+03  0.17090305926E+03 0.  0.
        -24    2    3    3    0    0 -0.13587989549E+02  0.42430059676E+02 -0.16566791014E+03  0.18864836769E+03  0.78469145268E+02 0.  0.
          6    2    1    2  501    0  0.29374600725E+02  0.74120674552E+00  0.49882526938E+03  0.52880040573E+03  0.17303122023E+03 0.  0.
         24    2    5    5    0    0 -0.12626520856E+02  0.50463751668E+02  0.18431213471E+03  0.20758859467E+03  0.80100202076E+02 0.  0.
          5    1    5    5  501    0  0.42001121581E+02 -0.49722544923E+02  0.31451313467E+03  0.32121181106E+03  0.47000000000E+01 0. -1.
        -11    1    6    6    0    0  0.13696251128E+02 -0.17170942944E+02  0.31310928268E+02  0.38246605151E+02  0.00000000000E+00 0.  1.
         12    1    6    6    0    0 -0.26322771984E+02  0.67634694613E+02  0.15300120644E+03  0.16934198951E+03  0.00000000000E+00 0. -1.
         -5    1    3    3    0  503 -0.15786611176E+02 -0.43171266421E+02  0.65907276763E+01  0.46674436560E+02  0.47000000000E+01 0.  1.
         11    1    4    4    0    0 -0.31166604905E+02 -0.64964491524E+01 -0.99682958669E+02  0.10464345829E+03  0.00000000000E+00 0. -1.
        -12    1    4    4    0    0  0.17578615356E+02  0.48926508828E+02 -0.65984951471E+02  0.84004909408E+02  0.00000000000E+00 0.  1.
</event>
<event>
12    1  0.8691829E-002  0.1966800E+03  0.7818608E-02  0.1152811E+00
         21   -1    0    0  503  502  0.00000000000E+00  0.00000000000E+00  0.76421951706E+02  0.76421951706E+02  0.00000000000E+00 0.  1.
         21   -1    0    0  501  503 -0.00000000000E+00 -0.00000000000E+00 -0.53510338980E+03  0.53510338980E+03  0.00000000000E+00 0.  1.
          6    2    1    2  501    0  0.82814168652E+02 -0.49090758651E+02 -0.30324964994E+03  0.36084211533E+03  0.17023099862E+03 0.  0.
         24    2    3    3    0    0  0.55011379581E+02 -0.96681206904E+02 -0.24506694963E+03  0.28056034616E+03  0.79264054806E+02 0.  0.
         -6    2    1    2    0  502 -0.82814168652E+02  0.49090758651E+02 -0.15543178816E+03  0.25068322618E+03  0.17150787156E+03 0.  0.
        -24    2    5    5    0    0 -0.88131619201E+02  0.88743553582E+01 -0.16747269749E+03  0.20810731901E+03  0.86113967131E+02 0.  0.
          5    1    3    3  501    0  0.27802789071E+02  0.47590448254E+02 -0.58182700308E+02  0.80281769165E+02  0.47000000000E+01 0. -1.
        -11    1    4    4    0    0  0.29741153507E+02 -0.19998205378E+02 -0.19119304907E+02  0.40620342815E+02  0.00000000000E+00 0.  1.
         12    1    4    4    0    0  0.25270226073E+02 -0.76683001526E+02 -0.22594764473E+03  0.23994000335E+03  0.00000000000E+00 0. -1.
         -5    1    5    5    0  502  0.53174505494E+01  0.40216403292E+02  0.12040909333E+02  0.42575907174E+02  0.47000000000E+01 0.  1.
         13    1    6    6    0    0 -0.56369371766E+02  0.17410906351E+02 -0.28919013059E+02  0.65703539095E+02  0.00000000000E+00 0. -1.
        -14    1    6    6    0    0 -0.31762247435E+02 -0.85365509928E+01 -0.13855368443E+03  0.14240377991E+03  0.00000000000E+00 0.  1.
</event>
<event>
12    1  0.8691829E-002  0.1790023E+03  0.7818608E-02  0.1169197E+00
         21   -1    0    0  501  502  0.00000000000E+00  0.00000000000E+00  0.14612206303E+04  0.14612206303E+04  0.00000000000E+00 0. -1.
         21   -1    0    0  502  503 -0.00000000000E+00 -0.00000000000E+00 -0.47816803733E+02  0.47816803733E+02  0.00000000000E+00 0. -1.
         -6    2    1    2    0  503  0.48822145047E+02 -0.83216526041E+01  0.14769176145E+03  0.23073040480E+03  0.17020814184E+03 0.  0.
        -24    2    3    3    0    0  0.79500038364E+02  0.42866065595E+01  0.15935667253E+03  0.19525842306E+03  0.79954184401E+02 0.  0.
          6    2    1    2  501    0 -0.48822145047E+02  0.83216526041E+01  0.12657120651E+04  0.12783070292E+04  0.17201446874E+03 0.  0.
         24    2    5    5    0    0 -0.89683743964E+02 -0.23858340736E+02  0.85863332141E+03  0.86789209795E+03  0.85866866157E+02 0.  0.
          5    1    5    5  501    0  0.40861598918E+02  0.32179993340E+02  0.40707874369E+03  0.41041493126E+03  0.47000000000E+01 0. -1.
        -13    1    6    6    0    0 -0.27363038225E+02  0.85769598931E+01  0.63661120633E+02  0.69821475079E+02  0.00000000000E+00 0.  1.
         14    1    6    6    0    0 -0.62320705740E+02 -0.32435300629E+02  0.79497220077E+03  0.79807062287E+03  0.00000000000E+00 0. -1.
         -5    1    3    3    0  503 -0.30677893317E+02 -0.12608259164E+02 -0.11664911080E+02  0.35471981732E+02  0.47000000000E+01 0.  1.
         11    1    4    4    0    0  0.40376583451E+02  0.37058897527E+02  0.48361537930E+02  0.73092193346E+02  0.00000000000E+00 0. -1.
        -12    1    4    4    0    0  0.39123454912E+02 -0.32772290968E+02  0.11099513460E+03  0.12216622972E+03  0.00000000000E+00 0.  1.
</event>
<event>
12    1  0.8691829E-002  0.2157145E+03  0.7818608E-02  0.1137206E+00
         21   -1    0    0  501  502  0.00000000000E+00  0.00000000000E+00  0.25945180785E+02  0.25945180785E+02  0.00000000000E+00 0. -1.
         21   -1    0    0  502  503 -0.00000000000E+00 -0.00000000000E+00 -0.20869678282E+04  0.20869678282E+04  0.00000000000E+00 0. -1.
         -6    2    1    2    0  503 -0.12462888032E+03 -0.36518618658E+02 -0.63274626079E+03  0.66850622195E+03  0.17224044510E+03 0.  0.
        -24    2    3    3    0    0 -0.94855457291E+02 -0.22815384297E+02 -0.62073289632E+03  0.63328341291E+03  0.78869848234E+02 0.  0.
          6    2    1    2  501    0  0.12462888032E+03  0.36518618658E+02 -0.14282763866E+04  0.14444067870E+04  0.17167283570E+03 0.  0.
         24    2    5    5    0    0  0.42788854883E+02  0.60606575342E+02 -0.10912597935E+04  0.10967283530E+04  0.80380970275E+02 0.  0.
          5    1    5    5  501    0  0.81840025434E+02 -0.24087956684E+02 -0.33701659315E+03  0.34767843401E+03  0.47000000000E+01 0. -1.
        -13    1    6    6    0    0  0.34743464218E+02  0.79274168947E+02 -0.96126652934E+03  0.96515534636E+03  0.00000000000E+00 0.  1.
         14    1    6    6    0    0  0.80453906655E+01 -0.18667593605E+02 -0.12999326412E+03  0.13157300665E+03  0.00000000000E+00 0. -1.
         -5    1    3    3    0  503 -0.29773423026E+02 -0.13703234360E+02 -0.12013364471E+02  0.35222809038E+02  0.47000000000E+01 0.  1.
         13    1    4    4    0    0 -0.56339885563E+02 -0.52351840110E+02 -0.38401271921E+03  0.39163843834E+03  0.00000000000E+00 0. -1.
        -14    1    4    4    0    0 -0.38515571728E+02  0.29536455813E+02 -0.23672017711E+03  0.24164497458E+03  0.00000000000E+00 0.  1.
</event>
<event>
12    1  0.8691829E-002  0.1728853E+03  0.7818608E-02  0.1174972E+00
         21   -1    0    0  503  502  0.00000000000E+00  0.00000000000E+00  0.10208634204E+04  0.10208634204E+04  0.00000000000E+00 0.  1.
         21   -1    0    0  501  503 -0.00000000000E+00 -0.00000000000E+00 -0.37235759637E+02  0.37235759637E+02  0.00000000000E+00 0.  1.
          6    2    1    2  501    0  0.14396569998E+02  0.84268662022E+01  0.24666884198E+03  0.30122224048E+03  0.17207860777E+03 0.  0.
         24    2    3    3    0    0 -0.22640206732E+02 -0.55532979959E+02  0.12780028655E+03  0.16117079200E+03  0.77760016243E+02 0.  0.
         -6    2    1    2    0  502 -0.14396569998E+02 -0.84268662022E+01  0.73695881877E+03  0.75687693955E+03  0.17168613152E+03 0.  0.
        -24    2    5    5    0    0  0.33297744622E+02 -0.17691747824E+02  0.21559860769E+03  0.23323665713E+03  0.80590575453E+02 0.  0.
          5    1    3    3  501    0  0.37036776730E+02  0.63959846162E+02  0.11886855543E+03  0.14005144848E+03  0.47000000000E+01 0. -1.
        -13    1    4    4    0    0  0.28049678806E+02 -0.22820681032E+02  0.62961030319E+02  0.72606193281E+02  0.00000000000E+00 0.  1.
         14    1    4    4    0    0 -0.50689885538E+02 -0.32712298927E+02  0.64839256234E+02  0.88564598717E+02  0.00000000000E+00 0. -1.
         -5    1    5    5    0  502 -0.47694314620E+02  0.92648816213E+01  0.52136021108E+03  0.52364028242E+03  0.47000000000E+01 0.  1.
         11    1    6    6    0    0  0.17164250681E+02 -0.44622586763E+02  0.17772549511E+03  0.18404384902E+03  0.00000000000E+00 0. -1.
        -12    1    6    6    0    0  0.16133493941E+02  0.26930838939E+02  0.37873112580E+02  0.49192808104E+02  0.00000000000E+00 0.  1.
</event>
<event>
12    1  0.8691829E-002  0.1877705E+03  0.7818608E-02  0.1160804E+00
         21   -1    0    0  503  502  0.00000000000E+00  0.00000000000E+00  0.14941746405E+03  0.14941746405E+03  0.00000000000E+00 0. -1.
         21   -1    0    0  501  503 -0.00000000000E+00 -0.00000000000E+00 -0.32078254387E+03  0.32078254387E+03  0.00000000000E+00 0. -1.
          6    2    1    2  501    0 -0.41224519940E+02 -0.60265433672E+02 -0.20756341086E+03  0.27897215385E+03  0.17149784126E+03 0.  0.
         24    2    3    3    0    0 -0.11607472828E+02  0.32256821974E+02 -0.11471188448E+03  0.14450642133E+03  0.80920043113E+02 0.  0.
         -6    2    1    2    0  502  0.41224519940E+02  0.60265433672E+02  0.36198331048E+02  0.19122785407E+03  0.17299245493E+03 0.  0.
        -24    2    5    5    0    0  0.65968190609E+02  0.20026912685E+02  0.76000535614E+02  0.12927873545E+03  0.78638607709E+02 0.  0.
          5    1    3    3  501    0 -0.29617047112E+02 -0.92522255647E+02 -0.92851526387E+02  0.13446573252E+03  0.47000000000E+01 0. -1.
        -13    1    4    4    0    0 -0.36558302491E+02  0.34901442399E+02 -0.36435336665E+02  0.62306933165E+02  0.00000000000E+00 0.  1.
         14    1    4    4    0    0  0.24950829663E+02 -0.26446204241E+01 -0.78276547812E+02  0.82199488170E+02  0.00000000000E+00 0. -1.
         -5    1    5    5    0  502 -0.24743670669E+02  0.40238520988E+02 -0.39802204566E+02  0.61949118620E+02  0.47000000000E+01 0.  1.
         11    1    6    6    0    0  0.34043921340E+01  0.24872220292E+02 -0.62052814530E+01  0.25859674128E+02  0.00000000000E+00 0. -1.
        -12    1    6    6    0    0  0.62563798475E+02 -0.48453076078E+01  0.82205817067E+02  0.10341906132E+03  0.00000000000E+00 0.  1.
</event>
<event>
12    1  0.8691829E-002  0.1748310E+03  0.7818608E-02  0.1173395E+00
         21   -1    0    0  501  502  0.00000000000E+00  0.00000000000E+00  0.37494105162E+03  0.37494105162E+03  0.00000000000E+00 0.  1.
         21   -1    0    0  502  503 -0.00000000000E+00 -0.00000000000E+00 -0.92642572201E+02  0.92642572201E+02  0.00000000000E+00 0.  1.
         -6    2    1    2    0  503  0.21931163970E+02  0.10905829865E+02  0.56219469035E+02  0.18179068981E+03  0.17113536492E+03 0.  0.
        -24    2    3    3    0    0  0.13894067300E+02  0.71256250416E+02  0.56535549373E+02  0.12072549440E+03  0.78152916298E+02 0.  0.
          6    2    1    2  501    0 -0.21931163970E+02 -0.10905829865E+02  0.22607901038E+03  0.28579293401E+03  0.17310681418E+03 0.  0.
         24    2    5    5    0    0 -0.45310887963E+02  0.65457283820E+01  0.41138999939E+02  0.98506880492E+02  0.76910760366E+02 0.  0.
          5    1    5    5  501    0  0.23379723993E+02 -0.17451558247E+02  0.18494001044E+03  0.18728605352E+03  0.47000000000E+01 0. -1.
        -11    1    6    6    0    0 -0.36212287344E+02  0.32354031922E+02  0.50041577777E+02  0.69729998156E+02  0.00000000000E+00 0.  1.
         12    1    6    6    0    0 -0.90986006188E+01 -0.25808303540E+02 -0.89025778381E+01  0.28776882336E+02  0.00000000000E+00 0. -1.
         -5    1    3    3    0  503  0.80370966702E+01 -0.60350420551E+02 -0.31608033814E+00  0.61065195409E+02  0.47000000000E+01 0.  1.
         13    1    4    4    0    0 -0.16349923830E+02  0.26197438702E+02  0.58794176971E+02  0.66410699812E+02  0.00000000000E+00 0. -1.
        -14    1    4    4    0    0  0.30243991130E+02  0.45058811715E+02 -0.22586275981E+01  0.54314794589E+02  0.00000000000E+00 0.  1.
</event>
<event>
12    1  0.8691829E-002  0.1770015E+03  0.7818608E-02  0.1170830E+00
         21   -1    0    0  501  502  0.00000000000E+00  0.00000000000E+00  0.23523027208E+03  0.23523027208E+03  0.00000000000E+00 0. -1.
         21   -1    0    0  502  503 -0.00000000000E+00 -0.00000000000E+00 -0.18827342255E+03  0.18827342255E+03  0.00000000000E+00 0. -1.
         -6    2    1    2    0  503  0.39897145031E+02 -0.14762413437E+02 -0.91337781441E+02  0.19917864291E+03  0.17181335932E+03 0.  0.
        -24    2    3    3    0    0  0.51704441078E+02  0.39638098104E+02 -0.98773065170E+02  0.14282084540E+03  0.79982169446E+02 0.  0.
          6    2    1    2  501    0 -0.39897145031E+02  0.14762413437E+02  0.13829463097E+03  0.22432505172E+03  0.17142523980E+03 0.  0.
         24    2    5    5    0    0 -0.93270764451E+01 -0.47245241724E+02  0.11984153157E+03  0.15261671699E+03  0.81306595036E+02 0.  0.
          5    1    5    5  501    0 -0.30570068586E+02  0.62007655162E+02  0.18453099405E+02  0.71708334729E+02  0.47000000000E+01 0. -1.
        -11    1    6    6    0    0  0.29568209847E+02 -0.71448384629E+01  0.15220286627E+02  0.34014480376E+02  0.00000000000E+00 0.  1.
         12    1    6    6    0    0 -0.38895286292E+02 -0.40100403261E+02  0.10462124494E+03  0.11860223662E+03  0.00000000000E+00 0. -1.
         -5    1    3    3    0  503 -0.11807296047E+02 -0.54400511541E+02  0.74352837287E+01  0.56357797509E+02  0.47000000000E+01 0.  1.
         11    1    4    4    0    0  0.28870930356E+02  0.50249723594E+02 -0.21939764525E+02  0.61967076809E+02  0.00000000000E+00 0. -1.
        -12    1    4    4    0    0  0.22833510722E+02 -0.10611625490E+02 -0.76833300645E+02  0.80853768591E+02  0.00000000000E+00 0.  1.
</event>
<event>
12    1  0.8691829E-002  0.2707433E+03  0.7818608E-02  0.1101050E+00
         21   -1    0    0  503  502  0.00000000000E+00  0.00000000000E+00  0.23719385366E+03  0.23719385366E+03  0.00000000000E+00 0. -1.
         21   -1    0    0  501  503 -0.00000000000E+00 -0.00000000000E+00 -0.73476443773E+03  0.73476443773E+03  0.00000000000E+00 0. -1.
          6    2    1    2  501    0 -0.11011874239E+03 -0.17742898181E+03  0.12207300187E+03  0.29574816885E+03  0.17017044568E+03 0.  0.
         24    2    3    3    0    0 -0.31627987740E+02 -0.14929201782E+03  0.12260973712E+03  0.21223250928E+03  0.81982035635E+02 0.  0.
         -6    2    1    2    0  502  0.11011874239E+03  0.17742898181E+03 -0.61964358594E+03  0.67621012253E+03  0.17232172007E+03 0.  0.
        -24    2    5    5    0    0  0.10542133634E+03  0.82530812987E+02 -0.25269777952E+03  0.29713355649E+03  0.80667151757E+02 0.  0.
          5    1    3    3  501    0 -0.78490754654E+02 -0.28136963983E+02 -0.53673524995E+00  0.83515659568E+02  0.47000000000E+01 0. -1.
        -13    1    4    4    0    0 -0.24372615642E+02 -0.55125577483E+01  0.37285002330E+02  0.44884118404E+02  0.00000000000E+00 0.  1.
         14    1    4    4    0    0 -0.72553720978E+01 -0.14377946007E+03  0.85324734788E+02  0.16734839088E+03  0.00000000000E+00 0. -1.
         -5    1    5    5    0  502  0.46974060500E+01  0.94898168819E+02 -0.36694580642E+03  0.37907656604E+03  0.47000000000E+01 0.  1.
         11    1    6    6    0    0  0.13828113483E+01  0.45769589144E+02 -0.80634364679E+02  0.92729004226E+02  0.00000000000E+00 0. -1.
        -12    1    6    6    0    0  0.10403852500E+03  0.36761223843E+02 -0.17206341484E+03  0.20440455227E+03  0.00000000000E+00 0.  1.
</event>
<event>
12    1  0.8691829E-002  0.2200545E+03  0.7818608E-02  0.1134063E+00
         21   -1    0    0  503  502  0.00000000000E+00  0.00000000000E+00  0.41366023305E+03  0.41366023305E+03  0.00000000000E+00 0.  1.
         21   -1    0    0  501  503 -0.00000000000E+00 -0.00000000000E+00 -0.16351000474E+03  0.16351000474E+03  0.00000000000E+00 0. -1.
          6    2    1    2  501    0 -0.13403120070E+03  0.13645360748E+02 -0.29529947060E+02  0.22202703889E+03  0.17399261361E+03 0.  0.
         24    2    3    3    0    0 -0.16758801052E+03  0.15031929738E+02 -0.30510807706E+02  0.18810014475E+03  0.78352121135E+02 0.  0.
         -6    2    1    2    0  502  0.13403120070E+03 -0.13645360748E+02  0.27968017537E+03  0.35514319889E+03  0.17249676111E+03 0.  0.
        -24    2    5    5    0    0  0.16540673712E+03 -0.37289728442E-01  0.24763017234E+03  0.30803803382E+03  0.78786660994E+02 0.  0.
          5    1    3    3  501    0  0.33556809813E+02 -0.13865689907E+01  0.98086064551E+00  0.33926894141E+02  0.47000000000E+01 0. -1.
        -11    1    4    4    0    0 -0.77489954089E+01 -0.19903339118E+02  0.14020577436E+01  0.21404569695E+02  0.00000000000E+00 0.  1.
         12    1    4    4    0    0 -0.15983901511E+03  0.34935268856E+02 -0.31912865449E+02  0.16669557505E+03  0.00000000000E+00 0. -1.
         -5    1    5    5    0  502 -0.31375536417E+02 -0.13608071019E+02  0.32050003029E+02  0.47105165072E+02  0.47000000000E+01 0.  1.
         13    1    6    6    0    0  0.99603110067E+02  0.37691424332E+02  0.12969836978E+03  0.16781862271E+03  0.00000000000E+00 0. -1.
        -14    1    6    6    0    0  0.65803627055E+02 -0.37728714060E+02  0.11793180256E+03  0.14021941111E+03  0.00000000000E+00 0.  1.
</event>
<event>
12    1  0.8691829E-002  0.2017939E+03  0.7818608E-02  0.1148636E+00
         21   -1    0    0  503  502  0.00000000000E+00  0.00000000000E+00  0.33819066941E+03  0.33819066941E+03  0.00000000000E+00 0. -1.
         21   -1    0    0  501  503 -0.00000000000E+00 -0.00000000000E+00 -0.65064801531E+03  0.65064801531E+03  0.00000000000E+00 0. -1.
          6    2    1    2  501    0  0.10611264366E+03 -0.35730503842E+01 -0.60290407759E+03  0.63517205884E+03  0.16934449423E+03 0.  0.
         24    2    3    3    0    0  0.10686545838E+03  0.40131207641E+02 -0.52525081027E+03  0.54593782312E+03  0.95545554595E+02 0.  0.
         -6    2    1    2    0  502 -0.10611264366E+03  0.35730503842E+01  0.29044673169E+03  0.35366662587E+03  0.17160454095E+03 0.  0.
        -24    2    5    5    0    0 -0.46993494551E+02 -0.36206258934E+02  0.25552058965E+03  0.27417201826E+03  0.79751126312E+02 0.  0.
          5    1    3    3  501    0 -0.75281471512E+00 -0.43704258025E+02 -0.77653267316E+02  0.89234235720E+02  0.47000000000E+01 0. -1.
        -11    1    4    4    0    0  0.27463731517E+02 -0.15965197001E+02 -0.40181329431E+02  0.51221902532E+02  0.00000000000E+00 0.  1.
         12    1    4    4    0    0  0.79401726860E+02  0.56096404642E+02 -0.48506948084E+03  0.49471592059E+03  0.00000000000E+00 0. -1.
         -5    1    5    5    0  502 -0.59119149110E+02  0.39779309318E+02  0.34926142042E+02  0.79494607611E+02  0.47000000000E+01 0.  1.
         13    1    6    6    0    0 -0.68651782144E+02 -0.18836496741E+02  0.17169203039E+03  0.18586563454E+03  0.00000000000E+00 0. -1.
        -14    1    6    6    0    0  0.21658287593E+02 -0.17369762193E+02  0.83828559256E+02  0.88306383728E+02  0.00000000000E+00 0.  1.
</event>
<event>
12    1  0.8691829E-002  0.1735669E+03  0.7818608E-02  0.1174383E+00
         21   -1    0    0  503  502  0.00000000000E+00  0.00000000000E+00  0.42666584103E+03  0.42666584103E+03  0.00000000000E+00 0.  1.
         21   -1    0    0  501  503 -0.00000000000E+00 -0.00000000000E+00 -0.14551241915E+03  0.14551241915E+03  0.00000000000E+00 0.  1.
          6    2    1    2  501    0  0.13600166793E+02 -0.68854321758E-01 -0.64975185259E+02  0.18533007588E+03  0.17303321372E+03 0.  0.
         24    2    3    3    0    0 -0.21934880629E+01 -0.46167835114E+02  0.56611990628E+01  0.99387395255E+02  0.87803899525E+02 0.  0.
         -6    2    1    2    0  502 -0.13600166793E+02  0.68854321758E-01  0.34612860715E+03  0.38684818430E+03  0.17222524708E+03 0.  0.
        -24    2    5    5    0    0 -0.40538223700E+02  0.26352202568E+02  0.93860610359E+02  0.13174486110E+03  0.78797893926E+02 0.  0.
          5    1    3    3  501    0  0.15793654856E+02  0.46098980792E+02 -0.70636384322E+02  0.85942680630E+02  0.47000000000E+01 0. -1.
        -13    1    4    4    0    0 -0.36605779545E+02 -0.18603974821E+02  0.28255832493E+02  0.49844588925E+02  0.00000000000E+00 0.  1.
         14    1    4    4    0    0  0.34412291482E+02 -0.27563860293E+02 -0.22594633430E+02  0.49542806330E+02  0.00000000000E+00 0. -1.
         -5    1    5    5    0  502  0.26938056907E+02 -0.26283348246E+02  0.25226799679E+03  0.25510332320E+03  0.47000000000E+01 0.  1.
         13    1    6    6    0    0 -0.33350416240E+02  0.47296242284E+02  0.93060133414E+02  0.10958728589E+03  0.00000000000E+00 0. -1.
        -14    1    6    6    0    0 -0.71878074596E+01 -0.20944039715E+02  0.80047694476E+00  0.22157575206E+02  0.00000000000E+00 0.  1.
</event>
<event>
12    1  0.8691829E-002  0.2096239E+03  0.7818608E-02  0.1141976E+00
         21   -1    0    0  501  502  0.00000000000E+00  0.00000000000E+00  0.85546139596E+02  0.85546139596E+02  0.00000000000E+00 0. -1.
         21   -1    0    0  502  503 -0.00000000000E+00 -0.00000000000E+00 -0.52427982279E+03  0.52427982279E+03  0.00000000000E+00 0.  1.
         -6    2    1    2    0  503  0.33153953430E+02  0.11454738463E+03 -0.26518289252E+03  0.33768249547E+03  0.17171841283E+03 0.  0.
        -24    2    3    3    0    0 -0.41933967153E+02  0.29496680424E+02 -0.11932622362E+03  0.15283640823E+03  0.80571138009E+02 0.  0.
          6    2    1    2  501    0 -0.33153953430E+02 -0.11454738463E+03 -0.17355079067E+03  0.27214346691E+03  0.17240041093E+03 0.  0.
         24    2    5    5    0    0 -0.57791479090E+02 -0.70779633565E+02 -0.53411906497E+02  0.14184356210E+03  0.94430677066E+02 0.  0.
          5    1    5    5  501    0  0.24637525660E+02 -0.43767751066E+02 -0.12013888417E+03  0.13029990481E+03  0.47000000000E+01 0. -1.
        -13    1    6    6    0    0 -0.57119906492E+02 -0.81204645579E+02 -0.70533868132E+02  0.12178630767E+03  0.00000000000E+00 0.  1.
         14    1    6    6    0    0 -0.67157259757E+00  0.10425012013E+02  0.17121961636E+02  0.20057254436E+02  0.00000000000E+00 0. -1.
         -5    1    3    3    0  503  0.75087920583E+02  0.85050704207E+02 -0.14585666890E+03  0.18484608723E+03  0.47000000000E+01 0.  1.
         11    1    4    4    0    0  0.22535449333E+02  0.16851697411E+02 -0.23553790558E+02  0.36696147372E+02  0.00000000000E+00 0. -1.
        -12    1    4    4    0    0 -0.64469416487E+02  0.12644983013E+02 -0.95772433065E+02  0.11614026086E+03  0.00000000000E+00 0.  1.
</event>
<event>
12    1  0.8691829E-002  0.1888741E+03  0.7818608E-02  0.1163068E+00
         21   -1    0    0  503  502  0.00000000000E+00  0.00000000000E+00  0.19196595680E+03  0.19196595680E+03  0.00000000000E+00 0.  1.
         21   -1    0    0  501  503 -0.00000000000E+00 -0.00000000000E+00 -0.26085393418E+03  0.26085393418E+03  0.00000000000E+00 0.  1.
          6    2    1    2  501    0 -0.10738576798E+02 -0.71857543885E+02 -0.16798855230E+03  0.25277180427E+03  0.17434049354E+03 0.  0.
         24    2    3    3    0    0  0.16047598264E+01 -0.42465982237E+02 -0.19234200264E+03  0.21238118162E+03  0.79400160098E+02 0.  0.
         -6    2    1    2    0  502  0.10738576798E+02  0.71857543885E+02  0.99100574925E+02  0.20004808670E+03  0.15785908082E+03 0.  0.
        -24    2    5    5    0    0 -0.30503798653E+02  0.20527762102E+02  0.91767002633E+01  0.88495080176E+02  0.79970598587E+02 0.  0.
          5    1    3    3  501    0 -0.12343336624E+02 -0.29391561648E+02  0.24353450339E+02  0.40390622656E+02  0.47000000000E+01 0. -1.
        -13    1    4    4    0    0 -0.28913438690E+02 -0.50161205433E+02 -0.11166529394E+03  0.12578263528E+03  0.00000000000E+00 0.  1.
         14    1    4    4    0    0  0.30518198517E+02  0.76952231964E+01 -0.80676708698E+02  0.86598546334E+02  0.00000000000E+00 0. -1.
         -5    1    5    5    0  502  0.41242375451E+02  0.51329781784E+02  0.89923874662E+02  0.11155300653E+03  0.47000000000E+01 0.  1.
         13    1    6    6    0    0 -0.20469821618E+02  0.34653822541E+02 -0.26943451170E+02  0.48433981611E+02  0.00000000000E+00 0. -1.
        -14    1    6    6    0    0 -0.10033977035E+02 -0.14126060439E+02  0.36120151433E+02  0.40061098565E+02  0.00000000000E+00 0.  1.
</event>
<event>
12    1  0.8691829E-002  0.2110082E+03  0.7818608E-02  0.1140821E+00
         21   -1    0    0  503  502  0.00000000000E+00  0.00000000000E+00  0.17622051310E+04  0.17622051310E+04  0.00000000000E+00 0.  1.
         21   -1    0    0  501  503 -0.00000000000E+00 -0.00000000000E+00 -0.55697162687E+03  0.55697162687E+03  0.00000000000E+00 0. -1.
          6    2    1    2  501    0  0.51842825819E+02  0.11051361708E+03 -0.53041412180E+03  0.57074970967E+03  0.17179974489E+03 0.  0.
         24    2    3    3    0    0 -0.62651964750E+01  0.28014061556E+02 -0.14603970104E+03  0.17332235248E+03  0.88820061117E+02 0.  0.
         -6    2    1    2    0  502 -0.51842825819E+02 -0.11051361708E+03  0.17356476259E+04  0.17484270482E+04  0.17211485497E+03 0.  0.
        -24    2    5    5    0    0 -0.54996619105E+02  0.18255861016E+01  0.10824902371E+04  0.10856550606E+04  0.61917980103E+02 0.  0.
          5    1    3    3  501    0  0.58108022294E+02  0.82499555528E+02 -0.38437442075E+03  0.39742735719E+03  0.47000000000E+01 0. -1.
        -11    1    4    4    0    0  0.34941892838E+02  0.11128728403E+02 -0.25084881569E+02  0.44430122151E+02  0.00000000000E+00 0.  1.
         12    1    4    4    0    0 -0.41207089313E+02  0.16885333152E+02 -0.12095481948E+03  0.12889223033E+03  0.00000000000E+00 0. -1.
         -5    1    5    5    0  502  0.31537932858E+01 -0.11233920319E+03  0.65315738882E+03  0.66277198760E+03  0.47000000000E+01 0.  1.
         11    1    6    6    0    0 -0.47438301047E+02 -0.10270508255E+00  0.35875811636E+03  0.36188090445E+03  0.00000000000E+00 0. -1.
        -12    1    6    6    0    0 -0.75583180579E+01  0.19282911841E+01  0.72373212075E+03  0.72377415613E+03  0.00000000000E+00 0.  1.
</event>
<event>
12    1  0.8691829E-002  0.1843515E+03  0.7818608E-02  0.1164013E+00
         21   -1    0    0  501  502  0.00000000000E+00  0.00000000000E+00  0.88256542955E+02  0.88256542955E+02  0.00000000000E+00 0.  1.
         21   -1    0    0  502  503 -0.00000000000E+00 -0.00000000000E+00 -0.41838117946E+03  0.41838117946E+03  0.00000000000E+00 0.  1.
         -6    2    1    2    0  503 -0.96669674879E+01  0.59570405863E+02 -0.23921775038E+03  0.30109082025E+03  0.17259335568E+03 0.  0.
        -24    2    3    3    0    0 -0.93234197755E+01  0.10803418267E+03 -0.17044969638E+03  0.21682937628E+03  0.78762736391E+02 0.  0.
          6    2    1    2  501    0  0.96669674879E+01 -0.59570405863E+02 -0.90906886130E+02  0.20554690217E+03  0.17419352322E+03 0.  0.
         24    2    5    5    0    0  0.69901107192E+02 -0.23134398759E+02 -0.30804465941E+02  0.11286397434E+03  0.79799726742E+02 0.  0.
          5    1    5    5  501    0 -0.60234139704E+02 -0.36436007103E+02 -0.60102420189E+02  0.92682927835E+02  0.47000000000E+01 0. -1.
        -11    1    6    6    0    0  0.39472645396E+02  0.57908298435E+01 -0.52235075979E+02  0.65727670029E+02  0.00000000000E+00 0.  1.
         12    1    6    6    0    0  0.30428461796E+02 -0.28925228603E+02  0.21430610039E+02  0.47136304306E+02  0.00000000000E+00 0. -1.
         -5    1    3    3    0  503 -0.34354771248E+00 -0.48463776808E+02 -0.68768054002E+02  0.84261443963E+02  0.47000000000E+01 0.  1.
         13    1    4    4    0    0 -0.44037542985E+02  0.66195796078E+02 -0.96135005496E+02  0.12475226608E+03  0.00000000000E+00 0. -1.
        -14    1    4    4    0    0  0.34714123210E+02  0.41838386592E+02 -0.74314690880E+02  0.92077110203E+02  0.00000000000E+00 0.  1.
</event>
<event>
12    1  0.8691829E-002  0.3365795E+03  0.7818608E-02  0.1068538E+00
         21   -1    0    0  503  502  0.00000000000E+00  0.00000000000E+00  0.17413181115E+03  0.17413181115E+03  0.00000000000E+00 0.  1.
         21   -1    0    0  501  503 -0.00000000000E+00 -0.00000000000E+00 -0.83221272874E+03  0.83221272874E+03  0.00000000000E+00 0.  1.
          6    2    1    2  501    0  0.10108830421E+03 -0.26929333417E+03 -0.56824010025E+03  0.66044119896E+03  0.17477992070E+03 0.  0.
         24    2    3    3    0    0  0.86264486394E+02 -0.27323885167E+03 -0.57126687594E+03  0.64411440950E+03  0.80227783890E+02 0.  0.
         -6    2    1    2    0  502 -0.10108830421E+03  0.26929333417E+03 -0.89840817342E+02  0.34590334093E+03  0.16982344871E+03 0.  0.
        -24    2    5    5    0    0 -0.53106220690E+02  0.50055967687E+02 -0.20987543345E+02  0.11110520094E+03  0.81104982117E+02 0.  0.
          5    1    3    3  501    0  0.14823817813E+02  0.39455174958E+01  0.30267756947E+01  0.16326789457E+02  0.47000000000E+01 0. -1.
        -13    1    4    4    0    0  0.85199154886E+02 -0.14866159706E+03 -0.36347900111E+03  0.40184095197E+03  0.00000000000E+00 0.  1.
         14    1    4    4    0    0  0.10653315084E+01 -0.12457725461E+03 -0.20778787483E+03  0.24227345753E+03  0.00000000000E+00 0. -1.
         -5    1    5    5    0  502 -0.47982083517E+02  0.21923736648E+03 -0.68853273997E+02  0.23479813999E+03  0.47000000000E+01 0.  1.
         13    1    6    6    0    0  0.16233141697E+02 -0.32084104146E+01 -0.16782492472E+02  0.23568216740E+02  0.00000000000E+00 0. -1.
        -14    1    6    6    0    0 -0.69339362386E+02  0.53264378102E+02 -0.42050508731E+01  0.87536984204E+02  0.00000000000E+00 0.  1.
</event>
<event>
12    1  0.8691829E-002  0.2473451E+03  0.7818608E-02  0.1115032E+00
         21   -1    0    0  501  502  0.00000000000E+00  0.00000000000E+00  0.17822131844E+04  0.17822131844E+04  0.00000000000E+00 0.  1.
         21   -1    0    0  502  503 -0.00000000000E+00 -0.00000000000E+00 -0.40821935281E+02  0.40821935281E+02  0.00000000000E+00 0.  1.
         -6    2    1    2    0  503 -0.73987610704E+02 -0.16092872545E+03  0.50586046688E+03  0.56298912119E+03  0.17230704400E+03 0.  0.
        -24    2    3    3    0    0 -0.84559792572E+02 -0.18361532995E+03  0.41431489917E+03  0.46796736568E+03  0.80446701319E+02 0.  0.
          6    2    1    2  501    0  0.73987610704E+02  0.16092872545E+03  0.12355307822E+04  0.12600459984E+04  0.17264814868E+03 0.  0.
         24    2    5    5    0    0  0.21541706398E+02  0.16209307242E+03  0.10932445528E+04  0.11083245772E+04  0.80383499662E+02 0.  0.
          5    1    5    5  501    0  0.52445904305E+02 -0.11643469658E+01  0.14228622941E+03  0.15172142124E+03  0.47000000000E+01 0. -1.
        -11    1    6    6    0    0 -0.56330180737E+01  0.12142381330E+03  0.92998555304E+03  0.93789583760E+03  0.00000000000E+00 0.  1.
         12    1    6    6    0    0  0.27174724472E+02  0.40669259114E+02  0.16325899974E+03  0.17042873961E+03  0.00000000000E+00 0. -1.
         -5    1    3    3    0  503  0.10572181869E+02  0.22686604497E+02  0.91545567712E+02  0.95021755513E+02  0.47000000000E+01 0.  1.
         13    1    4    4    0    0 -0.42871908677E+02 -0.17505412593E+02  0.87755103826E+02  0.99223980323E+02  0.00000000000E+00 0. -1.
        -14    1    4    4    0    0 -0.41687883895E+02 -0.16610991736E+03  0.32655979535E+03  0.36874338536E+03  0.00000000000E+00 0.  1.
</event>
<event>
12    1  0.8691829E-002  0.1847882E+03  0.7818608E-02  0.1163326E+00
         21   -1    0    0  501  502  0.00000000000E+00  0.00000000000E+00  0.71348049587E+03  0.71348049587E+03  0.00000000000E+00 0. -1.
         21   -1    0    0  502  503 -0.00000000000E+00 -0.00000000000E+00 -0.63570227597E+02  0.63570227597E+02  0.00000000000E+00 0. -1.
         -6    2    1    2    0  503 -0.75872367644E+01  0.66037542318E+02  0.13149662945E+03  0.22679959032E+03  0.17241858210E+03 0.  0.
        -24    2    3    3    0    0 -0.54420687789E+02  0.87789690403E+02  0.79747918775E+02  0.15354286955E+03  0.80913788937E+02 0.  0.
          6    2    1    2  501    0  0.75872367644E+01 -0.66037542318E+02  0.51841363882E+03  0.55025113315E+03  0.17206128401E+03 0.  0.
         24    2    5    5    0    0 -0.17735607570E+02 -0.48720770692E+02  0.14233010024E+03  0.17288919148E+03  0.83333965610E+02 0.  0.
          5    1    5    5  501    0  0.25322844335E+02 -0.17316771626E+02  0.37608353858E+03  0.37736194167E+03  0.47000000000E+01 0. -1.
        -13    1    6    6    0    0 -0.47512963510E+02 -0.13691256918E+02  0.93827574787E+02  0.10605916277E+03  0.00000000000E+00 0.  1.
         14    1    6    6    0    0  0.29777355940E+02 -0.35029513774E+02  0.48502525450E+02  0.66830028708E+02  0.00000000000E+00 0. -1.
         -5    1    3    3    0  503  0.46833451025E+02 -0.21752148085E+02  0.51748710673E+02  0.73256720767E+02  0.47000000000E+01 0.  1.
         13    1    4    4    0    0 -0.56521075142E+02  0.68760398068E+02  0.94166297818E+02  0.12957590796E+03  0.00000000000E+00 0. -1.
        -14    1    4    4    0    0  0.21003873530E+01  0.19029292335E+02 -0.14418379044E+02  0.23966961594E+02  0.00000000000E+00 0.  1.
</event>
<event>
12    1  0.8691829E-002  0.2388706E+03  0.7818608E-02  0.1120862E+00
         21   -1    0    0  503  502  0.00000000000E+00  0.00000000000E+00  0.19299054902E+04  0.19299054902E+04  0.00000000000E+00 0. -1.
         21   -1    0    0  501  503 -0.00000000000E+00 -0.00000000000E+00 -0.56311322161E+02  0.56311322161E+02  0.00000000000E+00 0. -1.
          6    2    1    2  501    0 -0.84888753923E+02 -0.13726176475E+03  0.25134503380E+03  0.34674704048E+03  0.17610307055E+03 0.  0.
         24    2    3    3    0    0 -0.44099415318E+00 -0.12248642001E+03  0.19717380763E+03  0.24522686176E+03  0.79092261005E+02 0.  0.
         -6    2    1    2    0  502  0.84888753923E+02  0.13726176475E+03  0.16222491342E+04  0.16394697719E+04  0.17355686901E+03 0.  0.
        -24    2    5    5    0    0  0.34934063112E+02  0.15218059642E+03  0.14013909803E+04  0.14124929959E+04  0.82827900649E+02 0.  0.
          5    1    3    3  501    0 -0.84447759770E+02 -0.14775344742E+02  0.54171226177E+02  0.10152017872E+03  0.47000000000E+01 0. -1.
        -13    1    4    4    0    0  0.34782124212E+02 -0.75481942907E+02  0.14258840542E+03  0.16504173178E+03  0.00000000000E+00 0.  1.
         14    1    4    4    0    0 -0.35223118365E+02 -0.47004477099E+02  0.54585402205E+02  0.80185129972E+02  0.00000000000E+00 0. -1.
         -5    1    5    5    0  502  0.49954690811E+02 -0.14918831668E+02  0.22085815392E+03  0.22697677596E+03  0.47000000000E+01 0.  1.
         13    1    6    6    0    0  0.47540308552E+02  0.11856714830E+03  0.80978109517E+03  0.81979489611E+03  0.00000000000E+00 0. -1.
        -14    1    6    6    0    0 -0.12606245441E+02  0.33613448120E+02  0.59160988515E+03  0.59269809982E+03  0.00000000000E+00 0.  1.
</event>
<event>
12    1  0.8691829E-002  0.1981075E+03  0.7818608E-02  0.1151773E+00
         21   -1    0    0  501  502  0.00000000000E+00  0.00000000000E+00  0.52663634078E+02  0.52663634078E+02  0.00000000000E+00 0.  1.
         21   -1    0    0  502  503 -0.00000000000E+00 -0.00000000000E+00 -0.75155819177E+03  0.75155819177E+03  0.00000000000E+00 0. -1.
         -6    2    1    2    0  503  0.68989867157E+01 -0.94075394436E+02 -0.29321552652E+03  0.35275525445E+03  0.17193937507E+03 0.  0.
        -24    2    3    3    0    0 -0.48317632332E+02 -0.60482137491E+02 -0.25202125921E+03  0.27596697677E+03  0.81549829081E+02 0.  0.
          6    2    1    2  501    0 -0.68989867157E+01  0.94075394436E+02 -0.40567903118E+03  0.45146657140E+03  0.17420910681E+03 0.  0.
         24    2    5    5    0    0  0.48818154227E+02  0.68378726180E+01 -0.18879421146E+03  0.21110039234E+03  0.80561483869E+02 0.  0.
          5    1    5    5  501    0 -0.55717140942E+02  0.87237521818E+02 -0.21688481972E+03  0.24036617906E+03  0.47000000000E+01 0. -1.
        -11    1    6    6    0    0 -0.48089381636E+01  0.75834775289E+01  0.48225713987E+01  0.10192752945E+02  0.00000000000E+00 0.  1.
         12    1    6    6    0    0  0.53627092390E+02 -0.74560491091E+00 -0.19361678285E+03  0.20090763940E+03  0.00000000000E+00 0. -1.
         -5    1    3    3    0  503  0.55216619047E+02 -0.33593256945E+02 -0.41194267308E+02  0.76788277688E+02  0.47000000000E+01 0.  1.
         11    1    4    4    0    0 -0.64871611081E+02 -0.61058319751E+02 -0.16628737919E+03  0.18864765255E+03  0.00000000000E+00 0. -1.
        -12    1    4    4    0    0  0.16553978749E+02  0.57618225991E+00 -0.85733880022E+02  0.87319324219E+02  0.00000000000E+00 0.  1.
</event>
<event>
12    1  0.8691829E-002  0.2467725E+03  0.7818608E-02  0.1115622E+00
         21   -1    0    0  503  502  0.00000000000E+00  0.00000000000E+00  0.18074983367E+03  0.18074983367E+03  0.00000000000E+00 0.  1.
         21   -1    0    0  501  503 -0.00000000000E+00 -0.00000000000E+00 -0.35193184003E+03  0.35193184003E+03  0.00000000000E+00 0. -1.
          6    2    1    2  501    0 -0.55068567666E+02 -0.16653391756E+03 -0.14424696387E+03  0.28444358111E+03  0.17127425787E+03 0.  0.
         24    2    3    3    0    0 -0.83737648737E+02 -0.86695834366E+02 -0.13659532618E+03  0.19914016209E+03  0.80438544932E+02 0.  0.
         -6    2    1    2    0  502  0.55068567666E+02  0.16653391756E+03 -0.26935042486E+02  0.24823809259E+03  0.17358156946E+03 0.  0.
        -24    2    5    5    0    0  0.95630488955E+02  0.52525669141E+02 -0.13823690418E+02  0.12643026148E+03  0.62364896092E+02 0.  0.
          5    1    3    3  501    0  0.28669081071E+02 -0.79838083193E+02 -0.76516376848E+01  0.85303419021E+02  0.47000000000E+01 0. -1.
        -11    1    4    4    0    0  0.11103156127E+01  0.47489967278E+01 -0.42774054594E+02  0.43051196465E+02  0.00000000000E+00 0.  1.
         12    1    4    4    0    0 -0.84847964350E+02 -0.91444831094E+02 -0.93821271588E+02  0.15608896563E+03  0.00000000000E+00 0. -1.
         -5    1    5    5    0  502 -0.40561921290E+02  0.11400824842E+03 -0.13111352067E+02  0.12180783111E+03  0.47000000000E+01 0.  1.
         11    1    6    6    0    0  0.54282503022E+02 -0.53439018656E+01 -0.64943968831E+01  0.54930179432E+02  0.00000000000E+00 0. -1.
        -12    1    6    6    0    0  0.41347985933E+02  0.57869571006E+02 -0.73292935350E+01  0.71500082048E+02  0.00000000000E+00 0.  1.
</event>
<event>
12    1  0.8691829E-002  0.2499769E+03  0.7818608E-02  0.1113364E+00
         21   -1    0    0  501  502  0.00000000000E+00  0.00000000000E+00  0.23433621132E+03  0.23433621132E+03  0.00000000000E+00 0. -1.
         21   -1    0    0  502  503 -0.00000000000E+00 -0.00000000000E+00 -0.31252881585E+03  0.31252881585E+03  0.00000000000E+00 0. -1.
         -6    2    1    2    0  503  0.13099906138E+03 -0.12603791800E+03 -0.14420599709E+03  0.28858931918E+03  0.17158704699E+03 0.  0.
        -24    2    3    3    0    0  0.21063356490E+02 -0.92041225422E+02 -0.18284588323E+02  0.11794370540E+03  0.68272537016E+02 0.  0.
          6    2    1    2  501    0 -0.13099906138E+03  0.12603791800E+03  0.66013392561E+02  0.25827570799E+03  0.17117903635E+03 0.  0.
         24    2    5    5    0    0 -0.48072137934E+02  0.23550007741E+02 -0.23066528199E+02  0.99096662058E+02  0.80140816053E+02 0.  0.
          5    1    5    5  501    0 -0.82926923442E+02  0.10248791026E+03  0.89079920760E+02  0.15917904593E+03  0.47000000000E+01 0. -1.
        -11    1    6    6    0    0 -0.38762145831E+02 -0.25471604614E+02 -0.89185967211E+01  0.47231853219E+02  0.00000000000E+00 0.  1.
         12    1    6    6    0    0 -0.93099921032E+01  0.49021612355E+02 -0.14147931478E+02  0.51864808839E+02  0.00000000000E+00 0. -1.
         -5    1    3    3    0  503  0.10993570489E+03 -0.33996692574E+02 -0.12592140877E+03  0.17064561378E+03  0.47000000000E+01 0.  1.
         11    1    4    4    0    0 -0.68620862886E+01 -0.53450296565E+02 -0.38466811547E+02  0.66209652028E+02  0.00000000000E+00 0. -1.
        -12    1    4    4    0    0  0.27925442779E+02 -0.38590928858E+02  0.20182223224E+02  0.51734053377E+02  0.00000000000E+00 0.  1.
</event>
<event>
12    1  0.8691829E-002  0.1909996E+03  0.7818608E-02  0.1157996E+00
         21   -1    0    0  501  502  0.00000000000E+00  0.00000000000E+00  0.75556281791E+02  0.75556281791E+02  0.00000000000E+00 0. -1.
         21   -1    0    0  502  503 -0.00000000000E+00 -0.00000000000E+00 -0.51885284412E+03  0.51885284412E+03  0.00000000000E+00 0. -1.
         -6    2    1    2    0  503 -0.77651982935E+01  0.78987808980E+02 -0.30610282276E+03  0.36080433240E+03  0.17372810913E+03 0.  0.
        -24    2    3    3    0    0 -0.69125111909E+02  0.73428823153E+02 -0.21931348269E+03  0.25426597840E+03  0.79891870145E+02 0.  0.
          6    2    1    2  501    0  0.77651982935E+01 -0.78987808980E+02 -0.13719373956E+03  0.23360479351E+03  0.17160916381E+03 0.  0.
         24    2    5    5    0    0  0.46860473177E+02 -0.78313375288E+02 -0.15001918964E+03  0.19218646968E+03  0.78108854633E+02 0.  0.
          5    1    5    5  501    0 -0.39095274884E+02 -0.67443369191E+00  0.12825450081E+02  0.41418323829E+02  0.47000000000E+01 0. -1.
        -11    1    6    6    0    0  0.63352755240E+01 -0.79285562646E+02 -0.10195745051E+03  0.12931224951E+03  0.00000000000E+00 0.  1.
         12    1    6    6    0    0  0.40525197653E+02  0.97218735788E+00 -0.48061739137E+02  0.62874220170E+02  0.00000000000E+00 0. -1.
         -5    1    3    3    0  503  0.61359913616E+02  0.55589858273E+01 -0.86789340070E+02  0.10653835400E+03  0.47000000000E+01 0.  1.
         13    1    4    4    0    0 -0.17715346374E+02  0.73783002176E+02 -0.11214632681E+03  0.13540518278E+03  0.00000000000E+00 0. -1.
        -14    1    4    4    0    0 -0.51409765535E+02 -0.35417902257E+00 -0.10716715589E+03  0.11886079562E+03  0.00000000000E+00 0.  1.
</event>
<event>
12    1  0.8691829E-002  0.4675139E+03  0.7818608E-02  0.1022636E+00
         21   -1    0    0  501  502  0.00000000000E+00  0.00000000000E+00  0.83415804804E+03  0.83415804804E+03  0.00000000000E+00 0.  1.
         21   -1    0    0  502  503 -0.00000000000E+00 -0.00000000000E+00 -0.31150694104E+03  0.31150694104E+03  0.00000000000E+00 0.  1.
         -6    2    1    2    0  503 -0.15693519771E+03 -0.40546617343E+03  0.48981631215E+03  0.67699949628E+03  0.17139668680E+03 0.  0.
        -24    2    3    3    0    0 -0.10985536288E+02 -0.18077480909E+03  0.23539141056E+03  0.30748409278E+03  0.79606140088E+02 0.  0.
          6    2    1    2  501    0  0.15693519771E+03  0.40546617343E+03  0.32834794847E+02  0.46866549280E+03  0.17186548901E+03 0.  0.
         24    2    5    5    0    0  0.15167118616E+03  0.29669671468E+03  0.76311453191E+02  0.35131637778E+03  0.81034993655E+02 0.  0.
          5    1    5    5  501    0  0.52640115490E+01  0.10876945875E+03 -0.43476658344E+02  0.11734911501E+03  0.47000000000E+01 0. -1.
        -13    1    6    6    0    0  0.19113136894E+02  0.75288526803E+02 -0.11934823239E+02  0.78588257875E+02  0.00000000000E+00 0.  1.
         14    1    6    6    0    0  0.13255804927E+03  0.22140818788E+03  0.88246276430E+02  0.27272811991E+03  0.00000000000E+00 0. -1.
         -5    1    3    3    0  503 -0.14594966142E+03 -0.22469136434E+03  0.25442490159E+03  0.36951540350E+03  0.47000000000E+01 0.  1.
         13    1    4    4    0    0 -0.27516436142E+02 -0.17280985319E+03  0.22867115097E+03  0.28794252013E+03  0.00000000000E+00 0. -1.
        -14    1    4    4    0    0  0.16530899854E+02 -0.79649559040E+01  0.67202595890E+01  0.19541572646E+02  0.00000000000E+00 0.  1.
</event>
<event>
12    1  0.8691829E-002  0.2601721E+03  0.7818608E-02  0.1107194E+00
         21   -1    0    0  501  502  0.00000000000E+00  0.00000000000E+00  0.20672083332E+04  0.20672083332E+04  0.00000000000E+00 0.  1.
         21   -1    0    0  502  503 -0.00000000000E+00 -0.00000000000E+00 -0.43326168650E+02  0.43326168650E+02  0.00000000000E+00 0.  1.
         -6    2    1    2    0  503 -0.11051338246E+03 -0.15931687326E+03  0.48575004578E+03  0.55055375462E+03  0.17193387085E+03 0.  0.
        -24    2    3    3    0    0 -0.23708711903E+02 -0.12826573281E+03  0.38382995921E+03  0.41304368881E+03  0.79154595850E+02 0.  0.
          6    2    1    2  501    0  0.11051338246E+03  0.15931687326E+03  0.15381321188E+04  0.15599807473E+04  0.17347750033E+03 0.  0.
         24    2    5    5    0    0  0.40708578448E+02  0.14165745709E+03  0.74585886826E+03  0.76442838621E+03  0.79506495182E+02 0.  0.
          5    1    5    5  501    0  0.69804804012E+02  0.17659416171E+02  0.79227325055E+03  0.79555236106E+03  0.47000000000E+01 0. -1.
        -13    1    6    6    0    0  0.28869340284E+02  0.13554872509E+03  0.73274013336E+03  0.74573118395E+03  0.00000000000E+00 0.  1.
         14    1    6    6    0    0  0.11839238165E+02  0.61087320030E+01  0.13118734900E+02  0.18697202261E+02  0.00000000000E+00 0. -1.
         -5    1    3    3    0  503 -0.86804670557E+02 -0.31051140456E+02  0.10192008657E+03  0.13751006582E+03  0.47000000000E+01 0.  1.
         11    1    4    4    0    0  0.11617606477E+02  0.25010504977E+01  0.10350301069E+02  0.15759212102E+02  0.00000000000E+00 0. -1.
        -12    1    4    4    0    0 -0.35326318380E+02 -0.13076678331E+03  0.37347965814E+03  0.39728447670E+03  0.00000000000E+00 0.  1.
</event>
<event>
12    1  0.8691829E-002  0.1771395E+03  0.7818608E-02  0.1176461E+00
         21   -1    0    0  501  502  0.00000000000E+00  0.00000000000E+00  0.13653678474E+03  0.13653678474E+03  0.00000000000E+00 0. -1.
         21   -1    0    0  502  503 -0.00000000000E+00 -0.00000000000E+00 -0.24746895016E+03  0.24746895016E+03  0.00000000000E+00 0. -1.
         -6    2    1    2    0  503 -0.29127956486E+01  0.39481845061E+02 -0.14059061636E+03  0.22615068073E+03  0.17265893698E+03 0.  0.
        -24    2    3    3    0    0 -0.10616962146E+02  0.17698526406E+02  0.30073749664E+01  0.80629753485E+02  0.77885525746E+02 0.  0.
          6    2    1    2  501    0  0.29127956486E+01 -0.39481845061E+02  0.29658450943E+02  0.15785505417E+03  0.14990428262E+03 0.  0.
         24    2    5    5    0    0  0.78736971627E+01 -0.42765508065E+02 -0.31621126930E+02  0.96108235219E+02  0.79661869307E+02 0.  0.
          5    1    5    5  501    0 -0.49609015141E+01  0.32836630043E+01  0.61279577873E+02  0.61746818953E+02  0.47000000000E+01 0. -1.
        -11    1    6    6    0    0  0.25576968662E+02  0.13452619072E+02 -0.22152756328E+02  0.36412894677E+02  0.00000000000E+00 0.  1.
         12    1    6    6    0    0 -0.17703271499E+02 -0.56218127137E+02 -0.94683706021E+01  0.59695340542E+02  0.00000000000E+00 0. -1.
         -5    1    3    3    0  503  0.77041664970E+01  0.21783318655E+02 -0.14359799133E+03  0.14552092725E+03  0.47000000000E+01 0.  1.
         13    1    4    4    0    0 -0.11267361395E+02  0.24331985088E+02 -0.33844896074E+02  0.43179577596E+02  0.00000000000E+00 0. -1.
        -14    1    4    4    0    0  0.65039924944E+00 -0.66334586827E+01  0.36852271040E+02  0.37450175889E+02  0.00000000000E+00 0.  1.
</event>
<event>
12    1  0.8691829E-002  0.1854374E+03  0.7818608E-02  0.1162851E+00
         21   -1    0    0  501  502  0.00000000000E+00  0.00000000000E+00  0.30978117695E+03  0.30978117695E+03  0.00000000000E+00 0. -1.
         21   -1    0    0  502  503 -0.00000000000E+00 -0.00000000000E+00 -0.12028399328E+03  0.12028399328E+03  0.00000000000E+00 0.  1.
         -6    2    1    2    0  503 -0.43915998979E+01  0.67981110181E+02  0.15596535382E+03  0.24162044700E+03  0.17150665097E+03 0.  0.
        -24    2    3    3    0    0  0.37051171029E+02  0.40336107722E+02  0.16449383514E+03  0.19086047836E+03  0.79810460079E+02 0.  0.
          6    2    1    2  501    0  0.43915998979E+01 -0.67981110181E+02  0.33531829858E+02  0.18844472323E+03  0.17247119357E+03 0.  0.
         24    2    5    5    0    0  0.26884257613E+02  0.25019232833E+02  0.15389248461E+02  0.90944842662E+02  0.81764357269E+02 0.  0.
          5    1    5    5  501    0 -0.22492657715E+02 -0.93000343014E+02  0.18142581397E+02  0.97499880572E+02  0.47000000000E+01 0. -1.
        -13    1    6    6    0    0  0.26285485779E+02  0.34962246018E+02 -0.24291037432E+02  0.50033387940E+02  0.00000000000E+00 0.  1.
         14    1    6    6    0    0  0.59877183407E+00 -0.99430131850E+01  0.39680285893E+02  0.40911454722E+02  0.00000000000E+00 0. -1.
         -5    1    3    3    0  503 -0.41442770927E+02  0.27645002459E+02 -0.85284813250E+01  0.50759968645E+02  0.47000000000E+01 0.  1.
         11    1    4    4    0    0  0.44568831939E+02  0.35968267502E+02  0.49970407568E+02  0.76007490947E+02  0.00000000000E+00 0. -1.
        -12    1    4    4    0    0 -0.75176609098E+01  0.43678402196E+01  0.11452342757E+03  0.11485298741E+03  0.00000000000E+00 0.  1.
</event>
<event>
12    1  0.8691829E-002  0.1888520E+03  0.7818608E-02  0.1160138E+00
         21   -1    0    0  503  502  0.00000000000E+00  0.00000000000E+00  0.42666465270E+02  0.42666465270E+02  0.00000000000E+00 0.  1.
         21   -1    0    0  501  503 -0.00000000000E+00 -0.00000000000E+00 -0.90326411002E+03  0.90326411002E+03  0.00000000000E+00 0.  1.
          6    2    1    2  501    0  0.65200213167E+02 -0.27563634362E+02 -0.56781362463E+03  0.59752340771E+03  0.17207872821E+03 0.  0.
         24    2    3    3    0    0  0.10860214358E+03 -0.25651041636E+02 -0.35913748604E+03  0.38432114131E+03  0.79187147049E+02 0.  0.
         -6    2    1    2    0  502 -0.65200213167E+02  0.27563634362E+02 -0.29278402012E+03  0.34840716758E+03  0.17508355220E+03 0.  0.
        -24    2    5    5    0    0 -0.86884506427E+02  0.43516127249E+02 -0.11986273388E+03  0.17333988956E+03  0.78975132475E+02 0.  0.
          5    1    3    3  501    0 -0.43401930415E+02 -0.19125927267E+01 -0.20867613860E+03  0.21320226639E+03  0.47000000000E+01 0. -1.
        -13    1    4    4    0    0  0.34782093259E+02 -0.26356065166E+02 -0.24169619616E+03  0.24560433103E+03  0.00000000000E+00 0.  1.
         14    1    4    4    0    0  0.73820050324E+02  0.70502353029E+00 -0.11744128988E+03  0.13871681029E+03  0.00000000000E+00 0. -1.
         -5    1    5    5    0  502  0.21684293260E+02 -0.15952492886E+02 -0.17292128623E+03  0.17506727803E+03  0.47000000000E+01 0.  1.
         11    1    6    6    0    0 -0.64620940837E+02  0.38139333592E+02 -0.12854719254E+03  0.14884507204E+03  0.00000000000E+00 0. -1.
        -12    1    6    6    0    0 -0.22263565589E+02  0.53767936563E+01  0.86844586571E+01  0.24494817512E+02  0.00000000000E+00 0.  1.
</event>
<event>
12    1  0.8691829E-002  0.1890071E+03  0.7818608E-02  0.1159821E+00
         21   -1    0    0  503  502  0.00000000000E+00  0.00000000000E+00  0.24825924333E+03  0.24825924333E+03  0.00000000000E+00 0. -1.
         21   -1    0    0  501  503 -0.00000000000E+00 -0.00000000000E+00 -0.43855590640E+03  0.43855590640E+03  0.00000000000E+00 0.  1.
          6    2    1    2  501    0 -0.65068735819E+01  0.77874951090E+02 -0.37719947310E+03  0.42100254808E+03  0.16987305721E+03 0.  0.
         24    2    3    3    0    0  0.37137418955E+02 -0.10034307308E+02 -0.16784440376E+03  0.18973539295E+03  0.79673711174E+02 0.  0.
         -6    2    1    2    0  502  0.65068735819E+01 -0.77874951090E+02  0.18690281004E+03  0.26581260165E+03  0.17209541361E+03 0.  0.
        -24    2    5    5    0    0 -0.36816602862E+02 -0.63138877981E+02  0.44186544586E+02  0.11586561806E+03  0.78296938433E+02 0.  0.
          5    1    3    3  501    0 -0.43644292537E+02  0.87909258398E+02 -0.20935506934E+03  0.23126715513E+03  0.47000000000E+01 0. -1.
        -13    1    4    4    0    0 -0.19746822522E+02 -0.18435477303E+02 -0.82639391736E+02  0.86942928922E+02  0.00000000000E+00 0.  1.
         14    1    4    4    0    0  0.56884241477E+02  0.84011699951E+01 -0.85205012029E+02  0.10279246403E+03  0.00000000000E+00 0. -1.
         -5    1    5    5    0  502  0.43323476444E+02 -0.14736073108E+02  0.14271626545E+03  0.14994698358E+03  0.47000000000E+01 0.  1.
         13    1    6    6    0    0 -0.30454439423E+02 -0.35581699743E+02  0.65450432379E+02  0.80481608680E+02  0.00000000000E+00 0. -1.
        -14    1    6    6    0    0 -0.63621634391E+01 -0.27557178238E+02 -0.21263887793E+02  0.35384009385E+02  0.00000000000E+00 0.  1.
</event>
<event>
12    1  0.8691829E-002  0.2426987E+03  0.7818608E-02  0.1118021E+00
         21   -1    0    0  503  502  0.00000000000E+00  0.00000000000E+00  0.48693263876E+03  0.48693263876E+03  0.00000000000E+00 0. -1.
         21   -1    0    0  501  503 -0.00000000000E+00 -0.00000000000E+00 -0.16048799381E+03  0.16048799381E+03  0.00000000000E+00 0. -1.
          6    2    1    2  501    0  0.25296489120E+02  0.16937765647E+03  0.25224339997E+01  0.24271184318E+03  0.17197085006E+03 0.  0.
         24    2    3    3    0    0  0.59057073704E+01  0.52525021796E+02 -0.54106767847E+02  0.11133643776E+03  0.81697642262E+02 0.  0.
         -6    2    1    2    0  502 -0.25296489120E+02 -0.16937765647E+03  0.32392221095E+03  0.40470878939E+03  0.17185721570E+03 0.  0.
        -24    2    5    5    0    0  0.26114088360E+02 -0.79207580817E+02  0.77948277597E+02  0.13769014601E+03  0.76986075749E+02 0.  0.
          5    1    3    3  501    0  0.19390781750E+02  0.11685263468E+03  0.56629201847E+02  0.13137540542E+03  0.47000000000E+01 0. -1.
        -11    1    4    4    0    0 -0.25110045932E+02  0.75427504542E+01  0.91317004322E+01  0.27763203056E+02  0.00000000000E+00 0.  1.
         12    1    4    4    0    0  0.31015753302E+02  0.44982271342E+02 -0.63238468279E+02  0.83573234700E+02  0.00000000000E+00 0. -1.
         -5    1    5    5    0  502 -0.51410577480E+02 -0.90170075657E+02  0.24597393335E+03  0.26701864338E+03  0.47000000000E+01 0.  1.
         13    1    6    6    0    0  0.33020545218E+02 -0.53086531634E+02  0.88777824980E+02  0.10858194351E+03  0.00000000000E+00 0. -1.
        -14    1    6    6    0    0 -0.69064568576E+01 -0.26121049182E+02 -0.10829547382E+02  0.29108202508E+02  0.00000000000E+00 0.  1.
</event>
<event>
12    1  0.8691829E-002  0.1885764E+03  0.7818608E-02  0.1162070E+00
         21   -1    0    0  501  502  0.00000000000E+00  0.00000000000E+00  0.12405121327E+03  0.12405121327E+03  0.00000000000E+00 0. -1.
         21   -1    0    0  502  503 -0.00000000000E+00 -0.00000000000E+00 -0.54996253124E+03  0.54996253124E+03  0.00000000000E+00 0. -1.
         -6    2    1    2    0  503  0.34245431506E+02  0.36264319772E+02 -0.44974121964E+03  0.48393768956E+03  0.17158284374E+03 0.  0.
        -24    2    3    3    0    0  0.25949450226E+02 -0.33554349581E+02 -0.35124489870E+03  0.36282994772E+03  0.80456968349E+02 0.  0.
          6    2    1    2  501    0 -0.34245431506E+02 -0.36264319772E+02  0.23829901671E+02  0.19007605495E+03  0.18186036397E+03 0.  0.
         24    2    5    5    0    0 -0.43380958410E+02  0.48023093229E+02  0.14785081459E+01  0.10227229287E+03  0.79178979960E+02 0.  0.
          5    1    5    5  501    0  0.91355269040E+01 -0.84287413002E+02  0.22351393525E+02  0.87803762077E+02  0.47000000000E+01 0. -1.
        -13    1    6    6    0    0 -0.13603175038E+02 -0.12406938378E+02 -0.23998494453E+02  0.30247416866E+02  0.00000000000E+00 0.  1.
         14    1    6    6    0    0 -0.29777783371E+02  0.60430031607E+02  0.25477002599E+02  0.72024876008E+02  0.00000000000E+00 0. -1.
         -5    1    3    3    0  503  0.82959812794E+01  0.69818669353E+02 -0.98496320941E+02  0.12110774184E+03  0.47000000000E+01 0.  1.
         13    1    4    4    0    0 -0.16832437746E+02 -0.18767813553E+02 -0.25747568246E+03  0.25870695554E+03  0.00000000000E+00 0. -1.
        -14    1    4    4    0    0  0.42781887972E+02 -0.14786536027E+02 -0.93769216238E+02  0.10412299218E+03  0.00000000000E+00 0.  1.
</event>
<event>
12    1  0.8691829E-002  0.1833826E+03  0.7818608E-02  0.1165368E+00
         21   -1    0    0  503  502  0.00000000000E+00  0.00000000000E+00  0.29739521123E+03  0.29739521123E+03  0.00000000000E+00 0. -1.
         21   -1    0    0  501  503 -0.00000000000E+00 -0.00000000000E+00 -0.19262304236E+03  0.19262304236E+03  0.00000000000E+00 0. -1.
          6    2    1    2  501    0  0.25485389358E+02  0.40876067821E+02 -0.10735769333E+03  0.20961096039E+03  0.17346677608E+03 0.  0.
         24    2    3    3    0    0 -0.17369084829E+02  0.21945524099E+02  0.98326710963E+01  0.83315501407E+02  0.77855637035E+02 0.  0.
         -6    2    1    2    0  502 -0.25485389358E+02 -0.40876067821E+02  0.21212986220E+03  0.28040729320E+03  0.17694296722E+03 0.  0.
        -24    2    5    5    0    0 -0.56831930481E+02  0.29367350130E+02  0.10735776730E+03  0.15034567212E+03  0.83581226072E+02 0.  0.
          5    1    3    3  501    0  0.42854474186E+02  0.18930543722E+02 -0.11719036443E+03  0.12629545898E+03  0.47000000000E+01 0. -1.
        -11    1    4    4    0    0 -0.34256772080E+02 -0.38681866505E+01  0.30627052656E+02  0.46114050524E+02  0.00000000000E+00 0.  1.
         12    1    4    4    0    0  0.16887687251E+02  0.25813710750E+02 -0.20794381560E+02  0.37201450883E+02  0.00000000000E+00 0. -1.
         -5    1    5    5    0  502  0.31346541123E+02 -0.70243417951E+02  0.10477209491E+03  0.13006162108E+03  0.47000000000E+01 0.  1.
         13    1    6    6    0    0 -0.33371946843E+01  0.15469236945E+02  0.91481272793E+02  0.92839956010E+02  0.00000000000E+00 0. -1.
        -14    1    6    6    0    0 -0.53494735796E+02  0.13898113184E+02  0.15876494502E+02  0.57505716113E+02  0.00000000000E+00 0.  1.
</event>
<event>
12    1  0.8691829E-002  0.2623785E+03  0.7818608E-02  0.1105750E+00
         21   -1    0    0  501  502  0.00000000000E+00  0.00000000000E+00  0.13865659268E+03  0.13865659268E+03  0.00000000000E+00 0.  1.
         21   -1    0    0  502  503 -0.00000000000E+00 -0.00000000000E+00 -0.11017923243E+04  0.11017923243E+04  0.00000000000E+00 0.  1.
         -6    2    1    2    0  503 -0.14364511086E+03 -0.13618270387E+03 -0.94133399273E+03  0.97716616645E+03  0.17194296809E+03 0.  0.
        -24    2    3    3    0    0 -0.30867843944E+02 -0.11930943192E+03 -0.57025246684E+03  0.58893040290E+03  0.80396387914E+02 0.  0.
          6    2    1    2  501    0  0.14364511086E+03  0.13618270387E+03 -0.21801738882E+02  0.26328275053E+03  0.17222904576E+03 0.  0.
         24    2    5    5    0    0  0.12103961433E+03  0.11807869649E+03  0.43613003797E+02  0.19158936090E+03  0.78811308254E+02 0.  0.
          5    1    5    5  501    0  0.22605496529E+02  0.18104007378E+02 -0.65414742679E+02  0.71693389628E+02  0.47000000000E+01 0. -1.
        -13    1    6    6    0    0  0.99874532283E+02  0.12439551285E+03  0.22632252943E+02  0.16112536948E+03  0.00000000000E+00 0.  1.
         14    1    6    6    0    0  0.21165082051E+02 -0.63168163623E+01  0.20980750853E+02  0.30463991425E+02  0.00000000000E+00 0. -1.
         -5    1    3    3    0  503 -0.11277726692E+03 -0.16873271946E+02 -0.37108152589E+03  0.38823576355E+03  0.47000000000E+01 0.  1.
         11    1    4    4    0    0 -0.44269560226E+02 -0.24731691601E+02 -0.16766098827E+03  0.17516180383E+03  0.00000000000E+00 0. -1.
        -12    1    4    4    0    0  0.13401716282E+02 -0.94577740322E+02 -0.40259147857E+03  0.41376859907E+03  0.00000000000E+00 0.  1.
</event>
<event>
12    1  0.8691829E-002  0.1778286E+03  0.7818608E-02  0.1170220E+00
         21   -1    0    0  503  502  0.00000000000E+00  0.00000000000E+00  0.50765355219E+03  0.50765355219E+03  0.00000000000E+00 0.  1.
         21   -1    0    0  501  503 -0.00000000000E+00 -0.00000000000E+00 -0.86914155010E+02  0.86914155010E+02  0.00000000000E+00 0.  1.
          6    2    1    2  501    0 -0.34109489329E+02 -0.22309845501E+02  0.51298505424E+02  0.18507981496E+03  0.17309481441E+03 0.  0.
         24    2    3    3    0    0 -0.39839837122E+02  0.50691882161E+02  0.42838904517E+02  0.11121680679E+03  0.79856914751E+02 0.  0.
         -6    2    1    2    0  502  0.34109489329E+02  0.22309845501E+02  0.36944089176E+03  0.40948789224E+03  0.17185044348E+03 0.  0.
        -24    2    5    5    0    0  0.23700019129E+02  0.10366573215E+02  0.71372151200E+02  0.11096140612E+03  0.80927701894E+02 0.  0.
          5    1    3    3  501    0  0.57303477931E+01 -0.73001727663E+02  0.84596009071E+01  0.73863008164E+02  0.47000000000E+01 0. -1.
        -11    1    4    4    0    0 -0.40888031539E+02  0.19191041209E+02  0.60178695670E+02  0.75243621646E+02  0.00000000000E+00 0.  1.
         12    1    4    4    0    0  0.10481944169E+01  0.31500840952E+02 -0.17339791153E+02  0.35973185145E+02  0.00000000000E+00 0. -1.
         -5    1    5    5    0  502  0.10409470200E+02  0.11943272287E+02  0.29806874056E+03  0.29852648613E+03  0.47000000000E+01 0.  1.
         11    1    6    6    0    0  0.12558519241E+02  0.28546706533E+01  0.88364464556E+02  0.89298063508E+02  0.00000000000E+00 0. -1.
        -12    1    6    6    0    0  0.11141499888E+02  0.75119025614E+01 -0.16992313356E+02  0.21663342610E+02  0.00000000000E+00 0.  1.
</event>
<event>
12    1  0.8691829E-002  0.2007829E+03  0.7818608E-02  0.1149177E+00
         21   -1    0    0  503  502  0.00000000000E+00  0.00000000000E+00  0.34423974985E+03  0.34423974985E+03  0.00000000000E+00 0. -1.
         21   -1    0    0  501  503 -0.00000000000E+00 -0.00000000000E+00 -0.19268623373E+03  0.19268623373E+03  0.00000000000E+00 0. -1.
          6    2    1    2  501    0  0.62829917018E+02 -0.80438257755E+02 -0.92601534015E+02  0.22110817278E+03  0.17290421679E+03 0.  0.
         24    2    3    3    0    0  0.10312796049E+02 -0.11296662189E+03 -0.61142212530E+02  0.15162492749E+03  0.79899543546E+02 0.  0.
         -6    2    1    2    0  502 -0.62829917018E+02  0.80438257755E+02  0.24415505014E+03  0.31581781080E+03  0.17236962995E+03 0.  0.
        -24    2    5    5    0    0 -0.59608130867E+02  0.31390983906E+02  0.49891659744E+02  0.11537737121E+03  0.79273179188E+02 0.  0.
          5    1    3    3  501    0  0.52517120969E+02  0.32528364136E+02 -0.31459321485E+02  0.69483245293E+02  0.47000000000E+01 0. -1.
        -11    1    4    4    0    0  0.16122684532E+02 -0.68068444885E+02  0.64753624332E+01  0.70250868067E+02  0.00000000000E+00 0.  1.
         12    1    4    4    0    0 -0.58098884829E+01 -0.44898177006E+02 -0.67617574963E+02  0.81374059421E+02  0.00000000000E+00 0. -1.
         -5    1    5    5    0  502 -0.32217861514E+01  0.49047273849E+02  0.19426339039E+03  0.20044043960E+03  0.47000000000E+01 0.  1.
         11    1    6    6    0    0 -0.69446241121E+02  0.14724373762E+02  0.60530163608E+02  0.93292487880E+02  0.00000000000E+00 0. -1.
        -12    1    6    6    0    0  0.98381102545E+01  0.16666610144E+02 -0.10638503864E+02  0.22084883326E+02  0.00000000000E+00 0.  1.
</event>
<event>
12    1  0.8691829E-002  0.1858863E+03  0.7818608E-02  0.1162448E+00
         21   -1    0    0  503  502  0.00000000000E+00  0.00000000000E+00  0.30552529332E+03  0.30552529332E+03  0.00000000000E+00 0.  1.
         21   -1    0    0  501  503 -0.00000000000E+00 -0.00000000000E+00 -0.12440542167E+03  0.12440542167E+03  0.00000000000E+00 0.  1.
          6    2    1    2  501    0 -0.67631713174E+02  0.20134344725E+02  0.24306077964E+02  0.18746864330E+03  0.17197170212E+03 0.  0.
         24    2    3    3    0    0  0.84297027422E+00 -0.14827453512E+02  0.61475870571E+02  0.10194207964E+03  0.79952116686E+02 0.  0.
         -6    2    1    2    0  502  0.67631713174E+02 -0.20134344725E+02  0.15681379368E+03  0.24246207169E+03  0.17093229611E+03 0.  0.
        -24    2    5    5    0    0  0.99786603373E+02  0.16036216594E+02  0.14133957557E+03  0.19143474669E+03  0.80348367520E+02 0.  0.
          5    1    3    3  501    0 -0.68474683449E+02  0.34961798236E+02 -0.37169792608E+02  0.85526563662E+02  0.47000000000E+01 0. -1.
        -13    1    4    4    0    0  0.25517389763E+02  0.23949341468E+02  0.21848910801E+02  0.41256309096E+02  0.00000000000E+00 0.  1.
         14    1    4    4    0    0 -0.24674419488E+02 -0.38776794980E+02  0.39626959771E+02  0.60685770545E+02  0.00000000000E+00 0. -1.
         -5    1    5    5    0  502 -0.32154890199E+02 -0.36170561319E+02  0.15474218113E+02  0.51027324994E+02  0.47000000000E+01 0.  1.
         13    1    6    6    0    0  0.25088226714E+02 -0.26548165451E+02  0.72896443440E+02  0.81535977793E+02  0.00000000000E+00 0. -1.
        -14    1    6    6    0    0  0.74698376659E+02  0.42584382045E+02  0.68443132129E+02  0.10989876890E+03  0.00000000000E+00 0.  1.
</event>
<event>
12    1  0.8691829E-002  0.1967069E+03  0.7818608E-02  0.1154524E+00
         21   -1    0    0  503  502  0.00000000000E+00  0.00000000000E+00  0.67765027048E+02  0.67765027048E+02  0.00000000000E+00 0.  1.
         21   -1    0    0  501  503 -0.00000000000E+00 -0.00000000000E+00 -0.55110398339E+03  0.55110398339E+03  0.00000000000E+00 0.  1.
          6    2    1    2  501    0  0.87571727209E+02 -0.37312517533E+02 -0.26778136136E+03  0.32704937602E+03  0.16184376879E+03 0.  0.
         24    2    3    3    0    0  0.70156311830E+02 -0.18781259229E+02 -0.27893882548E+03  0.29888409184E+03  0.79058131839E+02 0.  0.
         -6    2    1    2    0  502 -0.87571727209E+02  0.37312517533E+02 -0.21555759499E+03  0.29181963442E+03  0.17214119467E+03 0.  0.
        -24    2    5    5    0    0 -0.57164448410E+02  0.50895880681E+01 -0.22598376301E+03  0.24606250637E+03  0.78641069599E+02 0.  0.
          5    1    3    3  501    0  0.17415415379E+02 -0.18531258304E+02  0.11157464124E+02  0.28165284179E+02  0.47000000000E+01 0. -1.
        -11    1    4    4    0    0  0.71362570626E+02 -0.81751830088E-02 -0.26752724041E+03  0.27688163701E+03  0.00000000000E+00 0.  1.
         12    1    4    4    0    0 -0.12062587966E+01 -0.18773084046E+02 -0.11411585072E+02  0.22002454834E+02  0.00000000000E+00 0. -1.
         -5    1    5    5    0  502 -0.30407278799E+02  0.32222929465E+02  0.10426168024E+02  0.45757128045E+02  0.47000000000E+01 0.  1.
         13    1    6    6    0    0 -0.35963198788E+02  0.40935903425E+02 -0.14695182826E+03  0.15672887317E+03  0.00000000000E+00 0. -1.
        -14    1    6    6    0    0 -0.21201249622E+02 -0.35846315357E+02 -0.79031934759E+02  0.89333633206E+02  0.00000000000E+00 0.  1.
</event>
<event>
12    1  0.8691829E-002  0.1728040E+03  0.7818608E-02  0.1175122E+00
         21   -1    0    0  501  502  0.00000000000E+00  0.00000000000E+00  0.18744060795E+03  0.18744060795E+03  0.00000000000E+00 0. -1.
         21   -1    0    0  502  503 -0.00000000000E+00 -0.00000000000E+00 -0.18419390626E+03  0.18419390626E+03  0.00000000000E+00 0. -1.
         -6    2    1    2    0  503  0.35944770146E+01 -0.49549512806E+01 -0.67496544774E+02  0.18491060193E+03  0.17204265559E+03 0.  0.
        -24    2    3    3    0    0  0.52806647967E+02  0.40963501143E+02 -0.30242516027E+02  0.10783729461E+03  0.79042531829E+02 0.  0.
          6    2    1    2  501    0 -0.35944770146E+01  0.49549512806E+01  0.70743246463E+02  0.18672391229E+03  0.17269551440E+03 0.  0.
         24    2    5    5    0    0 -0.17728697922E+02 -0.17775497492E+02 -0.23200383632E+02  0.88928487358E+02  0.82095937914E+02 0.  0.
          5    1    5    5  501    0  0.14134220908E+02  0.22730448773E+02  0.93943630095E+02  0.97795424932E+02  0.47000000000E+01 0. -1.
        -11    1    6    6    0    0 -0.36860699775E+02  0.18850515341E+02  0.27860268388E+00  0.41402061978E+02  0.00000000000E+00 0.  1.
         12    1    6    6    0    0  0.19132001853E+02 -0.36626012834E+02 -0.23478986316E+02  0.47526425380E+02  0.00000000000E+00 0. -1.
         -5    1    3    3    0  503 -0.49212170953E+02 -0.45918452424E+02 -0.37254028747E+02  0.77073307317E+02  0.47000000000E+01 0.  1.
         13    1    4    4    0    0  0.70725543350E+02  0.19988151412E+02 -0.32073580825E+02  0.80189421160E+02  0.00000000000E+00 0. -1.
        -14    1    4    4    0    0 -0.17918895382E+02  0.20975349732E+02  0.18310647984E+01  0.27647873452E+02  0.00000000000E+00 0.  1.
</event>
<event>
12    1  0.8691829E-002  0.2420193E+03  0.7818608E-02  0.1119737E+00
         21   -1    0    0  501  502  0.00000000000E+00  0.00000000000E+00  0.93507903104E+03  0.93507903104E+03  0.00000000000E+00 0. -1.
         21   -1    0    0  502  503 -0.00000000000E+00 -0.00000000000E+00 -0.69292195942E+02  0.69292195942E+02  0.00000000000E+00 0.  1.
         -6    2    1    2    0  503 -0.16669838403E+03  0.42735113857E+00  0.26191314296E+03  0.35661159905E+03  0.17545598950E+03 0.  0.
        -24    2    3    3    0    0 -0.16193803269E+03 -0.40125981393E+02  0.15304210581E+03  0.24024052680E+03  0.80371660128E+02 0.  0.
          6    2    1    2  501    0  0.16669838403E+03 -0.42735113857E+00  0.60387369213E+03  0.64775962794E+03  0.16474393969E+03 0.  0.
         24    2    5    5    0    0  0.15422886410E+03  0.35443425352E+02  0.36474429718E+03  0.40558787263E+03  0.80127031525E+02 0.  0.
          5    1    5    5  501    0  0.12469519926E+02 -0.35870776490E+02  0.23912939496E+03  0.24217175530E+03  0.47000000000E+01 0. -1.
        -13    1    6    6    0    0  0.37461537925E+02 -0.25156660880E+02  0.10955119803E+03  0.11848075540E+03  0.00000000000E+00 0.  1.
         14    1    6    6    0    0  0.11676732618E+03  0.60600086231E+02  0.25519309915E+03  0.28710711723E+03  0.00000000000E+00 0. -1.
         -5    1    3    3    0  503 -0.47603513349E+01  0.40553332531E+02  0.10887103716E+03  0.11637107225E+03  0.47000000000E+01 0.  1.
         13    1    4    4    0    0 -0.77639311937E+02  0.14826754256E+02  0.96764298046E+02  0.12494408660E+03  0.00000000000E+00 0. -1.
        -14    1    4    4    0    0 -0.84298720756E+02 -0.54952735649E+02  0.56277807761E+02  0.11529644020E+03  0.00000000000E+00 0.  1.
</event>
<event>
12    1  0.8691829E-002  0.2041872E+03  0.7818608E-02  0.1146557E+00
         21   -1    0    0  501  502  0.00000000000E+00  0.00000000000E+00  0.60566449222E+03  0.60566449222E+03  0.00000000000E+00 0.  1.
         21   -1    0    0  502  503 -0.00000000000E+00 -0.00000000000E+00 -0.24905039422E+03  0.24905039422E+03  0.00000000000E+00 0. -1.
         -6    2    1    2    0  503 -0.10176253623E+03  0.26027332556E+02 -0.18554492753E+03  0.27589729998E+03  0.17509815586E+03 0.  0.
        -24    2    3    3    0    0 -0.54482043870E+02  0.82291868313E+02 -0.91882117568E+02  0.15675052112E+03  0.79925951037E+02 0.  0.
          6    2    1    2  501    0  0.10176253623E+03 -0.26027332556E+02  0.54215902553E+03  0.57881758645E+03  0.17337921905E+03 0.  0.
         24    2    5    5    0    0  0.36140054205E+02 -0.10719215163E+01  0.11460639675E+03  0.14551350955E+03  0.82050610906E+02 0.  0.
          5    1    5    5  501    0  0.65622482023E+02 -0.24955411039E+02  0.42755262878E+03  0.43330407691E+03  0.47000000000E+01 0. -1.
        -11    1    6    6    0    0  0.56946180322E+02  0.63160101761E+01  0.10834852074E+03  0.12256492722E+03  0.00000000000E+00 0.  1.
         12    1    6    6    0    0 -0.20806126117E+02 -0.73879316924E+01  0.62578760158E+01  0.22948582329E+02  0.00000000000E+00 0. -1.
         -5    1    3    3    0  503 -0.47280492358E+02 -0.56264535758E+02 -0.93662809966E+02  0.11914677886E+03  0.47000000000E+01 0.  1.
         13    1    4    4    0    0 -0.48900364048E+02  0.76163173959E+01 -0.21415430621E+02  0.53924711991E+02  0.00000000000E+00 0. -1.
        -14    1    4    4    0    0 -0.55816798225E+01  0.74675550918E+02 -0.70466686947E+02  0.10282580913E+03  0.00000000000E+00 0.  1.
</event>
<event>
12    1  0.8691829E-002  0.2194215E+03  0.7818608E-02  0.1134703E+00
         21   -1    0    0  501  502  0.00000000000E+00  0.00000000000E+00  0.22994264602E+03  0.22994264602E+03  0.00000000000E+00 0. -1.
         21   -1    0    0  502  503 -0.00000000000E+00 -0.00000000000E+00 -0.25968441552E+03  0.25968441552E+03  0.00000000000E+00 0.  1.
         -6    2    1    2    0  503  0.75181096584E+02  0.11001964820E+03 -0.12464354538E+03  0.25056192660E+03  0.17172287379E+03 0.  0.
        -24    2    3    3    0    0  0.26238024509E+01  0.57748347854E+02 -0.12593291125E+03  0.16100411155E+03  0.81984570386E+02 0.  0.
          6    2    1    2  501    0 -0.75181096584E+02 -0.11001964820E+03  0.94901775876E+02  0.23906513494E+03  0.17432518868E+03 0.  0.
         24    2    5    5    0    0 -0.11223383914E+03 -0.63429642638E+02  0.94518254443E+02  0.17935105421E+03  0.81322481592E+02 0.  0.
          5    1    5    5  501    0  0.37052742553E+02 -0.46590005559E+02  0.38352143363E+00  0.59714080729E+02  0.47000000000E+01 0. -1.
        -11    1    6    6    0    0 -0.21636486605E+00 -0.34051964670E+02  0.85098804431E+01  0.35099874313E+02  0.00000000000E+00 0.  1.
         12    1    6    6    0    0 -0.11201747427E+03 -0.29377677968E+02  0.86008374000E+02  0.14425117990E+03  0.00000000000E+00 0. -1.
         -5    1    3    3    0  503  0.72557294133E+02  0.52271300342E+02  0.12893658686E+01  0.89557815046E+02  0.47000000000E+01 0.  1.
         13    1    4    4    0    0  0.10399885306E+02 -0.19758515713E+02 -0.30977978449E+02  0.38186276414E+02  0.00000000000E+00 0. -1.
        -14    1    4    4    0    0 -0.77760828555E+01  0.77506863567E+02 -0.94954932802E+02  0.12281783514E+03  0.00000000000E+00 0.  1.
</event>
<event>
12    1  0.8691829E-002  0.1897138E+03  0.7818608E-02  0.1159136E+00
         21   -1    0    0  501  502  0.00000000000E+00  0.00000000000E+00  0.94354749027E+02  0.94354749027E+02  0.00000000000E+00 0.  1.
         21   -1    0    0  502  503 -0.00000000000E+00 -0.00000000000E+00 -0.60710811573E+03  0.60710811573E+03  0.00000000000E+00 0.  1.
         -6    2    1    2    0  503  0.16428892603E+02 -0.77534220276E+02 -0.47271295261E+03  0.50936124332E+03  0.17236553255E+03 0.  0.
        -24    2    3    3    0    0 -0.22136097949E+01 -0.11969598309E+03 -0.36093062464E+03  0.38835489644E+03  0.78845300127E+02 0.  0.
          6    2    1    2  501    0 -0.16428892603E+02  0.77534220276E+02 -0.40040414092E+02  0.19210162143E+03  0.17034768672E+03 0.  0.
         24    2    5    5    0    0 -0.39837113033E+02  0.10426963203E+03 -0.61146927252E+02  0.15050472343E+03  0.80334135487E+02 0.  0.
          5    1    5    5  501    0  0.23408220430E+02 -0.26735411753E+02  0.21106513161E+02  0.41596897998E+02  0.47000000000E+01 0. -1.
        -11    1    6    6    0    0  0.52475365203E+01  0.86539465339E+02 -0.52318317061E+02  0.10126115741E+03  0.00000000000E+00 0.  1.
         12    1    6    6    0    0 -0.45084649553E+02  0.17730166690E+02 -0.88286101909E+01  0.49243566017E+02  0.00000000000E+00 0. -1.
         -5    1    3    3    0  503  0.18642502398E+02  0.42161762815E+02 -0.11178232797E+03  0.12100634688E+03  0.47000000000E+01 0.  1.
         11    1    4    4    0    0 -0.32200776819E+02 -0.36853477607E+02 -0.18812067103E+03  0.19438224124E+03  0.00000000000E+00 0. -1.
        -12    1    4    4    0    0  0.29987167025E+02 -0.82842505485E+02 -0.17280995361E+03  0.19397265520E+03  0.00000000000E+00 0.  1.
</event>
<event>
12    1  0.8691829E-002  0.1990735E+03  0.7818608E-02  0.1150700E+00
         21   -1    0    0  501  502  0.00000000000E+00  0.00000000000E+00  0.66194957523E+03  0.66194957523E+03  0.00000000000E+00 0.  1.
         21   -1    0    0  502  503 -0.00000000000E+00 -0.00000000000E+00 -0.10062949760E+03  0.10062949760E+03  0.00000000000E+00 0.  1.
         -6    2    1    2    0  503 -0.31788721923E+02  0.94941506817E+02  0.37597678755E+02  0.20259280175E+03  0.17206349210E+03 0.  0.
        -24    2    3    3    0    0 -0.33725091333E+02  0.24104596955E+02 -0.38214631440E+02  0.98712034989E+02  0.81026504403E+02 0.  0.
          6    2    1    2  501    0  0.31788721923E+02 -0.94941506817E+02  0.52372239888E+03  0.55998627109E+03  0.17109956214E+03 0.  0.
         24    2    5    5    0    0  0.13812738019E+02 -0.11647035746E+03  0.27460956919E+03  0.30925550050E+03  0.80451309483E+02 0.  0.
          5    1    5    5  501    0  0.17975983905E+02  0.21528850647E+02  0.24911282969E+03  0.25073077059E+03  0.47000000000E+01 0. -1.
        -13    1    6    6    0    0  0.25748869833E+02 -0.11086035016E+03  0.27324083636E+03  0.29599590570E+03  0.00000000000E+00 0.  1.
         14    1    6    6    0    0 -0.11936131814E+02 -0.56100073053E+01  0.13687328286E+01  0.13259594798E+02  0.00000000000E+00 0. -1.
         -5    1    3    3    0  503  0.19363694102E+01  0.70836909862E+02  0.75812310195E+02  0.10388076676E+03  0.47000000000E+01 0.  1.
         13    1    4    4    0    0 -0.24564505647E+02 -0.22262589743E+02  0.63469536733E+01  0.33753839200E+02  0.00000000000E+00 0. -1.
        -14    1    4    4    0    0 -0.91605856860E+01  0.46367186698E+02 -0.44561585113E+02  0.64958195790E+02  0.00000000000E+00 0.  1.
</event>
<event>
12    1  0.8691829E-002  0.2415357E+03  0.7818608E-02  0.1119262E+00
         21   -1    0    0  503  502  0.00000000000E+00  0.00000000000E+00  0.15565294054E+04  0.15565294054E+04  0.00000000000E+00 0. -1.
         21   -1    0    0  501  503 -0.00000000000E+00 -0.00000000000E+00 -0.37335527113E+02  0.37335527113E+02  0.00000000000E+00 0. -1.
          6    2    1    2  501    0  0.69650509343E+02 -0.15546851367E+03  0.82747490353E+03  0.86118858731E+03  0.16706111082E+03 0.  0.
         24    2    3    3    0    0 -0.52234497310E+01 -0.16898566312E+02  0.27229250269E+03  0.28407739502E+03  0.79018436917E+02 0.  0.
         -6    2    1    2    0  502 -0.69650509343E+02  0.15546851367E+03  0.69171897480E+03  0.73267634524E+03  0.17122451515E+03 0.  0.
        -24    2    5    5    0    0  0.23079426306E+02  0.67019523794E+02  0.24425007316E+03  0.26719533305E+03  0.81920518054E+02 0.  0.
          5    1    3    3  501    0  0.74873959074E+02 -0.13856994736E+03  0.55518240084E+03  0.57711119229E+03  0.47000000000E+01 0. -1.
        -13    1    4    4    0    0 -0.29065406666E+02 -0.12324081260E+02  0.42171452510E+02  0.52679334186E+02  0.00000000000E+00 0.  1.
         14    1    4    4    0    0  0.23841956935E+02 -0.45744850522E+01  0.23012105018E+03  0.23139806084E+03  0.00000000000E+00 0. -1.
         -5    1    5    5    0  502 -0.92729935649E+02  0.88448989879E+02  0.44746890164E+03  0.46548101219E+03  0.47000000000E+01 0.  1.
         13    1    6    6    0    0  0.16377022608E+01  0.58744021069E+02  0.23530541441E+03  0.24253284341E+03  0.00000000000E+00 0. -1.
        -14    1    6    6    0    0  0.21441724045E+02  0.82755027242E+01  0.89446587485E+01  0.24662489645E+02  0.00000000000E+00 0.  1.
</event>
<event>
12    1  0.8691829E-002  0.1904349E+03  0.7818608E-02  0.1158401E+00
         21   -1    0    0  501  502  0.00000000000E+00  0.00000000000E+00  0.44552935406E+03  0.44552935406E+03  0.00000000000E+00 0. -1.
         21   -1    0    0  502  503 -0.00000000000E+00 -0.00000000000E+00 -0.12035725950E+03  0.12035725950E+03  0.00000000000E+00 0. -1.
         -6    2    1    2    0  503 -0.63522193574E+02 -0.46893666791E+02  0.74276721475E+00  0.19043631634E+03  0.17329556779E+03 0.  0.
        -24    2    3    3    0    0 -0.81014170379E+02 -0.76881684385E+02  0.34070225581E+02  0.14208282698E+03  0.80948503729E+02 0.  0.
          6    2    1    2  501    0  0.63522193574E+02  0.46893666791E+02  0.32442932735E+03  0.37545029722E+03  0.17168125168E+03 0.  0.
         24    2    5    5    0    0  0.55426549645E+01 -0.33945283845E+02  0.13280934110E+03  0.15949457961E+03  0.81346152481E+02 0.  0.
          5    1    5    5  501    0  0.57979538609E+02  0.80838950636E+02  0.19161998625E+03  0.21595571761E+03  0.47000000000E+01 0. -1.
        -11    1    6    6    0    0 -0.34825488899E+02  0.98916472986E+00  0.56067592526E+02  0.66010363244E+02  0.00000000000E+00 0.  1.
         12    1    6    6    0    0  0.40368143863E+02 -0.34934448575E+02  0.76741748573E+02  0.93484216370E+02  0.00000000000E+00 0. -1.
         -5    1    3    3    0  503  0.17491976805E+02  0.29988017593E+02 -0.33327458367E+02  0.48353489356E+02  0.47000000000E+01 0.  1.
         13    1    4    4    0    0 -0.21562691586E+02  0.16430850237E+02  0.37996729594E+01  0.27374441045E+02  0.00000000000E+00 0. -1.
        -14    1    4    4    0    0 -0.59451478793E+02 -0.93312534622E+02  0.30270552622E+02  0.11470838594E+03  0.00000000000E+00 0.  1.
</event>
<event>
12    1  0.8691829E-002  0.2592354E+03  0.7818608E-02  0.1108121E+00
         21   -1    0    0  501  502  0.00000000000E+00  0.00000000000E+00  0.15181455774E+04  0.15181455774E+04  0.00000000000E+00 0.  1.
         21   -1    0    0  502  503 -0.00000000000E+00 -0.00000000000E+00 -0.43711715923E+02  0.43711715923E+02  0.00000000000E+00 0. -1.
         -6    2    1    2    0  503  0.39360447719E+02 -0.18592120398E+03  0.76092258374E+03  0.80386949696E+03  0.17631520288E+03 0.  0.
        -24    2    3    3    0    0 -0.11154821915E+02 -0.17688348269E+03  0.47889730102E+03  0.51717484587E+03  0.81945102199E+02 0.  0.
          6    2    1    2  501    0 -0.39360447719E+02  0.18592120398E+03  0.71351127772E+03  0.75798779634E+03  0.17126358936E+03 0.  0.
         24    2    5    5    0    0 -0.55533367958E+02  0.17594240802E+03  0.44075764597E+03  0.48453254708E+03  0.80403984993E+02 0.  0.
          5    1    5    5  501    0  0.16172920239E+02  0.99787959603E+01  0.27275363174E+03  0.27345524926E+03  0.47000000000E+01 0. -1.
        -13    1    6    6    0    0 -0.38056127689E+02  0.48125692092E+02  0.22437094626E+03  0.23260841046E+03  0.00000000000E+00 0.  1.
         14    1    6    6    0    0 -0.17477240270E+02  0.12781671592E+03  0.21638669972E+03  0.25192413662E+03  0.00000000000E+00 0. -1.
         -5    1    3    3    0  503  0.50515269634E+02 -0.90377212895E+01  0.28202528272E+03  0.28669465109E+03  0.47000000000E+01 0.  1.
         11    1    4    4    0    0 -0.42632770568E+02 -0.58396376775E+02  0.16268024831E+03  0.17802402404E+03  0.00000000000E+00 0. -1.
        -12    1    4    4    0    0  0.31477948653E+02 -0.11848710591E+03  0.31621705271E+03  0.33915082182E+03  0.00000000000E+00 0.  1.
</event>
<event>
12    1  0.8691829E-002  0.1890291E+03  0.7818608E-02  0.1160324E+00
         21   -1    0    0  501  502  0.00000000000E+00  0.00000000000E+00  0.12329523564E+04  0.12329523564E+04  0.00000000000E+00 0.  1.
         21   -1    0    0  502  503 -0.00000000000E+00 -0.00000000000E+00 -0.39961642992E+02  0.39961642992E+02  0.00000000000E+00 0. -1.
         -6    2    1    2    0  503  0.79550747169E+02  0.79250630806E+01  0.25795438123E+03  0.31980066834E+03  0.17129178810E+03 0.  0.
        -24    2    3    3    0    0  0.84628153304E+02  0.23233509935E+02  0.82384018497E+02  0.14342841749E+03  0.77992718405E+02 0.  0.
          6    2    1    2  501    0 -0.79550747169E+02 -0.79250630806E+01  0.93503633220E+03  0.95311333107E+03  0.16655615073E+03 0.  0.
         24    2    5    5    0    0 -0.10079977807E+03  0.37275379496E+02  0.63289482140E+03  0.64683537909E+03  0.79310172857E+02 0.  0.
          5    1    5    5  501    0  0.21249030898E+02 -0.45200442577E+02  0.30214151080E+03  0.30627795198E+03  0.47000000000E+01 0. -1.
        -13    1    6    6    0    0 -0.46998958782E+02 -0.19654553938E-01  0.45241946606E+03  0.45485412583E+03  0.00000000000E+00 0.  1.
         14    1    6    6    0    0 -0.53800819285E+02  0.37295034050E+02  0.18047535533E+03  0.19198125326E+03  0.00000000000E+00 0. -1.
         -5    1    3    3    0  503 -0.50774061347E+01 -0.15308446855E+02  0.17557036274E+03  0.17637225085E+03  0.47000000000E+01 0.  1.
         13    1    4    4    0    0  0.58194134954E+02 -0.20025760426E+02  0.23877436979E+02  0.66013032201E+02  0.00000000000E+00 0. -1.
        -14    1    4    4    0    0  0.26434018349E+02  0.43259270362E+02  0.58506581519E+02  0.77415385288E+02  0.00000000000E+00 0.  1.
</event>
<event>
12    1  0.8691829E-002  0.1756729E+03  0.7818608E-02  0.1172309E+00
         21   -1    0    0  503  502  0.00000000000E+00  0.00000000000E+00  0.32251149164E+03  0.32251149164E+03  0.00000000000E+00 0.  1.
         21   -1    0    0  501  503 -0.00000000000E+00 -0.00000000000E+00 -0.16421674268E+03  0.16421674268E+03  0.00000000000E+00 0.  1.
          6    2    1    2  501    0 -0.11665289361E+02 -0.28361146765E+02 -0.78555680296E+02  0.19243687101E+03  0.17297549189E+03 0.  0.
         24    2    3    3    0    0 -0.48303121574E+02 -0.25367828491E+02 -0.10779443484E+03  0.14523215227E+03  0.80597888279E+02 0.  0.
         -6    2    1    2    0  502  0.11665289361E+02  0.28361146765E+02  0.23685042926E+03  0.29429136331E+03  0.17195594510E+03 0.  0.
        -24    2    5    5    0    0  0.50613042610E+02 -0.63100778739E+01  0.69479379667E+02  0.11892266729E+03  0.81937289627E+02 0.  0.
          5    1    3    3  501    0  0.36637832213E+02 -0.29933182740E+01  0.29238754547E+02  0.47204718737E+02  0.47000000000E+01 0. -1.
        -11    1    4    4    0    0  0.20388130706E+02  0.31014292597E+01 -0.11639336120E+02  0.23680559167E+02  0.00000000000E+00 0.  1.
         12    1    4    4    0    0 -0.68691252280E+02 -0.28469257751E+02 -0.96155098723E+02  0.12155159311E+03  0.00000000000E+00 0. -1.
         -5    1    5    5    0  502 -0.38947753249E+02  0.34671224639E+02  0.16737104959E+03  0.17536869602E+03  0.47000000000E+01 0.  1.
         11    1    6    6    0    0  0.66924537189E+01  0.34652675077E+02  0.17033356575E+02  0.39188417459E+02  0.00000000000E+00 0. -1.
        -12    1    6    6    0    0  0.43920588891E+02 -0.40962752951E+02  0.52446023092E+02  0.79734249831E+02  0.00000000000E+00 0.  1.
</event>
<event>
12    1  0.8691829E-002  0.1829884E+03  0.7818608E-02  0.1165170E+00
         21   -1    0    0  501  502  0.00000000000E+00  0.00000000000E+00  0.22107834069E+03  0.22107834069E+03  0.00000000000E+00 0. -1.
         21   -1    0    0  502  503 -0.00000000000E+00 -0.00000000000E+00 -0.26150319165E+03  0.26150319165E+03  0.00000000000E+00 0. -1.
         -6    2    1    2    0  503  0.58094495658E+02 -0.22736579122E+02 -0.17733149097E+03  0.25481601175E+03  0.17202563675E+03 0.  0.
        -24    2    3    3    0    0  0.79490445512E+01 -0.41882056839E+02 -0.17966554435E+03  0.20088407883E+03  0.79103800822E+02 0.  0.
          6    2    1    2  501    0 -0.58094495658E+02  0.22736579122E+02  0.13690664001E+03  0.22776552058E+03  0.17100228604E+03 0.  0.
         24    2    5    5    0    0 -0.90380689431E+02 -0.11045430417E+02  0.13406023781E+03  0.18071433056E+03  0.79967814489E+02 0.  0.
          5    1    5    5  501    0  0.32286193773E+02  0.33782009539E+02  0.28464022015E+01  0.47051190020E+02  0.47000000000E+01 0. -1.
        -11    1    6    6    0    0 -0.65801116558E+02 -0.38072880842E+02  0.55658688053E+02  0.94219004196E+02  0.00000000000E+00 0.  1.
         12    1    6    6    0    0 -0.24579572873E+02  0.27027450425E+02  0.78401549758E+02  0.86495326368E+02  0.00000000000E+00 0. -1.
         -5    1    3    3    0  503  0.50145451107E+02  0.19145477718E+02  0.23340533813E+01  0.53931932924E+02  0.47000000000E+01 0.  1.
         13    1    4    4    0    0  0.20138156405E+02  0.16687169294E+02 -0.30551367598E+02  0.40216825143E+02  0.00000000000E+00 0. -1.
        -14    1    4    4    0    0 -0.12189111854E+02 -0.58569226133E+02 -0.14911417676E+03  0.16066725369E+03  0.00000000000E+00 0.  1.
</event>
<event>
12    1  0.8691829E-002  0.1775620E+03  0.7818608E-02  0.1170708E+00
         21   -1    0    0  501  502  0.00000000000E+00  0.00000000000E+00  0.88687460089E+03  0.88687460089E+03  0.00000000000E+00 0. -1.
         21   -1    0    0  502  503 -0.00000000000E+00 -0.00000000000E+00 -0.65663626535E+02  0.65663626535E+02  0.00000000000E+00 0. -1.
         -6    2    1    2    0  503 -0.56959754086E+01 -0.34597393607E+02  0.87139704556E+02  0.19779176767E+03  0.17406559531E+03 0.  0.
        -24    2    3    3    0    0  0.94078377283E+01 -0.68196913509E+02  0.11145586881E+03  0.15340236857E+03  0.79815722554E+02 0.  0.
          6    2    1    2  501    0  0.56959754086E+01  0.34597393607E+02  0.73407126980E+03  0.75474645975E+03  0.17190743318E+03 0.  0.
         24    2    5    5    0    0  0.13086860539E+02  0.35843446966E+02  0.17527618341E+03  0.19588134507E+03  0.78687624614E+02 0.  0.
          5    1    5    5  501    0 -0.73908851300E+01 -0.12460533594E+01  0.55879508639E+03  0.55886511468E+03  0.47000000000E+01 0. -1.
        -11    1    6    6    0    0  0.42129181937E+02  0.31644982806E+02  0.76882146705E+02  0.93204814197E+02  0.00000000000E+00 0.  1.
         12    1    6    6    0    0 -0.29042321399E+02  0.41984641598E+01  0.98394036706E+02  0.10267653088E+03  0.00000000000E+00 0. -1.
         -5    1    3    3    0  503 -0.15103813137E+02  0.33599519902E+02 -0.24316164257E+02  0.44389399107E+02  0.47000000000E+01 0.  1.
         11    1    4    4    0    0  0.11470640667E+02 -0.42608970052E+02  0.56019261355E+01  0.44480124804E+02  0.00000000000E+00 0. -1.
        -12    1    4    4    0    0 -0.20628029383E+01 -0.25587943457E+02  0.10585394268E+03  0.10892224376E+03  0.00000000000E+00 0.  1.
</event>
<event>
12    1  0.8691829E-002  0.2050399E+03  0.7818608E-02  0.1145692E+00
         21   -1    0    0  503  502  0.00000000000E+00  0.00000000000E+00  0.90832506856E+02  0.90832506856E+02  0.00000000000E+00 0. -1.
         21   -1    0    0  501  503 -0.00000000000E+00 -0.00000000000E+00 -0.46687321195E+03  0.46687321195E+03  0.00000000000E+00 0. -1.
          6    2    1    2  501    0  0.10203020734E+03  0.50233451073E+02 -0.21808352976E+03  0.29887791232E+03  0.16980582352E+03 0.  0.
         24    2    3    3    0    0 -0.89236793982E+01  0.27013171812E+02 -0.12880197384E+03  0.15450605710E+03  0.80453898043E+02 0.  0.
         -6    2    1    2    0  502 -0.10203020734E+03 -0.50233451073E+02 -0.15795717533E+03  0.25882780648E+03  0.17061008574E+03 0.  0.
        -24    2    5    5    0    0 -0.49249804480E+02 -0.93193730747E+00 -0.16018035270E+03  0.18641618654E+03  0.81650704001E+02 0.  0.
          5    1    3    3  501    0  0.11095388674E+03  0.23220279262E+02 -0.89281555926E+02  0.14437185522E+03  0.47000000000E+01 0. -1.
        -13    1    4    4    0    0  0.30546662701E+02 -0.64697999380E+01 -0.66814405873E+02  0.73750401663E+02  0.00000000000E+00 0.  1.
         14    1    4    4    0    0 -0.39470342099E+02  0.33482971750E+02 -0.61987567964E+02  0.80755655435E+02  0.00000000000E+00 0. -1.
         -5    1    5    5    0  502 -0.52780402860E+02 -0.49301513766E+02  0.22231773716E+01  0.72411619947E+02  0.47000000000E+01 0.  1.
         13    1    6    6    0    0 -0.51488208975E+02  0.19562837474E+02 -0.50211463713E+02  0.74531411913E+02  0.00000000000E+00 0. -1.
        -14    1    6    6    0    0  0.22384044950E+01 -0.20494774781E+02 -0.10996888899E+03  0.11188477462E+03  0.00000000000E+00 0.  1.
</event>
<event>
12    1  0.8691829E-002  0.1791501E+03  0.7818608E-02  0.1169227E+00
         21   -1    0    0  501  502  0.00000000000E+00  0.00000000000E+00  0.54153706975E+03  0.54153706975E+03  0.00000000000E+00 0. -1.
         21   -1    0    0  502  503 -0.00000000000E+00 -0.00000000000E+00 -0.80710658149E+02  0.80710658149E+02  0.00000000000E+00 0. -1.
         -6    2    1    2    0  503 -0.39355671854E+02  0.14947927336E+02  0.65916980563E+02  0.18860245341E+03  0.17162030086E+03 0.  0.
        -24    2    3    3    0    0  0.12142244420E+02 -0.11035245699E+02 -0.21499428038E+02  0.83765059533E+02  0.79278931914E+02 0.  0.
          6    2    1    2  501    0  0.39355671854E+02 -0.14947927336E+02  0.39490943103E+03  0.43364527449E+03  0.17413344288E+03 0.  0.
         24    2    5    5    0    0  0.70557204198E+02  0.76308755941E+01  0.37523201689E+03  0.39014092310E+03  0.79839364055E+02 0.  0.
          5    1    5    5  501    0 -0.31201532344E+02 -0.22578802930E+02  0.19677414148E+02  0.43504351390E+02  0.47000000000E+01 0. -1.
        -13    1    6    6    0    0  0.13234064565E+02 -0.29310958097E+02  0.65236580234E+02  0.72732964535E+02  0.00000000000E+00 0.  1.
         14    1    6    6    0    0  0.57323139633E+02  0.36941833691E+02  0.30999543665E+03  0.31740795856E+03  0.00000000000E+00 0. -1.
         -5    1    3    3    0  503 -0.51497916274E+02  0.25983173034E+02  0.87416408601E+02  0.10483739387E+03  0.47000000000E+01 0.  1.
         13    1    4    4    0    0 -0.20079241749E+02  0.25097878482E+02 -0.12695445856E+02  0.34557977357E+02  0.00000000000E+00 0. -1.
        -14    1    4    4    0    0  0.32221486169E+02 -0.36133124180E+02 -0.88039821821E+01  0.49207082176E+02  0.00000000000E+00 0.  1.
</event>
<event>
12    1  0.8691829E-002  0.2210234E+03  0.7818608E-02  0.1133390E+00
         21   -1    0    0  501  502  0.00000000000E+00  0.00000000000E+00  0.20830198004E+03  0.20830198004E+03  0.00000000000E+00 0. -1.
         21   -1    0    0  502  503 -0.00000000000E+00 -0.00000000000E+00 -0.23300711824E+03  0.23300711824E+03  0.00000000000E+00 0. -1.
         -6    2    1    2    0  503  0.99278202835E+02  0.95020625629E+02 -0.10787791604E+02  0.21984795737E+03  0.17126490318E+03 0.  0.
        -24    2    3    3    0    0  0.98136231978E+02  0.96795348133E+02  0.43989086450E+02  0.16482932319E+03  0.78953192534E+02 0.  0.
          6    2    1    2  501    0 -0.99278202835E+02 -0.95020625629E+02 -0.13917346595E+02  0.22146114091E+03  0.17310766460E+03 0.  0.
         24    2    5    5    0    0 -0.62230686669E+02 -0.72342438316E+02 -0.75468091129E+02  0.14597999898E+03  0.80676146285E+02 0.  0.
          5    1    5    5  501    0 -0.37047516167E+02 -0.22678187313E+02  0.61550744534E+02  0.75481141927E+02  0.47000000000E+01 0. -1.
        -13    1    6    6    0    0  0.17862082656E+02 -0.62807630633E+01 -0.22565119458E+02  0.29456520460E+02  0.00000000000E+00 0.  1.
         14    1    6    6    0    0 -0.80092769324E+02 -0.66061675253E+02 -0.52902971671E+02  0.11652347852E+03  0.00000000000E+00 0. -1.
         -5    1    3    3    0  503  0.11419708576E+01 -0.17747225038E+01 -0.54776878054E+02  0.55018634177E+02  0.47000000000E+01 0.  1.
         13    1    4    4    0    0  0.36367072746E+02  0.28394481001E+01 -0.13057333974E+02  0.38744295272E+02  0.00000000000E+00 0. -1.
        -14    1    4    4    0    0  0.61769159232E+02  0.93955900032E+02  0.57046420424E+02  0.12608502792E+03  0.00000000000E+00 0.  1.
</event>
<event>
12    1  0.8691829E-002  0.2389090E+03  0.7818608E-02  0.1120764E+00
         21   -1    0    0  501  502  0.00000000000E+00  0.00000000000E+00  0.34256332178E+03  0.34256332178E+03  0.00000000000E+00 0.  1.
         21   -1    0    0  502  503 -0.00000000000E+00 -0.00000000000E+00 -0.50053068526E+03  0.50053068526E+03  0.00000000000E+00 0. -1.
         -6    2    1    2    0  503  0.13969520298E+03  0.83715965735E+02 -0.42388802320E+03  0.48657842442E+03  0.17479815287E+03 0.  0.
        -24    2    3    3    0    0  0.13185226333E+03  0.75692366046E+02 -0.20746851492E+03  0.26981730379E+03  0.81509748602E+02 0.  0.
          6    2    1    2  501    0 -0.13969520298E+03 -0.83715965735E+02  0.26592065972E+03  0.35651558263E+03  0.17281912723E+03 0.  0.
         24    2    5    5    0    0 -0.99815221387E+02 -0.10956985103E+03  0.11874579797E+03  0.20178560412E+03  0.68177964322E+02 0.  0.
          5    1    5    5  501    0 -0.39879981597E+02  0.25853885299E+02  0.14717486175E+03  0.15472997851E+03  0.47000000000E+01 0. -1.
        -13    1    6    6    0    0 -0.10554039642E+03 -0.10703884642E+03  0.12298966373E+03  0.19422293197E+03  0.00000000000E+00 0.  1.
         14    1    6    6    0    0  0.57251750303E+01 -0.25310046189E+01 -0.42438657605E+01  0.75626721535E+01  0.00000000000E+00 0. -1.
         -5    1    3    3    0  503  0.78429396494E+01  0.80235996891E+01 -0.21641950828E+03  0.21676112063E+03  0.47000000000E+01 0.  1.
         11    1    4    4    0    0  0.12301192091E+03  0.45994663026E+02 -0.19766845273E+03  0.23731889709E+03  0.00000000000E+00 0. -1.
        -12    1    4    4    0    0  0.88403424211E+01  0.29697703020E+02 -0.98000621906E+01  0.32498406695E+02  0.00000000000E+00 0.  1.
</event>
<event>
12    1  0.8691829E-002  0.1947324E+03  0.7818608E-02  0.1154525E+00
         21   -1    0    0  501  502  0.00000000000E+00  0.00000000000E+00  0.97984873768E+03  0.97984873768E+03  0.00000000000E+00 0.  1.
         21   -1    0    0  502  503 -0.00000000000E+00 -0.00000000000E+00 -0.72239977425E+02  0.72239977425E+02  0.00000000000E+00 0.  1.
         -6    2    1    2    0  503 -0.70013432226E+01  0.92618178121E+02  0.94844943751E+02  0.21660168186E+03  0.17115367219E+03 0.  0.
        -24    2    3    3    0    0 -0.58732573873E+02  0.83772972895E+02  0.93519573712E+02  0.16389300623E+03  0.87450446562E+02 0.  0.
          6    2    1    2  501    0  0.70013432226E+01 -0.92618178121E+02  0.81276381650E+03  0.83548703324E+03  0.16978343730E+03 0.  0.
         24    2    5    5    0    0 -0.55900684063E+02 -0.56430555026E+02  0.59914484422E+03  0.60982940670E+03  0.81290017190E+02 0.  0.
          5    1    5    5  501    0  0.62902027286E+02 -0.36187623095E+02  0.21361897228E+03  0.22565762655E+03  0.47000000000E+01 0. -1.
        -13    1    6    6    0    0 -0.16226517680E+02 -0.62673653342E+02  0.47392525632E+03  0.47832670349E+03  0.00000000000E+00 0.  1.
         14    1    6    6    0    0 -0.39674166383E+02  0.62430983160E+01  0.12521958790E+03  0.13150270320E+03  0.00000000000E+00 0. -1.
         -5    1    3    3    0  503  0.51731230651E+02  0.88452052261E+01  0.13253700397E+01  0.52708675623E+02  0.47000000000E+01 0.  1.
         11    1    4    4    0    0 -0.30366026671E+02  0.30026597975E+02  0.93860992795E+02  0.10311924229E+03  0.00000000000E+00 0. -1.
        -12    1    4    4    0    0 -0.28366547202E+02  0.53746374919E+02 -0.34141908320E+00  0.60773763946E+02  0.00000000000E+00 0.  1.
</event>
<event>
12    1  0.8691829E-002  0.1786943E+03  0.7818608E-02  0.1169886E+00
         21   -1    0    0  501  502  0.00000000000E+00  0.00000000000E+00  0.32781621923E+03  0.32781621923E+03  0.00000000000E+00 0. -1.
         21   -1    0    0  502  503 -0.00000000000E+00 -0.00000000000E+00 -0.13963981495E+03  0.13963981495E+03  0.00000000000E+00 0.  1.
         -6    2    1    2    0  503  0.22493139292E+02  0.27038229067E+02 -0.36538370839E+02  0.18239165550E+03  0.17519890498E+03 0.  0.
        -24    2    3    3    0    0  0.41270889910E+02  0.76857236114E+02 -0.71789372751E+01  0.12141130029E+03  0.84135875831E+02 0.  0.
          6    2    1    2  501    0 -0.22493139292E+02 -0.27038229067E+02  0.22471477511E+03  0.28506437869E+03  0.17183702364E+03 0.  0.
         24    2    5    5    0    0 -0.67545362566E+02 -0.36908474462E+02  0.20713495344E+03  0.23548348825E+03  0.81381649109E+02 0.  0.
          5    1    5    5  501    0  0.45052223274E+02  0.98702453948E+01  0.17579821673E+02  0.49580890433E+02  0.47000000000E+01 0. -1.
        -11    1    6    6    0    0 -0.19358421852E+02 -0.28046935954E+02  0.15060357956E+02  0.37258468766E+02  0.00000000000E+00 0.  1.
         12    1    6    6    0    0 -0.48186940714E+02 -0.88615385085E+01  0.19207459549E+03  0.19822501949E+03  0.00000000000E+00 0. -1.
         -5    1    3    3    0  503 -0.18777750618E+02 -0.49819007046E+02 -0.29359433564E+02  0.60980355202E+02  0.47000000000E+01 0.  1.
         11    1    4    4    0    0  0.25729169622E+02  0.40858953953E+02  0.38105928656E+02  0.61510211236E+02  0.00000000000E+00 0. -1.
        -12    1    4    4    0    0  0.15541720289E+02  0.35998282160E+02 -0.45284865931E+02  0.59901089058E+02  0.00000000000E+00 0.  1.
</event>
<event>
12    1  0.8691829E-002  0.2349964E+03  0.7818608E-02  0.1123446E+00
         21   -1    0    0  501  502  0.00000000000E+00  0.00000000000E+00  0.82349126881E+03  0.82349126881E+03  0.00000000000E+00 0.  1.
         21   -1    0    0  502  503 -0.00000000000E+00 -0.00000000000E+00 -0.75227698582E+02  0.75227698582E+02  0.00000000000E+00 0.  1.
         -6    2    1    2    0  503  0.10599765066E+03 -0.12055500597E+03  0.22087840115E+03  0.32134698785E+03  0.16943319360E+03 0.  0.
        -24    2    3    3    0    0  0.63993071188E+01 -0.94250562728E+02  0.15624792311E+03  0.19964677231E+03  0.80754569608E+02 0.  0.
          6    2    1    2  501    0 -0.10599765066E+03  0.12055500597E+03  0.52738516908E+03  0.57737197954E+03  0.17162247751E+03 0.  0.
         24    2    5    5    0    0  0.12039011714E+02  0.19941493075E+02  0.24451736781E+03  0.25473903696E+03  0.67532457707E+02 0.  0.
          5    1    5    5  501    0 -0.11803666237E+03  0.10061351290E+03  0.28286780127E+03  0.32263294258E+03  0.47000000000E+01 0. -1.
        -13    1    6    6    0    0 -0.16033478953E+02  0.30011566024E+02  0.18570947606E+03  0.18880088993E+03  0.00000000000E+00 0.  1.
         14    1    6    6    0    0  0.28072490666E+02 -0.10070072949E+02  0.58807891750E+02  0.65938147028E+02  0.00000000000E+00 0. -1.
         -5    1    3    3    0  503  0.99598343540E+02 -0.26304443247E+02  0.64630478044E+02  0.12170021554E+03  0.47000000000E+01 0.  1.
         13    1    4    4    0    0  0.66629599127E+01 -0.12967611653E+02 -0.78226474673E+01  0.16545325629E+02  0.00000000000E+00 0. -1.
        -14    1    4    4    0    0 -0.26365279387E+00 -0.81282951076E+02  0.16407057057E+03  0.18310144668E+03  0.00000000000E+00 0.  1.
</event>
<event>
12    1  0.8691829E-002  0.2019484E+03  0.7818608E-02  0.1148294E+00
         21   -1    0    0  501  502  0.00000000000E+00  0.00000000000E+00  0.53077162653E+02  0.53077162653E+02  0.00000000000E+00 0.  1.
         21   -1    0    0  502  503 -0.00000000000E+00 -0.00000000000E+00 -0.14473403731E+04  0.14473403731E+04  0.00000000000E+00 0. -1.
         -6    2    1    2    0  503  0.16467692407E+02 -0.10345413734E+03 -0.18118057547E+03  0.27064006030E+03  0.17159748798E+03 0.  0.
        -24    2    3    3    0    0 -0.39857074887E+02 -0.10335429815E+03 -0.16212949565E+03  0.21099508548E+03  0.77215642007E+02 0.  0.
          6    2    1    2  501    0 -0.16467692407E+02  0.10345413734E+03 -0.12130826350E+04  0.12297774755E+04  0.17265345765E+03 0.  0.
         24    2    5    5    0    0 -0.55634833341E+02  0.68292180290E+02 -0.41899133578E+03  0.43392980812E+03  0.70585284190E+02 0.  0.
          5    1    5    5  501    0  0.39167140934E+02  0.35161957053E+02 -0.79409129923E+03  0.79584766738E+03  0.47000000000E+01 0. -1.
        -13    1    6    6    0    0 -0.42260393892E+02  0.58558261492E+00 -0.19589512301E+03  0.20040255242E+03  0.00000000000E+00 0.  1.
         14    1    6    6    0    0 -0.13374439449E+02  0.67706597675E+02 -0.22309621277E+03  0.23352725569E+03  0.00000000000E+00 0. -1.
         -5    1    3    3    0  503  0.56324767294E+02 -0.99839193709E-01 -0.19051079816E+02  0.59644974816E+02  0.47000000000E+01 0.  1.
         13    1    4    4    0    0 -0.25241532749E+02  0.49581999823E+01 -0.31974770378E+02  0.41037844282E+02  0.00000000000E+00 0. -1.
        -14    1    4    4    0    0 -0.14615542138E+02 -0.10831249813E+03 -0.13015472528E+03  0.16995724120E+03  0.00000000000E+00 0.  1.
</event>
<event>
12    1  0.8691829E-002  0.2059871E+03  0.7818608E-02  0.1144962E+00
         21   -1    0    0  501  502  0.00000000000E+00  0.00000000000E+00  0.30537166514E+03  0.30537166514E+03  0.00000000000E+00 0.  1.
         21   -1    0    0  502  503 -0.00000000000E+00 -0.00000000000E+00 -0.16868617148E+03  0.16868617148E+03  0.00000000000E+00 0.  1.
         -6    2    1    2    0  503 -0.26991056786E+02 -0.11000566582E+03 -0.32282447818E+02  0.20763555540E+03  0.17099884144E+03 0.  0.
        -24    2    3    3    0    0  0.49764549327E+02 -0.48380386428E+02 -0.24763329546E+02  0.10880375248E+03  0.80049121812E+02 0.  0.
          6    2    1    2  501    0  0.26991056786E+02  0.11000566582E+03  0.16896794148E+03  0.26642228121E+03  0.17204912967E+03 0.  0.
         24    2    5    5    0    0  0.41648008839E+01  0.12261980148E+03  0.18493344273E+03  0.23548457594E+03  0.78737830679E+02 0.  0.
          5    1    5    5  501    0  0.22826255902E+02 -0.12614135667E+02 -0.15965501256E+02  0.30937705272E+02  0.47000000000E+01 0. -1.
        -11    1    6    6    0    0  0.31036600642E+02  0.30843957394E+02  0.28769820524E+02  0.52367192593E+02  0.00000000000E+00 0.  1.
         12    1    6    6    0    0 -0.26871799758E+02  0.91775844091E+02  0.15616362221E+03  0.18311738334E+03  0.00000000000E+00 0. -1.
         -5    1    3    3    0  503 -0.76755606113E+02 -0.61625279389E+02 -0.75191182722E+01  0.98831802924E+02  0.47000000000E+01 0.  1.
         13    1    4    4    0    0  0.33558864043E+02 -0.19795101809E+02  0.27062618598E+02  0.47438683970E+02  0.00000000000E+00 0. -1.
        -14    1    4    4    0    0  0.16205685285E+02 -0.28585284619E+02 -0.51825948143E+02  0.61365068510E+02  0.00000000000E+00 0.  1.
</event>
<event>
12    1  0.8691829E-002  0.1974358E+03  0.7818608E-02  0.1155907E+00
         21   -1    0    0  501  502  0.00000000000E+00  0.00000000000E+00  0.31232115675E+04  0.31232115675E+04  0.00000000000E+00 0.  1.
         21   -1    0    0  502  503 -0.00000000000E+00 -0.00000000000E+00 -0.20067042009E+02  0.20067042009E+02  0.00000000000E+00 0.  1.
         -6    2    1    2    0  503  0.63614626168E+02  0.74944356996E+02  0.47738454050E+03  0.51010630045E+03  0.15049571735E+03 0.  0.
        -24    2    3    3    0    0  0.25268191976E+02 -0.65607420534E+01  0.14459799182E+03  0.16531287365E+03  0.75751185417E+02 0.  0.
          6    2    1    2  501    0 -0.63614626168E+02 -0.74944356996E+02  0.26257599850E+04  0.26331723090E+04  0.17122334277E+03 0.  0.
         24    2    5    5    0    0 -0.10243595626E+03 -0.86031347294E+02  0.21248250447E+04  0.21305910505E+04  0.81499915031E+02 0.  0.
          5    1    5    5  501    0  0.38821330089E+02  0.11086990299E+02  0.50093494025E+03  0.50258125849E+03  0.47000000000E+01 0. -1.
        -11    1    6    6    0    0 -0.87217218726E+02 -0.97136008102E+02  0.15602818663E+04  0.15657336139E+04  0.00000000000E+00 0.  1.
         12    1    6    6    0    0 -0.15218737531E+02  0.11104660807E+02  0.56454317838E+03  0.56485743663E+03  0.00000000000E+00 0. -1.
         -5    1    3    3    0  503  0.38346434192E+02  0.81505099049E+02  0.33278654868E+03  0.34479342681E+03  0.47000000000E+01 0.  1.
         11    1    4    4    0    0 -0.15289797630E+02  0.19049880052E+02  0.19250004669E+02  0.31100458539E+02  0.00000000000E+00 0. -1.
        -12    1    4    4    0    0  0.40557989606E+02 -0.25610622105E+02  0.12534798715E+03  0.13421241511E+03  0.00000000000E+00 0.  1.
</event>
<event>
12    1  0.8691829E-002  0.2818984E+03  0.7818608E-02  0.1094767E+00
         21   -1    0    0  501  502  0.00000000000E+00  0.00000000000E+00  0.89808437800E+03  0.89808437800E+03  0.00000000000E+00 0.  1.
         21   -1    0    0  502  503 -0.00000000000E+00 -0.00000000000E+00 -0.65973158038E+03  0.65973158038E+03  0.00000000000E+00 0.  1.
         -6    2    1    2    0  503 -0.20007731533E+02 -0.22192835607E+03 -0.60580300484E+03  0.66783521626E+03  0.17133035592E+03 0.  0.
        -24    2    3    3    0    0 -0.67690851335E+02 -0.90265193788E+02 -0.35170224551E+03  0.37766603439E+03  0.78786467573E+02 0.  0.
          6    2    1    2  501    0  0.20007731533E+02  0.22192835607E+03  0.84415580245E+03  0.88998074212E+03  0.17266788346E+03 0.  0.
         24    2    5    5    0    0  0.62283791404E+02  0.16301311414E+03  0.72753536218E+03  0.75257372607E+03  0.81283232572E+02 0.  0.
          5    1    5    5  501    0 -0.42276059870E+02  0.58915241929E+02  0.11662044028E+03  0.13740701605E+03  0.47000000000E+01 0. -1.
        -13    1    6    6    0    0  0.75370510195E+02  0.16282071181E+03  0.67745850886E+03  0.70081476099E+03  0.00000000000E+00 0.  1.
         14    1    6    6    0    0 -0.13086718791E+02  0.19240233055E+00  0.50076853321E+02  0.51758965078E+02  0.00000000000E+00 0. -1.
         -5    1    3    3    0  503  0.47683119801E+02 -0.13166316229E+03 -0.25410075933E+03  0.29016918187E+03  0.47000000000E+01 0.  1.
         11    1    4    4    0    0 -0.38703300064E+02 -0.49772446979E+02 -0.82170097961E+02  0.10357203731E+03  0.00000000000E+00 0. -1.
        -12    1    4    4    0    0 -0.28987551271E+02 -0.40492746809E+02 -0.26953214755E+03  0.27409399708E+03  0.00000000000E+00 0.  1.
</event>
<event>
12    1  0.8691829E-002  0.1807367E+03  0.7818608E-02  0.1167129E+00
         21   -1    0    0  503  502  0.00000000000E+00  0.00000000000E+00  0.17187452205E+03  0.17187452205E+03  0.00000000000E+00 0.  1.
         21   -1    0    0  501  503 -0.00000000000E+00 -0.00000000000E+00 -0.28017038461E+03  0.28017038461E+03  0.00000000000E+00 0.  1.
          6    2    1    2  501    0  0.31476967134E+02 -0.46305114820E+02 -0.18243344464E+03  0.25669357799E+03  0.17168188064E+03 0.  0.
         24    2    3    3    0    0  0.52680504147E+02 -0.43208467913E+02 -0.37231084237E+02  0.10984333226E+03  0.77699400209E+02 0.  0.
         -6    2    1    2    0  502 -0.31476967134E+02  0.46305114820E+02  0.74137582070E+02  0.19535132867E+03  0.17184527174E+03 0.  0.
        -24    2    5    5    0    0  0.93510153230E+01  0.70454225947E+02  0.88979113751E+01  0.11455276215E+03  0.89397556159E+02 0.  0.
          5    1    3    3  501    0 -0.21203537013E+02 -0.30966469066E+01 -0.14520236040E+03  0.14685024573E+03  0.47000000000E+01 0. -1.
        -13    1    4    4    0    0  0.39394109290E+02 -0.64836426857E+02 -0.37119367092E+02  0.84460082333E+02  0.00000000000E+00 0.  1.
         14    1    4    4    0    0  0.13286394857E+02  0.21627958943E+02 -0.11171714487E+00  0.25383249931E+02  0.00000000000E+00 0. -1.
         -5    1    5    5    0  502 -0.40827982457E+02 -0.24149111127E+02  0.65239670695E+02  0.80798566523E+02  0.47000000000E+01 0.  1.
         13    1    6    6    0    0  0.44492693279E+02  0.63467417056E+02  0.12621311600E+02  0.78530314461E+02  0.00000000000E+00 0. -1.
        -14    1    6    6    0    0 -0.35141677956E+02  0.69868088915E+01 -0.37234002245E+01  0.36022447686E+02  0.00000000000E+00 0.  1.
</event>
<event>
12    1  0.8691829E-002  0.1784984E+03  0.7818608E-02  0.1169370E+00
         21   -1    0    0  501  502  0.00000000000E+00  0.00000000000E+00  0.12168379866E+04  0.12168379866E+04  0.00000000000E+00 0. -1.
         21   -1    0    0  502  503 -0.00000000000E+00 -0.00000000000E+00 -0.15146228937E+03  0.15146228937E+03  0.00000000000E+00 0. -1.
         -6    2    1    2    0  503  0.44407647949E+02  0.13128248240E+02 -0.89568264332E+02  0.19971014775E+03  0.17238700368E+03 0.  0.
        -24    2    3    3    0    0  0.29519415569E+02  0.43507843668E+02  0.11185866235E+02  0.93323757131E+02  0.76288083509E+02 0.  0.
          6    2    1    2  501    0 -0.44407647949E+02 -0.13128248240E+02  0.11549439615E+04  0.11685901282E+04  0.17193877791E+03 0.  0.
         24    2    5    5    0    0 -0.80027922191E+02 -0.45583539766E+02  0.95632167245E+03  0.96415174236E+03  0.80963656470E+02 0.  0.
          5    1    5    5  501    0  0.35620274242E+02  0.32455291526E+02  0.19862228910E+03  0.20443838586E+03  0.47000000000E+01 0. -1.
        -13    1    6    6    0    0 -0.20911762990E+01  0.19382671133E+02  0.10393694065E+03  0.10574946142E+03  0.00000000000E+00 0.  1.
         14    1    6    6    0    0 -0.77936745892E+02 -0.64966210900E+02  0.85238473180E+03  0.85840228094E+03  0.00000000000E+00 0. -1.
         -5    1    3    3    0  503  0.14888232380E+02 -0.30379595428E+02 -0.10075413057E+03  0.10638639062E+03  0.47000000000E+01 0.  1.
         13    1    4    4    0    0  0.75296804738E+01 -0.17397717496E+02 -0.14288988334E+02  0.23739247033E+02  0.00000000000E+00 0. -1.
        -14    1    4    4    0    0  0.21989735095E+02  0.60905561164E+02  0.25474854569E+02  0.69584510098E+02  0.00000000000E+00 0.  1.
</event>
<event>
12    1  0.8691829E-002  0.1906128E+03  0.7818608E-02  0.1158170E+00
         21   -1    0    0  501  502  0.00000000000E+00  0.00000000000E+00  0.41463613227E+02  0.41463613227E+02  0.00000000000E+00 0. -1.
         21   -1    0    0  502  503 -0.00000000000E+00 -0.00000000000E+00 -0.11588457534E+04  0.11588457534E+04  0.00000000000E+00 0. -1.
         -6    2    1    2    0  503 -0.17254395997E+02  0.79684836299E+02 -0.85654004175E+03  0.87724307815E+03  0.17101809179E+03 0.  0.
        -24    2    3    3    0    0 -0.82566967028E+01  0.51540355644E+01 -0.69942174508E+03  0.70304764767E+03  0.70643331465E+02 0.  0.
          6    2    1    2  501    0  0.17254395997E+02 -0.79684836299E+02 -0.26084209842E+03  0.32306628848E+03  0.17229578963E+03 0.  0.
         24    2    5    5    0    0  0.54466956330E+02 -0.45334572059E+02 -0.75642177548E+02  0.13100948440E+03  0.80124111374E+02 0.  0.
          5    1    5    5  501    0 -0.37212560333E+02 -0.34350264241E+02 -0.18519992088E+03  0.19205680408E+03  0.47000000000E+01 0. -1.
        -11    1    6    6    0    0 -0.12653864720E+02 -0.96342021476E+01 -0.47252542520E+02  0.49857205277E+02  0.00000000000E+00 0.  1.
         12    1    6    6    0    0  0.67120821050E+02 -0.35700369911E+02 -0.28389635028E+02  0.81152279125E+02  0.00000000000E+00 0. -1.
         -5    1    3    3    0  503 -0.89976992941E+01  0.74530800735E+02 -0.15711829667E+03  0.17419543048E+03  0.47000000000E+01 0.  1.
         11    1    4    4    0    0 -0.18261135989E+02  0.32553906610E+02 -0.51316385782E+03  0.51451955346E+03  0.00000000000E+00 0. -1.
        -12    1    4    4    0    0  0.10004439286E+02 -0.27399871045E+02 -0.18625788727E+03  0.18852809421E+03  0.00000000000E+00 0.  1.
</event>
<event>
12    1  0.8691829E-002  0.1749068E+03  0.7818608E-02  0.1173622E+00
         21   -1    0    0  501  502  0.00000000000E+00  0.00000000000E+00  0.15824651553E+04  0.15824651553E+04  0.00000000000E+00 0.  1.
         21   -1    0    0  502  503 -0.00000000000E+00 -0.00000000000E+00 -0.42730771809E+02  0.42730771809E+02  0.00000000000E+00 0.  1.
         -6    2    1    2    0  503  0.30947302940E+01 -0.13211674550E+02  0.16724017766E+03  0.24199518921E+03  0.17437966876E+03 0.  0.
        -24    2    3    3    0    0 -0.57614155351E+02 -0.57668584107E+01  0.57482291058E+02  0.11625785285E+03  0.82819242999E+02 0.  0.
          6    2    1    2  501    0 -0.30947302940E+01  0.13211674550E+02  0.13724942058E+04  0.13832007379E+04  0.17123028527E+03 0.  0.
         24    2    5    5    0    0  0.62545595061E+02 -0.34733123350E+01  0.93720829341E+03  0.94265226537E+03  0.79434833712E+02 0.  0.
          5    1    5    5  501    0 -0.65640325355E+02  0.16684986885E+02  0.43528591240E+03  0.44054847251E+03  0.47000000000E+01 0. -1.
        -13    1    6    6    0    0  0.63901312452E+01 -0.35789057783E+02  0.34537833476E+03  0.34728645893E+03  0.00000000000E+00 0.  1.
         14    1    6    6    0    0  0.56155463816E+02  0.32315745448E+02  0.59182995865E+03  0.59536580644E+03  0.00000000000E+00 0. -1.
         -5    1    3    3    0  503  0.60708885645E+02 -0.74448161395E+01  0.10975788661E+03  0.12573733636E+03  0.47000000000E+01 0.  1.
         11    1    4    4    0    0 -0.39603636928E+02 -0.14309118947E+02  0.77378157585E+02  0.88094144041E+02  0.00000000000E+00 0. -1.
        -12    1    4    4    0    0 -0.18010518423E+02  0.85422605366E+01 -0.19895866527E+02  0.28163708808E+02  0.00000000000E+00 0.  1.
</event>
<event>
12    1  0.8691829E-002  0.2860124E+03  0.7818608E-02  0.1093788E+00
         21   -1    0    0  503  502  0.00000000000E+00  0.00000000000E+00  0.37262829194E+02  0.37262829194E+02  0.00000000000E+00 0. -1.
         21   -1    0    0  501  503 -0.00000000000E+00 -0.00000000000E+00 -0.28827317655E+04  0.28827317655E+04  0.00000000000E+00 0.  1.
          6    2    1    2  501    0  0.77872791746E+02 -0.21229989960E+03 -0.21920066240E+04  0.22105872881E+04  0.17512195542E+03 0.  0.
         24    2    3    3    0    0  0.10297608913E+03 -0.10491822335E+03 -0.15881683219E+04  0.15967438348E+04  0.75500641750E+02 0.  0.
         -6    2    1    2    0  502 -0.77872791746E+02  0.21229989960E+03 -0.65346231222E+03  0.70940730658E+03  0.15846234277E+03 0.  0.
        -24    2    5    5    0    0  0.88074955417E+01  0.10169346096E+03 -0.24429108874E+03  0.27675220538E+03  0.80588554799E+02 0.  0.
          5    1    3    3  501    0 -0.25103297389E+02 -0.10738167625E+03 -0.60383830215E+03  0.61384345324E+03  0.47000000000E+01 0. -1.
        -13    1    4    4    0    0  0.84225112457E+02 -0.42173943625E+02 -0.11300140743E+04  0.11339331193E+04  0.00000000000E+00 0.  1.
         14    1    4    4    0    0  0.18750976677E+02 -0.62744279721E+02 -0.45815424763E+03  0.46281071550E+03  0.00000000000E+00 0. -1.
         -5    1    5    5    0  502 -0.86680287287E+02  0.11060643863E+03 -0.40917122348E+03  0.43265510120E+03  0.47000000000E+01 0.  1.
         13    1    6    6    0    0 -0.19211938944E+02  0.72610993074E+02 -0.89801851109E+02  0.11707188978E+03  0.00000000000E+00 0. -1.
        -14    1    6    6    0    0  0.28019434486E+02  0.29082467887E+02 -0.15448923763E+03  0.15968031560E+03  0.00000000000E+00 0.  1.
</event>
<event>
12    1  0.8691829E-002  0.1810501E+03  0.7818608E-02  0.1167099E+00
         21   -1    0    0  503  502  0.00000000000E+00  0.00000000000E+00  0.16259218916E+04  0.16259218916E+04  0.00000000000E+00 0.  1.
         21   -1    0    0  501  503 -0.00000000000E+00 -0.00000000000E+00 -0.20040075347E+02  0.20040075347E+02  0.00000000000E+00 0. -1.
          6    2    1    2  501    0 -0.30123928196E+02 -0.47398660799E+02  0.83298168959E+03  0.85243043200E+03  0.17211932520E+03 0.  0.
         24    2    3    3    0    0 -0.46393866657E+02 -0.89211981426E+02  0.70459021521E+03  0.71634396914E+03  0.81179691195E+02 0.  0.
         -6    2    1    2    0  502  0.30123928196E+02  0.47398660799E+02  0.77290012663E+03  0.79353153492E+03  0.17077355494E+03 0.  0.
        -24    2    5    5    0    0  0.62148526436E+01 -0.40439301712E+02  0.42093723417E+03  0.42995606927E+03  0.77460343882E+02 0.  0.
          5    1    3    3  501    0  0.16269938461E+02  0.41813320626E+02  0.12839147438E+03  0.13608646286E+03  0.47000000000E+01 0. -1.
        -11    1    4    4    0    0 -0.59399751464E+02 -0.26249904830E+02  0.35281194751E+03  0.35873898350E+03  0.00000000000E+00 0.  1.
         12    1    4    4    0    0  0.13005884808E+02 -0.62962076595E+02  0.35177826770E+03  0.35760498564E+03  0.00000000000E+00 0. -1.
         -5    1    5    5    0  502  0.23909075552E+02  0.87837962511E+02  0.35196289246E+03  0.36357546565E+03  0.47000000000E+01 0.  1.
         13    1    6    6    0    0  0.86694239278E+01 -0.59889826716E+01  0.35154460786E+01  0.11107888450E+02  0.00000000000E+00 0. -1.
        -14    1    6    6    0    0 -0.24545712842E+01 -0.34450319040E+02  0.41742178810E+03  0.41884818082E+03  0.00000000000E+00 0.  1.
</event>
<event>
12    1  0.8691829E-002  0.2804243E+03  0.7818608E-02  0.1095564E+00
         21   -1    0    0  501  502  0.00000000000E+00  0.00000000000E+00  0.31997254740E+03  0.31997254740E+03  0.00000000000E+00 0.  1.
         21   -1    0    0  502  503 -0.00000000000E+00 -0.00000000000E+00 -0.25667015056E+03  0.25667015056E+03  0.00000000000E+00 0. -1.
         -6    2    1    2    0  503 -0.11706641760E+03  0.18786311142E+03  0.92967628238E+02  0.29543320226E+03  0.17216475347E+03 0.  0.
        -24    2    3    3    0    0 -0.98881750365E+02  0.18418466806E+03  0.12625811888E+03  0.25703320440E+03  0.80145886227E+02 0.  0.
          6    2    1    2  501    0  0.11706641760E+03 -0.18786311142E+03 -0.29665231402E+02  0.28120949570E+03  0.17088493133E+03 0.  0.
         24    2    5    5    0    0  0.69333634550E+02 -0.13220336448E+03 -0.84661389934E+02  0.18943208312E+03  0.80200253792E+02 0.  0.
          5    1    5    5  501    0  0.47732783051E+02 -0.55659746935E+02  0.54996158532E+02  0.91777412580E+02  0.47000000000E+01 0. -1.
        -11    1    6    6    0    0  0.59482703756E+02 -0.11785817704E+03 -0.34664220032E+02  0.13649304045E+03  0.00000000000E+00 0.  1.
         12    1    6    6    0    0  0.98509307939E+01 -0.14345187445E+02 -0.49997169903E+02  0.52939042668E+02  0.00000000000E+00 0. -1.
         -5    1    3    3    0  503 -0.18184667235E+02  0.36784433608E+01 -0.33290490647E+02  0.38399997858E+02  0.47000000000E+01 0.  1.
         11    1    4    4    0    0 -0.36465723111E+02  0.53126576851E+02 -0.31538567247E+00  0.64438199836E+02  0.00000000000E+00 0. -1.
        -12    1    4    4    0    0 -0.62416027254E+02  0.13105809121E+03  0.12657350456E+03  0.19259500457E+03  0.00000000000E+00 0.  1.
</event>
<event>
12    1  0.8691829E-002  0.1800733E+03  0.7818608E-02  0.1168294E+00
         21   -1    0    0  503  502  0.00000000000E+00  0.00000000000E+00  0.81992856225E+02  0.81992856225E+02  0.00000000000E+00 0.  1.
         21   -1    0    0  501  503 -0.00000000000E+00 -0.00000000000E+00 -0.62138376930E+03  0.62138376930E+03  0.00000000000E+00 0.  1.
          6    2    1    2  501    0 -0.29959664456E+02 -0.42468466591E+02 -0.48300830187E+03  0.51468269115E+03  0.17000029629E+03 0.  0.
         24    2    3    3    0    0 -0.65211771335E+02 -0.69986892326E+02 -0.41591169347E+03  0.43391128746E+03  0.78394696267E+02 0.  0.
         -6    2    1    2    0  502  0.29959664456E+02  0.42468466591E+02 -0.56382611198E+02  0.18869393437E+03  0.17241012115E+03 0.  0.
        -24    2    5    5    0    0 -0.26240261383E+02  0.30957447697E+02 -0.88186881437E+02  0.12293272373E+03  0.75422898515E+02 0.  0.
          5    1    3    3  501    0  0.35252106878E+02  0.27518425735E+02 -0.67096608397E+02  0.80771403682E+02  0.47000000000E+01 0. -1.
        -11    1    4    4    0    0 -0.69271153142E+01 -0.50961356249E+01 -0.21141555846E+03  0.21159039176E+03  0.00000000000E+00 0.  1.
         12    1    4    4    0    0 -0.58284656020E+02 -0.64890756701E+02 -0.20449613501E+03  0.22232089571E+03  0.00000000000E+00 0. -1.
         -5    1    5    5    0  502  0.56199925839E+02  0.11511018895E+02  0.31804270238E+02  0.65761210646E+02  0.47000000000E+01 0.  1.
         11    1    6    6    0    0 -0.21276851109E+02 -0.18744710016E+02 -0.58025145347E+02  0.64583171487E+02  0.00000000000E+00 0. -1.
        -12    1    6    6    0    0 -0.49634102738E+01  0.49702157713E+02 -0.30161736089E+02  0.58349552241E+02  0.00000000000E+00 0.  1.
</event>
<event>
12    1  0.8691829E-002  0.2130832E+03  0.7818608E-02  0.1140115E+00
         21   -1    0    0  501  502  0.00000000000E+00  0.00000000000E+00  0.48134452033E+02  0.48134452033E+02  0.00000000000E+00 0. -1.
         21   -1    0    0  502  503 -0.00000000000E+00 -0.00000000000E+00 -0.12096071820E+04  0.12096071820E+04  0.00000000000E+00 0. -1.
         -6    2    1    2    0  503 -0.11816140356E+03  0.24200378332E+02 -0.88239512552E+03  0.90661662922E+03  0.16966077690E+03 0.  0.
        -24    2    3    3    0    0 -0.84253137771E+02  0.26441390534E+02 -0.85434975022E+03  0.86230606952E+03  0.76554055862E+02 0.  0.
          6    2    1    2  501    0  0.11816140356E+03 -0.24200378332E+02 -0.27907760443E+03  0.35112500481E+03  0.17566070733E+03 0.  0.
         24    2    5    5    0    0  0.61156012540E+02 -0.21928388678E+02 -0.27519281771E+03  0.29374941670E+03  0.79603522474E+02 0.  0.
          5    1    5    5  501    0  0.57005391024E+02 -0.22719896538E+01 -0.38847867202E+01  0.57375588107E+02  0.47000000000E+01 0. -1.
        -11    1    6    6    0    0 -0.13018968202E+02 -0.10692908770E+02 -0.12216814276E+03  0.12332431608E+03  0.00000000000E+00 0.  1.
         12    1    6    6    0    0  0.74174980741E+02 -0.11235479909E+02 -0.15302467496E+03  0.17042510062E+03  0.00000000000E+00 0. -1.
         -5    1    3    3    0  503 -0.33908265793E+02 -0.22410122017E+01 -0.28045375301E+02  0.44310559696E+02  0.47000000000E+01 0.  1.
         11    1    4    4    0    0 -0.58862370382E+02  0.31657366209E+01 -0.24531041731E+03  0.25229348263E+03  0.00000000000E+00 0. -1.
        -12    1    4    4    0    0 -0.25390767388E+02  0.23275653913E+02 -0.60903933291E+03  0.61001258689E+03  0.00000000000E+00 0.  1.
</event>
<event>
12    1  0.8691829E-002  0.2199959E+03  0.7818608E-02  0.1135231E+00
         21   -1    0    0  503  502  0.00000000000E+00  0.00000000000E+00  0.36593245208E+03  0.36593245208E+03  0.00000000000E+00 0. -1.
         21   -1    0    0  501  503 -0.00000000000E+00 -0.00000000000E+00 -0.25532760452E+03  0.25532760452E+03  0.00000000000E+00 0.  1.
          6    2    1    2  501    0 -0.55459012174E+02  0.10858268216E+03 -0.16356070414E+03  0.27413558265E+03  0.18311830286E+03 0.  0.
         24    2    3    3    0    0 -0.22751290898E+02 -0.22594552579E+02 -0.75636315075E+02  0.11279727307E+03  0.77293192527E+02 0.  0.
         -6    2    1    2    0  502  0.55459012174E+02 -0.10858268216E+03  0.27416555169E+03  0.34712447395E+03  0.17453581233E+03 0.  0.
        -24    2    5    5    0    0  0.71720814306E+02 -0.11147170747E+02  0.18164916271E+03  0.21170107374E+03  0.80949315568E+02 0.  0.
          5    1    3    3  501    0 -0.32707721276E+02  0.13117723474E+03 -0.87924389062E+02  0.16133830958E+03  0.47000000000E+01 0. -1.
        -13    1    4    4    0    0 -0.13652284333E+02 -0.11347208218E+01 -0.86145915740E+02  0.87228385618E+02  0.00000000000E+00 0.  1.
         14    1    4    4    0    0 -0.90990065657E+01 -0.21459831758E+02  0.10509600666E+02  0.25568887455E+02  0.00000000000E+00 0. -1.
         -5    1    5    5    0  502 -0.16261802132E+02 -0.97435511415E+02  0.92516388978E+02  0.13542340020E+03  0.47000000000E+01 0.  1.
         13    1    6    6    0    0 -0.94994729793E+01 -0.23687332346E+02  0.31588485188E+02  0.40609876841E+02  0.00000000000E+00 0. -1.
        -14    1    6    6    0    0  0.81220287285E+02  0.12540161599E+02  0.15006067752E+03  0.17109119690E+03  0.00000000000E+00 0.  1.
</event>
<event>
12    1  0.8691829E-002  0.3296027E+03  0.7818608E-02  0.1071346E+00
         21   -1    0    0  503  502  0.00000000000E+00  0.00000000000E+00  0.25979291820E+03  0.25979291820E+03  0.00000000000E+00 0. -1.
         21   -1    0    0  501  503 -0.00000000000E+00 -0.00000000000E+00 -0.57835279371E+03  0.57835279371E+03  0.00000000000E+00 0.  1.
          6    2    1    2  501    0  0.26567916593E+02 -0.27915467238E+03 -0.38003434210E+03  0.50285923099E+03  0.17265028153E+03 0.  0.
         24    2    3    3    0    0  0.77358447577E+02 -0.15254062600E+03 -0.25780499997E+03  0.31963014800E+03  0.80293471118E+02 0.  0.
         -6    2    1    2    0  502 -0.26567916593E+02  0.27915467238E+03  0.61474466588E+02  0.33528648092E+03  0.17321873150E+03 0.  0.
        -24    2    5    5    0    0 -0.54655176899E+02  0.70327094573E+02  0.30967501589E+02  0.12232963939E+03  0.77926028543E+02 0.  0.
          5    1    3    3  501    0 -0.50790530984E+02 -0.12661404638E+03 -0.12222934213E+03  0.18322908300E+03  0.47000000000E+01 0. -1.
        -11    1    4    4    0    0  0.58973709521E+02 -0.44839374704E+02 -0.14356583397E+03  0.16155375769E+03  0.00000000000E+00 0.  1.
         12    1    4    4    0    0  0.18384738055E+02 -0.10770125130E+03 -0.11423916600E+03  0.15807639031E+03  0.00000000000E+00 0. -1.
         -5    1    5    5    0  502  0.28087260306E+02  0.20882757781E+03  0.30506964998E+02  0.21295684154E+03  0.47000000000E+01 0.  1.
         13    1    6    6    0    0 -0.36321094762E+02  0.71614851202E+02  0.51013770487E+02  0.95133136271E+02  0.00000000000E+00 0. -1.
        -14    1    6    6    0    0 -0.18334082138E+02 -0.12877566293E+01 -0.20046268897E+02  0.27196503115E+02  0.00000000000E+00 0.  1.
</event>
<event>
12    1  0.8691829E-002  0.1921514E+03  0.7818608E-02  0.1156743E+00
         21   -1    0    0  503  502  0.00000000000E+00  0.00000000000E+00  0.12670326704E+03  0.12670326704E+03  0.00000000000E+00 0. -1.
         21   -1    0    0  501  503 -0.00000000000E+00 -0.00000000000E+00 -0.33581156300E+03  0.33581156300E+03  0.00000000000E+00 0. -1.
          6    2    1    2  501    0 -0.36182367016E+02  0.79597403374E+02 -0.19019227487E+03  0.27036138212E+03  0.17110600578E+03 0.  0.
         24    2    3    3    0    0 -0.35051136788E+02 -0.22605781037E+02 -0.84991630661E+02  0.12360976841E+03  0.79474486701E+02 0.  0.
         -6    2    1    2    0  502  0.36182367016E+02 -0.79597403374E+02 -0.18916021091E+02  0.19215344793E+03  0.17005946428E+03 0.  0.
        -24    2    5    5    0    0 -0.74318460799E-01 -0.11476196100E+03 -0.31256010075E+02  0.13994752218E+03  0.73743186695E+02 0.  0.
          5    1    3    3  501    0 -0.11312302274E+01  0.10220318441E+03 -0.10520064421E+03  0.14675161371E+03  0.47000000000E+01 0. -1.
        -13    1    4    4    0    0 -0.37623787271E+02  0.21853164321E+02 -0.30011286608E+02  0.52856290858E+02  0.00000000000E+00 0.  1.
         14    1    4    4    0    0  0.25726504824E+01 -0.44458945358E+02 -0.54980344053E+02  0.70753477547E+02  0.00000000000E+00 0. -1.
         -5    1    5    5    0  502  0.36256685476E+02  0.35164557625E+02  0.12339988983E+02  0.52205925744E+02  0.47000000000E+01 0.  1.
         11    1    6    6    0    0 -0.32416655677E+02 -0.86560496328E+02 -0.13105746871E+02  0.93355876574E+02  0.00000000000E+00 0. -1.
        -12    1    6    6    0    0  0.32342337217E+02 -0.28201464671E+02 -0.18150263204E+02  0.46591645609E+02  0.00000000000E+00 0.  1.
</event>
<event>
12    1  0.8691829E-002  0.2031632E+03  0.7818608E-02  0.1147337E+00
         21   -1    0    0  501  502  0.00000000000E+00  0.00000000000E+00  0.58459527407E+03  0.58459527407E+03  0.00000000000E+00 0.  1.
         21   -1    0    0  502  503 -0.00000000000E+00 -0.00000000000E+00 -0.89151002007E+02  0.89151002007E+02  0.00000000000E+00 0. -1.
         -6    2    1    2    0  503 -0.70857284103E+02 -0.80242086461E+02  0.92978799554E+02  0.22342861947E+03  0.17267235935E+03 0.  0.
        -24    2    3    3    0    0 -0.74103615646E+02 -0.99607484803E+02  0.11977866256E+03  0.18987448443E+03  0.79324617564E+02 0.  0.
          6    2    1    2  501    0  0.70857284103E+02  0.80242086461E+02  0.40246547250E+03  0.45031765660E+03  0.17131254519E+03 0.  0.
         24    2    5    5    0    0  0.80045033023E+02  0.66541984148E+02  0.16007320268E+03  0.20731928211E+03  0.80763924828E+02 0.  0.
          5    1    5    5  501    0 -0.91877489204E+01  0.13700102313E+02  0.24239226982E+03  0.24299837449E+03  0.47000000000E+01 0. -1.
        -11    1    6    6    0    0 -0.11557914233E+02  0.31675669732E+02  0.42422463416E+02  0.54190394321E+02  0.00000000000E+00 0.  1.
         12    1    6    6    0    0  0.91602947256E+02  0.34866314415E+02  0.11765073927E+03  0.15312888779E+03  0.00000000000E+00 0. -1.
         -5    1    3    3    0  503  0.32463315434E+01  0.19365398343E+02 -0.26799863005E+02  0.33554135044E+02  0.47000000000E+01 0.  1.
         13    1    4    4    0    0 -0.58924848794E+02 -0.17514443558E+02  0.67856209456E+02  0.91560683158E+02  0.00000000000E+00 0. -1.
        -14    1    4    4    0    0 -0.15178766852E+02 -0.82093041245E+02  0.51922453103E+02  0.98313801270E+02  0.00000000000E+00 0.  1.
</event>
<event>
12    1  0.8691829E-002  0.1843166E+03  0.7818608E-02  0.1164007E+00
         21   -1    0    0  501  502  0.00000000000E+00  0.00000000000E+00  0.82277406895E+02  0.82277406895E+02  0.00000000000E+00 0. -1.
         21   -1    0    0  502  503 -0.00000000000E+00 -0.00000000000E+00 -0.56440097222E+03  0.56440097222E+03  0.00000000000E+00 0. -1.
         -6    2    1    2    0  503 -0.61058128386E+02 -0.46833288273E+01 -0.72525868262E+02  0.19807223825E+03  0.17384643047E+03 0.  0.
        -24    2    3    3    0    0 -0.73951567134E+02 -0.30576487103E+02  0.59799650027E+01  0.11427514842E+03  0.81359042026E+02 0.  0.
          6    2    1    2  501    0  0.61058128386E+02  0.46833288273E+01 -0.40959769706E+03  0.44860614086E+03  0.17241568249E+03 0.  0.
         24    2    5    5    0    0  0.77046946876E+02  0.20494711243E+02 -0.41106735751E+03  0.42558675702E+03  0.76101577696E+02 0.  0.
          5    1    5    5  501    0 -0.15988818490E+02 -0.15811382416E+02  0.14696604494E+01  0.23019383841E+02  0.47000000000E+01 0. -1.
        -11    1    6    6    0    0  0.94565378764E+01  0.36935387590E+02 -0.10482091923E+03  0.11153956282E+03  0.00000000000E+00 0.  1.
         12    1    6    6    0    0  0.67590408999E+02 -0.16440676347E+02 -0.30624643828E+03  0.31404719421E+03  0.00000000000E+00 0. -1.
         -5    1    3    3    0  503  0.12893438748E+02  0.25893158276E+02 -0.78505833264E+02  0.83797089835E+02  0.47000000000E+01 0.  1.
         11    1    4    4    0    0 -0.38214134294E+02 -0.54793427575E+02 -0.11343557348E+02  0.67759250723E+02  0.00000000000E+00 0. -1.
        -12    1    4    4    0    0 -0.35737432840E+02  0.24216940471E+02  0.17323522350E+02  0.46515897695E+02  0.00000000000E+00 0.  1.
</event>
<event>
12    1  0.8691829E-002  0.2323939E+03  0.7818608E-02  0.1125151E+00
         21   -1    0    0  501  502  0.00000000000E+00  0.00000000000E+00  0.22799187210E+03  0.22799187210E+03  0.00000000000E+00 0. -1.
         21   -1    0    0  502  503 -0.00000000000E+00 -0.00000000000E+00 -0.23704078761E+03  0.23704078761E+03  0.00000000000E+00 0.  1.
         -6    2    1    2    0  503 -0.15362078546E+02 -0.15590599160E+03  0.12275027727E+02  0.23271782628E+03  0.17165150360E+03 0.  0.
        -24    2    3    3    0    0 -0.40136366653E+02 -0.18107229321E+02  0.35381751621E+01  0.92358691095E+02  0.81109860409E+02 0.  0.
          6    2    1    2  501    0  0.15362078546E+02  0.15590599160E+03 -0.21323943233E+02  0.23231483343E+03  0.17021398181E+03 0.  0.
         24    2    5    5    0    0  0.22474785077E+02  0.83313851776E+02 -0.77641032754E+02  0.14004396083E+03  0.78344541196E+02 0.  0.
          5    1    5    5  501    0 -0.71127065317E+01  0.72592139824E+02  0.56317089521E+02  0.92270872601E+02  0.47000000000E+01 0. -1.
        -13    1    6    6    0    0  0.22197335149E+02  0.10226548627E+02  0.95786352149E+01  0.26249842611E+02  0.00000000000E+00 0.  1.
         14    1    6    6    0    0  0.27744992829E+00  0.73087303149E+02 -0.87219667969E+02  0.11379411822E+03  0.00000000000E+00 0. -1.
         -5    1    3    3    0  503  0.24774288107E+02 -0.13779876228E+03  0.87368525645E+01  0.14035913518E+03  0.47000000000E+01 0.  1.
         11    1    4    4    0    0  0.59534462883E+01  0.14890268923E+02  0.26683183840E+02  0.31131269346E+02  0.00000000000E+00 0. -1.
        -12    1    4    4    0    0 -0.46089812941E+02 -0.32997498244E+02 -0.23145008678E+02  0.61227421748E+02  0.00000000000E+00 0.  1.
</event>
<event>
12    1  0.8691829E-002  0.1735739E+03  0.7818608E-02  0.1174276E+00
         21   -1    0    0  503  502  0.00000000000E+00  0.00000000000E+00  0.20829452161E+04  0.20829452161E+04  0.00000000000E+00 0. -1.
         21   -1    0    0  501  503 -0.00000000000E+00 -0.00000000000E+00 -0.17372646609E+02  0.17372646609E+02  0.00000000000E+00 0. -1.
          6    2    1    2  501    0  0.31311838738E+02 -0.49287567329E+01  0.59954086026E+03  0.62404658719E+03  0.17023564839E+03 0.  0.
         24    2    3    3    0    0  0.56737092313E+02  0.28445989266E+02  0.52494978744E+03  0.53833640499E+03  0.10102244133E+03 0.  0.
         -6    2    1    2    0  502 -0.31311838738E+02  0.49287567329E+01  0.14660317092E+04  0.14762712755E+04  0.17065515680E+03 0.  0.
        -24    2    5    5    0    0 -0.69151720752E+02 -0.39733684412E+02  0.97888808078E+03  0.98560071897E+03  0.82620677650E+02 0.  0.
          5    1    3    3  501    0 -0.25425253576E+02 -0.33374745999E+02  0.74591072814E+02  0.85710182204E+02  0.47000000000E+01 0. -1.
        -11    1    4    4    0    0 -0.11152257972E+02 -0.85044296483E+01  0.30279048103E+03  0.30311511606E+03  0.00000000000E+00 0.  1.
         12    1    4    4    0    0  0.67889350285E+02  0.36950418915E+02  0.22215930641E+03  0.23522128893E+03  0.00000000000E+00 0. -1.
         -5    1    5    5    0  502  0.37839882014E+02  0.44662441145E+02  0.48714362840E+03  0.49067055650E+03  0.47000000000E+01 0.  1.
         11    1    6    6    0    0 -0.34661579761E+02  0.23230469977E+02  0.43457274010E+03  0.43657135303E+03  0.00000000000E+00 0. -1.
        -12    1    6    6    0    0 -0.34490140991E+02 -0.62964154390E+02  0.54431534068E+03  0.54902936594E+03  0.00000000000E+00 0.  1.
</event>
<event>
12    1  0.8691829E-002  0.1812370E+03  0.7818608E-02  0.1167568E+00
         21   -1    0    0  501  502  0.00000000000E+00  0.00000000000E+00  0.70308805408E+02  0.70308805408E+02  0.00000000000E+00 0.  1.
         21   -1    0    0  502  503 -0.00000000000E+00 -0.00000000000E+00 -0.66281731597E+03  0.66281731597E+03  0.00000000000E+00 0.  1.
         -6    2    1    2    0  503  0.42464242691E+02 -0.33994885836E+02 -0.49822861828E+03  0.52883335142E+03  0.16874268379E+03 0.  0.
        -24    2    3    3    0    0  0.32202759327E+02 -0.23876546856E+02 -0.50488893883E+03  0.51227651917E+03  0.76858859875E+02 0.  0.
          6    2    1    2  501    0 -0.42464242691E+02  0.33994885836E+02 -0.94279892281E+02  0.20429276995E+03  0.17288138592E+03 0.  0.
         24    2    5    5    0    0 -0.87165692332E+02 -0.97624572466E+01 -0.68045443095E+02  0.13629820401E+03  0.79081316376E+02 0.  0.
          5    1    5    5  501    0  0.44701449641E+02  0.43757343082E+02 -0.26234449187E+02  0.67994565943E+02  0.47000000000E+01 0. -1.
        -11    1    6    6    0    0 -0.65567426095E+02 -0.13539944784E+02 -0.22971568747E+01  0.66990256002E+02  0.00000000000E+00 0.  1.
         12    1    6    6    0    0 -0.21598266236E+02  0.37774875373E+01 -0.65748286220E+02  0.69307948010E+02  0.00000000000E+00 0. -1.
         -5    1    3    3    0  503  0.10261483364E+02 -0.10118338980E+02  0.66603205483E+01  0.16556832255E+02  0.47000000000E+01 0.  1.
         13    1    4    4    0    0 -0.41960901071E+01  0.25209517184E+02 -0.14389262854E+03  0.14614450204E+03  0.00000000000E+00 0. -1.
        -14    1    4    4    0    0  0.36398849434E+02 -0.49086064040E+02 -0.36099631029E+03  0.36613201713E+03  0.00000000000E+00 0.  1.
</event>
<event>
12    1  0.8691829E-002  0.1743889E+03  0.7818608E-02  0.1174031E+00
         21   -1    0    0  501  502  0.00000000000E+00  0.00000000000E+00  0.13692001552E+03  0.13692001552E+03  0.00000000000E+00 0.  1.
         21   -1    0    0  502  503 -0.00000000000E+00 -0.00000000000E+00 -0.35667292561E+03  0.35667292561E+03  0.00000000000E+00 0.  1.
         -6    2    1    2    0  503 -0.20030334313E+02  0.19958314016E+02 -0.26284885169E+03  0.31395787143E+03  0.16935311513E+03 0.  0.
        -24    2    3    3    0    0  0.44145646838E+02  0.43872856264E+02 -0.18139724052E+03  0.20743596359E+03  0.79063610280E+02 0.  0.
          6    2    1    2  501    0  0.20030334313E+02 -0.19958314016E+02  0.43095941603E+02  0.17963506970E+03  0.17208122934E+03 0.  0.
         24    2    5    5    0    0  0.25811845195E+02  0.46683859445E+02 -0.47897134428E+01  0.97235244998E+02  0.81154897757E+02 0.  0.
          5    1    5    5  501    0 -0.57815108822E+01 -0.66642173461E+02  0.47885655046E+02  0.82399824701E+02  0.47000000000E+01 0. -1.
        -13    1    6    6    0    0 -0.24460586509E+02  0.30117371558E+02  0.13730492319E+02  0.41157050201E+02  0.00000000000E+00 0.  1.
         14    1    6    6    0    0  0.50272431703E+02  0.16566487887E+02 -0.18520205762E+02  0.56078194798E+02  0.00000000000E+00 0. -1.
         -5    1    3    3    0  503 -0.64175981151E+02 -0.23914542247E+02 -0.81451611178E+02  0.10652190785E+03  0.47000000000E+01 0.  1.
         13    1    4    4    0    0  0.40529878335E+02  0.37083477513E+02 -0.45527075461E+02  0.71348230128E+02  0.00000000000E+00 0. -1.
        -14    1    4    4    0    0  0.36157685029E+01  0.67893787504E+01 -0.13587016505E+03  0.13608773346E+03  0.00000000000E+00 0.  1.
</event>
<event>
12    1  0.8691829E-002  0.1850000E+03  0.7818608E-02  0.1163423E+00
         21   -1    0    0  503  502  0.00000000000E+00  0.00000000000E+00  0.73754466445E+02  0.73754466445E+02  0.00000000000E+00 0. -1.
         21   -1    0    0  501  503 -0.00000000000E+00 -0.00000000000E+00 -0.94969947522E+03  0.94969947522E+03  0.00000000000E+00 0. -1.
          6    2    1    2  501    0 -0.46714451666E+02  0.44095588462E+02 -0.80449325318E+03  0.82513509205E+03  0.17179017666E+03 0.  0.
         24    2    3    3    0    0  0.34848971702E+02  0.50476530004E+02 -0.39910697852E+03  0.41154903071E+03  0.79522911584E+02 0.  0.
         -6    2    1    2    0  502  0.46714451666E+02 -0.44095588462E+02 -0.71451755591E+02  0.19831884962E+03  0.17348876569E+03 0.  0.
        -24    2    5    5    0    0  0.72441944354E+02 -0.16770227132E+02  0.83681672397E+01  0.10999054536E+03  0.80615246857E+02 0.  0.
          5    1    3    3  501    0 -0.81563423368E+02 -0.63809415418E+01 -0.40538627466E+03  0.41358606134E+03  0.47000000000E+01 0. -1.
        -13    1    4    4    0    0  0.29587718735E+02 -0.41686228761E+01 -0.50750084971E+02  0.58892967671E+02  0.00000000000E+00 0.  1.
         14    1    4    4    0    0  0.52612529672E+01  0.54645152880E+02 -0.34835689355E+03  0.35265606304E+03  0.00000000000E+00 0. -1.
         -5    1    5    5    0  502 -0.25727492689E+02 -0.27325361330E+02 -0.79819922830E+02  0.88328304255E+02  0.47000000000E+01 0.  1.
         11    1    6    6    0    0  0.34310074605E+02  0.10062809345E+02 -0.32251595141E+02  0.48151913155E+02  0.00000000000E+00 0. -1.
        -12    1    6    6    0    0  0.38131869750E+02 -0.26833036476E+02  0.40619762381E+02  0.61838632206E+02  0.00000000000E+00 0.  1.
</event>
<event>
12    1  0.8691829E-002  0.1918365E+03  0.7818608E-02  0.1158009E+00
         21   -1    0    0  501  502  0.00000000000E+00  0.00000000000E+00  0.10376988279E+03  0.10376988279E+03  0.00000000000E+00 0. -1.
         21   -1    0    0  502  503 -0.00000000000E+00 -0.00000000000E+00 -0.37553096182E+03  0.37553096182E+03  0.00000000000E+00 0. -1.
         -6    2    1    2    0  503  0.26691469536E+02  0.75839980454E+02 -0.20600472355E+03  0.28149459173E+03  0.17417554899E+03 0.  0.
        -24    2    3    3    0    0 -0.30042445389E+02  0.21739706657E+02 -0.37335244653E+02  0.95437987872E+02  0.79619882349E+02 0.  0.
          6    2    1    2  501    0 -0.26691469536E+02 -0.75839980454E+02 -0.65756355478E+02  0.19780625288E+03  0.16834274030E+03 0.  0.
         24    2    5    5    0    0 -0.93850153275E+01  0.58761312341E+01  0.13090212055E+02  0.82845792381E+02  0.81052231509E+02 0.  0.
          5    1    5    5  501    0 -0.17306454208E+02 -0.81716111688E+02 -0.78846567533E+02  0.11496046050E+03  0.47000000000E+01 0. -1.
        -13    1    6    6    0    0  0.15954871802E+02 -0.25390636372E+02 -0.15231182220E+02  0.33633781551E+02  0.00000000000E+00 0.  1.
         14    1    6    6    0    0 -0.25339887129E+02  0.31266767606E+02  0.28321394274E+02  0.49212010830E+02  0.00000000000E+00 0. -1.
         -5    1    3    3    0  503  0.56733914925E+02  0.54100273797E+02 -0.16866947890E+03  0.18605660386E+03  0.47000000000E+01 0.  1.
         11    1    4    4    0    0 -0.15630809694E+02  0.51194092960E+02 -0.31571105417E+02  0.62144123318E+02  0.00000000000E+00 0. -1.
        -12    1    4    4    0    0 -0.14411635695E+02 -0.29454386302E+02 -0.57641392364E+01  0.33293864555E+02  0.00000000000E+00 0.  1.
</event>
<event>
12    1  0.8691829E-002  0.2150657E+03  0.7818608E-02  0.1137736E+00
         21   -1    0    0  503  502  0.00000000000E+00  0.00000000000E+00  0.10053638790E+04  0.10053638790E+04  0.00000000000E+00 0.  1.
         21   -1    0    0  501  503 -0.00000000000E+00 -0.00000000000E+00 -0.65904513071E+02  0.65904513071E+02  0.00000000000E+00 0. -1.
          6    2    1    2  501    0  0.72702663150E+02  0.10647099334E+03  0.17490346843E+03  0.27720839108E+03  0.17213808167E+03 0.  0.
         24    2    3    3    0    0  0.64239023215E+02 -0.33270936307E+01  0.10080931740E+03  0.14439541611E+03  0.80930810341E+02 0.  0.
         -6    2    1    2    0  502 -0.72702663150E+02 -0.10647099334E+03  0.76455589752E+03  0.79406000102E+03  0.17135873229E+03 0.  0.
        -24    2    5    5    0    0 -0.52494859845E+02  0.11480999217E+02  0.27303256013E+03  0.28815654277E+03  0.74832416775E+02 0.  0.
          5    1    3    3  501    0  0.84636399348E+01  0.10979808697E+03  0.74094151026E+02  0.13281297497E+03  0.47000000000E+01 0. -1.
        -11    1    4    4    0    0 -0.17091575623E+02 -0.14821112456E+01  0.34103499277E+01  0.17491400678E+02  0.00000000000E+00 0.  1.
         12    1    4    4    0    0  0.81330598838E+02 -0.18449823851E+01  0.97398967476E+02  0.12690401543E+03  0.00000000000E+00 0. -1.
         -5    1    5    5    0  502 -0.20207803304E+02 -0.11795199255E+03  0.49152333739E+03  0.50590345825E+03  0.47000000000E+01 0.  1.
         13    1    6    6    0    0 -0.23187302873E+02 -0.15196793183E+02  0.26141044074E+02  0.38104431801E+02  0.00000000000E+00 0. -1.
        -14    1    6    6    0    0 -0.29307556972E+02  0.26677792400E+02  0.24689151605E+03  0.25005211097E+03  0.00000000000E+00 0.  1.
</event>
<event>
12    1  0.8691829E-002  0.3003585E+03  0.7818608E-02  0.1085169E+00
         21   -1    0    0  501  502  0.00000000000E+00  0.00000000000E+00  0.35481137179E+03  0.35481137179E+03  0.00000000000E+00 0.  1.
         21   -1    0    0  502  503 -0.00000000000E+00 -0.00000000000E+00 -0.29049038941E+03  0.29049038941E+03  0.00000000000E+00 0. -1.
         -6    2    1    2    0  503  0.23499445123E+03 -0.72443229333E+02 -0.82884327461E+02  0.31158468105E+03  0.17246677402E+03 0.  0.
        -24    2    3    3    0    0  0.71801409907E+02 -0.74461652105E+02 -0.72157041111E+02  0.14795947688E+03  0.77365290142E+02 0.  0.
          6    2    1    2  501    0 -0.23499445123E+03  0.72443229333E+02  0.14720530984E+03  0.33371708015E+03  0.17095985713E+03 0.  0.
         24    2    5    5    0    0 -0.21776966978E+03  0.24559126461E+02  0.78069620154E+02  0.24774374712E+03  0.85178159610E+02 0.  0.
          5    1    5    5  501    0 -0.17224781448E+02  0.47884102872E+02  0.69135689688E+02  0.85973333031E+02  0.47000000000E+01 0. -1.
        -13    1    6    6    0    0 -0.20772571045E+03  0.39603645117E+02  0.85618809230E+02  0.22814249929E+03  0.00000000000E+00 0.  1.
         14    1    6    6    0    0 -0.10043959335E+02 -0.15044518657E+02 -0.75491890752E+01  0.19601247828E+02  0.00000000000E+00 0. -1.
         -5    1    3    3    0  503  0.16319304132E+03  0.20184227723E+01 -0.10727286351E+02  0.16362520417E+03  0.47000000000E+01 0.  1.
         11    1    4    4    0    0  0.77725476300E+02 -0.51816901872E+02 -0.80292394934E+02  0.12317917710E+03  0.00000000000E+00 0. -1.
        -12    1    4    4    0    0 -0.59240663925E+01 -0.22644750233E+02  0.81353538234E+01  0.24780299788E+02  0.00000000000E+00 0.  1.
</event>
<event>
12    1  0.8691829E-002  0.1952206E+03  0.7818608E-02  0.1154098E+00
         21   -1    0    0  501  502  0.00000000000E+00  0.00000000000E+00  0.76386835164E+02  0.76386835164E+02  0.00000000000E+00 0.  1.
         21   -1    0    0  502  503 -0.00000000000E+00 -0.00000000000E+00 -0.49852590451E+03  0.49852590451E+03  0.00000000000E+00 0. -1.
         -6    2    1    2    0  503  0.77099757488E+02  0.38580354918E+02 -0.23278245901E+03  0.30380713257E+03  0.17515217437E+03 0.  0.
        -24    2    3    3    0    0  0.43272388693E+02  0.32442041996E+02 -0.33875290538E+02  0.10189596043E+03  0.79437181033E+02 0.  0.
          6    2    1    2  501    0 -0.77099757488E+02 -0.38580354918E+02 -0.18935661034E+03  0.27110560711E+03  0.17380882583E+03 0.  0.
         24    2    5    5    0    0 -0.11122253667E+03  0.16734294182E+01 -0.10337383040E+03  0.17011125252E+03  0.76670961876E+02 0.  0.
          5    1    5    5  501    0  0.34122779177E+02 -0.40253784336E+02 -0.85982779941E+02  0.10099435459E+03  0.47000000000E+01 0. -1.
        -13    1    6    6    0    0 -0.35892214928E+02 -0.34917137483E+00  0.68972247392E+01  0.36550577591E+02  0.00000000000E+00 0.  1.
         14    1    6    6    0    0 -0.75330321737E+02  0.20226007930E+01 -0.11027105514E+03  0.13356067493E+03  0.00000000000E+00 0. -1.
         -5    1    3    3    0  503  0.33827368795E+02  0.61383129216E+01 -0.19890716847E+03  0.20191117214E+03  0.47000000000E+01 0.  1.
         11    1    4    4    0    0 -0.61296585679E+01 -0.15855139565E+02  0.10315381163E+02  0.19883793735E+02  0.00000000000E+00 0. -1.
        -12    1    4    4    0    0  0.49402047261E+02  0.48297181561E+02 -0.44190671701E+02  0.82012166693E+02  0.00000000000E+00 0.  1.
</event>
<event>
12    1  0.8691829E-002  0.2015302E+03  0.7818608E-02  0.1148850E+00
         21   -1    0    0  501  502  0.00000000000E+00  0.00000000000E+00  0.89469491072E+02  0.89469491072E+02  0.00000000000E+00 0.  1.
         21   -1    0    0  502  503 -0.00000000000E+00 -0.00000000000E+00 -0.49359026147E+03  0.49359026147E+03  0.00000000000E+00 0.  1.
         -6    2    1    2    0  503  0.97253283177E+02  0.36812952899E+02 -0.28984513230E+03  0.35302214208E+03  0.17262977001E+03 0.  0.
        -24    2    3    3    0    0 -0.76558120938E+01  0.35192993254E+02 -0.19254113443E+03  0.20984846943E+03  0.75280365582E+02 0.  0.
          6    2    1    2  501    0 -0.97253283177E+02 -0.36812952899E+02 -0.11427563810E+03  0.23003761046E+03  0.17042589643E+03 0.  0.
         24    2    5    5    0    0 -0.35046311584E+02 -0.76558481179E+02 -0.10236778780E+03  0.15511564284E+03  0.80574522520E+02 0.  0.
          5    1    5    5  501    0 -0.62206971593E+02  0.39745528280E+02 -0.11907850305E+02  0.74921967619E+02  0.47000000000E+01 0. -1.
        -13    1    6    6    0    0 -0.58948283546E+02 -0.39632574030E+02 -0.50757971490E+02  0.87304139232E+02  0.00000000000E+00 0.  1.
         14    1    6    6    0    0  0.23901971962E+02 -0.36925907149E+02 -0.51609816305E+02  0.67811503607E+02  0.00000000000E+00 0. -1.
         -5    1    3    3    0  503  0.10490909527E+03  0.16199596451E+01 -0.97303997869E+02  0.14317367265E+03  0.47000000000E+01 0.  1.
         13    1    4    4    0    0 -0.37287995296E+02  0.29560114056E+02 -0.77701758940E+02  0.91113985088E+02  0.00000000000E+00 0. -1.
        -14    1    4    4    0    0  0.29632183202E+02  0.56328791973E+01 -0.11483937549E+03  0.11873448434E+03  0.00000000000E+00 0.  1.
</event>
<event>
12    1  0.8691829E-002  0.2506747E+03  0.7818608E-02  0.1113047E+00
         21   -1    0    0  501  502  0.00000000000E+00  0.00000000000E+00  0.13368182213E+03  0.13368182213E+03  0.00000000000E+00 0.  1.
         21   -1    0    0  502  503 -0.00000000000E+00 -0.00000000000E+00 -0.16510422069E+04  0.16510422069E+04  0.00000000000E+00 0.  1.
         -6    2    1    2    0  503  0.18072820206E+03 -0.11677825377E+02 -0.15135763058E+04  0.15340208054E+04  0.17177759848E+03 0.  0.
        -24    2    3    3    0    0  0.66978251423E+02  0.11631959880E+02 -0.10807738066E+04  0.10858885809E+04  0.80377860041E+02 0.  0.
          6    2    1    2  501    0 -0.18072820206E+03  0.11677825377E+02 -0.37840789971E+01  0.25070322364E+03  0.17331685568E+03 0.  0.
         24    2    5    5    0    0 -0.94383277590E+02 -0.56570743826E+02 -0.19924843951E+02  0.13936622407E+03  0.83171466614E+02 0.  0.
          5    1    5    5  501    0 -0.86344924469E+02  0.68248569204E+02  0.16140764954E+02  0.11133699957E+03  0.47000000000E+01 0. -1.
        -13    1    6    6    0    0 -0.40536983670E+02 -0.11517268349E+02  0.31269020698E+02  0.52475195766E+02  0.00000000000E+00 0.  1.
         14    1    6    6    0    0 -0.53846293920E+02 -0.45053475477E+02 -0.51193864650E+02  0.86891028301E+02  0.00000000000E+00 0. -1.
         -5    1    3    3    0  503  0.11374995064E+03 -0.23309785257E+02 -0.43280249920E+03  0.44813222454E+03  0.47000000000E+01 0.  1.
         11    1    4    4    0    0  0.72961793811E+02  0.35156635125E+02 -0.83682738479E+03  0.84073746454E+03  0.00000000000E+00 0. -1.
        -12    1    4    4    0    0 -0.59835423884E+01 -0.23524675245E+02 -0.24394642180E+03  0.24515111633E+03  0.00000000000E+00 0.  1.
</event>
<event>
12    1  0.8691829E-002  0.1948628E+03  0.7818608E-02  0.1154296E+00
         21   -1    0    0  501  502  0.00000000000E+00  0.00000000000E+00  0.15334757513E+03  0.15334757513E+03  0.00000000000E+00 0.  1.
         21   -1    0    0  502  503 -0.00000000000E+00 -0.00000000000E+00 -0.25111788289E+03  0.25111788289E+03  0.00000000000E+00 0.  1.
         -6    2    1    2    0  503 -0.67171826750E+02  0.61423526120E+02 -0.75641701842E+02  0.20902909075E+03  0.17229796822E+03 0.  0.
        -24    2    3    3    0    0 -0.17708422763E+02 -0.50453285472E+01 -0.89630673642E+02  0.12487139172E+03  0.84971543678E+02 0.  0.
          6    2    1    2  501    0  0.67171826750E+02 -0.61423526120E+02 -0.22128605918E+02  0.19543636727E+03  0.17152490951E+03 0.  0.
         24    2    5    5    0    0  0.10687421183E+03 -0.37016628636E+02  0.11826361868E+02  0.13758305394E+03  0.77439692317E+02 0.  0.
          5    1    5    5  501    0 -0.39702385085E+02 -0.24406897484E+02 -0.33954967786E+02  0.57853313332E+02  0.47000000000E+01 0. -1.
        -13    1    6    6    0    0  0.11062085014E+03 -0.11570236487E+02  0.11928549285E+02  0.11186211667E+03  0.00000000000E+00 0.  1.
         14    1    6    6    0    0 -0.37466383026E+01 -0.25446392149E+02 -0.10218741722E+00  0.25720937274E+02  0.00000000000E+00 0. -1.
         -5    1    3    3    0  503 -0.49463403987E+02  0.66468854667E+02  0.13988971801E+02  0.84157699035E+02  0.47000000000E+01 0.  1.
         13    1    4    4    0    0  0.61519228927E+01  0.35291769677E+02 -0.20267712149E+02  0.41159875097E+02  0.00000000000E+00 0. -1.
        -14    1    4    4    0    0 -0.23860345655E+02 -0.40337098224E+02 -0.69362961493E+02  0.83711516621E+02  0.00000000000E+00 0.  1.
</event>
<event>
12    1  0.8691829E-002  0.1989622E+03  0.7818608E-02  0.1151024E+00
         21   -1    0    0  503  502  0.00000000000E+00  0.00000000000E+00  0.94584601320E+02  0.94584601320E+02  0.00000000000E+00 0. -1.
         21   -1    0    0  501  503 -0.00000000000E+00 -0.00000000000E+00 -0.41677771925E+03  0.41677771925E+03  0.00000000000E+00 0. -1.
          6    2    1    2  501    0 -0.98834715184E+02 -0.10002065558E+02 -0.14309529485E+03  0.24507592224E+03  0.17238794046E+03 0.  0.
         24    2    3    3    0    0 -0.12109376579E+03 -0.69482607441E+01 -0.55969743373E+02  0.15497740518E+03  0.78571022026E+02 0.  0.
         -6    2    1    2    0  502  0.98834715184E+02  0.10002065558E+02 -0.17909782309E+03  0.26628639833E+03  0.17018834701E+03 0.  0.
        -24    2    5    5    0    0  0.12172210574E+03  0.39630239290E+02 -0.17028589318E+03  0.22753847666E+03  0.79935261627E+02 0.  0.
          5    1    3    3  501    0  0.22259050607E+02 -0.30538048142E+01 -0.87125551472E+02  0.90098517064E+02  0.47000000000E+01 0. -1.
        -13    1    4    4    0    0 -0.23285699973E+02 -0.29718916497E+02 -0.36834802147E+02  0.52746947496E+02  0.00000000000E+00 0.  1.
         14    1    4    4    0    0 -0.97808065818E+02  0.22770655752E+02 -0.19134941226E+02  0.10223045768E+03  0.00000000000E+00 0. -1.
         -5    1    5    5    0  502 -0.22887390556E+02 -0.29628173732E+02 -0.88119299071E+01  0.38747921671E+02  0.47000000000E+01 0.  1.
         11    1    6    6    0    0  0.58313369420E+02 -0.17421653860E+02 -0.99769672235E+02  0.11686723482E+03  0.00000000000E+00 0. -1.
        -12    1    6    6    0    0  0.63408736320E+02  0.57051893150E+02 -0.70516220945E+02  0.11067124184E+03  0.00000000000E+00 0.  1.
</event>
<event>
12    1  0.8691829E-002  0.1792284E+03  0.7818608E-02  0.1169152E+00
         21   -1    0    0  501  502  0.00000000000E+00  0.00000000000E+00  0.10872957770E+04  0.10872957770E+04  0.00000000000E+00 0. -1.
         21   -1    0    0  502  503 -0.00000000000E+00 -0.00000000000E+00 -0.54494512728E+02  0.54494512728E+02  0.00000000000E+00 0. -1.
         -6    2    1    2    0  503 -0.39244320927E+02  0.14769712010E+02  0.12510756189E+03  0.21657103904E+03  0.17173482988E+03 0.  0.
        -24    2    3    3    0    0 -0.75615134756E+02  0.51544200395E+02  0.10663592071E+03  0.16144853346E+03  0.79498151995E+02 0.  0.
          6    2    1    2  501    0  0.39244320927E+02 -0.14769712010E+02  0.90769370237E+03  0.92521925067E+03  0.17425424923E+03 0.  0.
         24    2    5    5    0    0  0.84409658811E+02 -0.44682275936E+02  0.61087116213E+03  0.62345712644E+03  0.80085676020E+02 0.  0.
          5    1    5    5  501    0 -0.45165337883E+02  0.29912563926E+02  0.29682254024E+03  0.30176212424E+03  0.47000000000E+01 0. -1.
        -13    1    6    6    0    0 -0.14043738649E+02 -0.24941778806E+01  0.36578077617E+02  0.39260709121E+02  0.00000000000E+00 0.  1.
         14    1    6    6    0    0  0.98453397460E+02 -0.42188098056E+02  0.57429308451E+03  0.58419641732E+03  0.00000000000E+00 0. -1.
         -5    1    3    3    0  503  0.36370813829E+02 -0.36774488385E+02  0.18471641180E+02  0.55122505589E+02  0.47000000000E+01 0.  1.
         13    1    4    4    0    0 -0.55467801640E+02  0.12031568367E+02  0.13574610562E+02  0.58358424482E+02  0.00000000000E+00 0. -1.
        -14    1    4    4    0    0 -0.20147333116E+02  0.39512632029E+02  0.93061310149E+02  0.10309010897E+03  0.00000000000E+00 0.  1.
</event>
<event>
12    1  0.8691829E-002  0.2018980E+03  0.7818608E-02  0.1148618E+00
         21   -1    0    0  501  502  0.00000000000E+00  0.00000000000E+00  0.58470484836E+02  0.58470484836E+02  0.00000000000E+00 0. -1.
         21   -1    0    0  502  503 -0.00000000000E+00 -0.00000000000E+00 -0.69322917626E+03  0.69322917626E+03  0.00000000000E+00 0. -1.
         -6    2    1    2    0  503 -0.10089520787E+03 -0.22232236303E+02 -0.34698969691E+03  0.40145316823E+03  0.17346089247E+03 0.  0.
        -24    2    3    3    0    0 -0.35314405567E+02  0.52250080080E+02 -0.17113937746E+03  0.19947821449E+03  0.80781764233E+02 0.  0.
          6    2    1    2  501    0  0.10089520787E+03  0.22232236303E+02 -0.28776899452E+03  0.35024649287E+03  0.17084348469E+03 0.  0.
         24    2    5    5    0    0 -0.82823869518E+01  0.30356900777E+02 -0.13320939947E+03  0.16078273431E+03  0.84357597100E+02 0.  0.
          5    1    5    5  501    0  0.10917759482E+03 -0.81246644739E+01 -0.15455959506E+03  0.18946375856E+03  0.47000000000E+01 0. -1.
        -13    1    6    6    0    0 -0.14132736112E+02  0.12193087039E+02  0.65084132942E+01  0.19767777952E+02  0.00000000000E+00 0.  1.
         14    1    6    6    0    0  0.58503491607E+01  0.18163813738E+02 -0.13971781276E+03  0.14101495636E+03  0.00000000000E+00 0. -1.
         -5    1    3    3    0  503 -0.65580802304E+02 -0.74482316384E+02 -0.17585031945E+03  0.20197495373E+03  0.47000000000E+01 0.  1.
         11    1    4    4    0    0 -0.20229023272E+02 -0.20102054747E+02 -0.44711631362E+02  0.53032404873E+02  0.00000000000E+00 0. -1.
        -12    1    4    4    0    0 -0.15085382296E+02  0.72352134827E+02 -0.12642774609E+03  0.14644580962E+03  0.00000000000E+00 0.  1.
</event>
<event>
12    1  0.8691829E-002  0.2003061E+03  0.7818608E-02  0.1149719E+00
         21   -1    0    0  501  502  0.00000000000E+00  0.00000000000E+00  0.41378963956E+03  0.41378963956E+03  0.00000000000E+00 0. -1.
         21   -1    0    0  502  503 -0.00000000000E+00 -0.00000000000E+00 -0.21088349600E+03  0.21088349600E+03  0.00000000000E+00 0.  1.
         -6    2    1    2    0  503  0.42524285527E+02  0.93491366491E+02 -0.12852687804E+03  0.23799512635E+03  0.17196968140E+03 0.  0.
        -24    2    3    3    0    0  0.10369061796E+02  0.43263657319E+02  0.68581639193E+01  0.89981678423E+02  0.77912813788E+02 0.  0.
          6    2    1    2  501    0 -0.42524285527E+02 -0.93491366491E+02  0.33143302160E+03  0.38667800920E+03  0.17065486963E+03 0.  0.
         24    2    5    5    0    0 -0.20712862116E+02  0.10526222626E+02  0.21274111947E+03  0.22728775019E+03  0.76557909156E+02 0.  0.
          5    1    5    5  501    0 -0.21811423412E+02 -0.10401758912E+03  0.11869190213E+03  0.15939025901E+03  0.47000000000E+01 0. -1.
        -11    1    6    6    0    0  0.28185453041E+02  0.12851590221E+02  0.77694298497E+02  0.83642017870E+02  0.00000000000E+00 0.  1.
         12    1    6    6    0    0 -0.48898315157E+02 -0.23253675953E+01  0.13504682097E+03  0.14364573232E+03  0.00000000000E+00 0. -1.
         -5    1    3    3    0  503  0.32155223731E+02  0.50227709172E+02 -0.13538504196E+03  0.14801344793E+03  0.47000000000E+01 0.  1.
         13    1    4    4    0    0 -0.29036682828E+02 -0.14638287816E+01 -0.41358590753E+01  0.29366257416E+02  0.00000000000E+00 0. -1.
        -14    1    4    4    0    0  0.39405744624E+02  0.44727486100E+02  0.10994022995E+02  0.60615421007E+02  0.00000000000E+00 0.  1.
</event>
<event>
12    1  0.8691829E-002  0.1886015E+03  0.7818608E-02  0.1159792E+00
         21   -1    0    0  501  502  0.00000000000E+00  0.00000000000E+00  0.30650193514E+03  0.30650193514E+03  0.00000000000E+00 0. -1.
         21   -1    0    0  502  503 -0.00000000000E+00 -0.00000000000E+00 -0.12387107581E+03  0.12387107581E+03  0.00000000000E+00 0. -1.
         -6    2    1    2    0  503  0.75879643753E+02 -0.18835765259E+02  0.36730967252E+02  0.19214497059E+03  0.17163338655E+03 0.  0.
        -24    2    3    3    0    0  0.85329049432E+02  0.75179237402E+01 -0.29248908305E+02  0.12031710573E+03  0.79266269248E+02 0.  0.
          6    2    1    2  501    0 -0.75879643753E+02  0.18835765259E+02  0.14589989207E+03  0.23822804036E+03  0.17132808970E+03 0.  0.
         24    2    5    5    0    0 -0.89210410042E+02  0.21221724582E+02  0.40093609287E+02  0.13145509618E+03  0.85229607254E+02 0.  0.
          5    1    5    5  501    0  0.13330766289E+02 -0.23859593222E+01  0.10580628279E+03  0.10677294418E+03  0.47000000000E+01 0. -1.
        -11    1    6    6    0    0 -0.34489818153E+02  0.13729768539E+02 -0.26000557155E+02  0.45321993257E+02  0.00000000000E+00 0.  1.
         12    1    6    6    0    0 -0.54720591889E+02  0.74919560422E+01  0.66094166442E+02  0.86133102926E+02  0.00000000000E+00 0. -1.
         -5    1    3    3    0  503 -0.94494056791E+01 -0.26353689000E+02  0.65979875558E+02  0.71827864859E+02  0.47000000000E+01 0.  1.
         11    1    4    4    0    0  0.43644731188E+02 -0.14203474347E+02  0.21896291615E+02  0.50853208655E+02  0.00000000000E+00 0. -1.
        -12    1    4    4    0    0  0.41684318244E+02  0.21721398087E+02 -0.51145199921E+02  0.69463897078E+02  0.00000000000E+00 0.  1.
</event>
<event>
12    1  0.8691829E-002  0.1819449E+03  0.7818608E-02  0.1166345E+00
         21   -1    0    0  501  502  0.00000000000E+00  0.00000000000E+00  0.11482722641E+04  0.11482722641E+04  0.00000000000E+00 0.  1.
         21   -1    0    0  502  503 -0.00000000000E+00 -0.00000000000E+00 -0.50033453445E+02  0.50033453445E+02  0.00000000000E+00 0.  1.
         -6    2    1    2    0  503  0.38837778901E+02  0.36881919098E+02  0.15807463352E+03  0.24102189483E+03  0.17388304978E+03 0.  0.
        -24    2    3    3    0    0 -0.39781853556E+02  0.25255171929E+02  0.12493967686E+03  0.15478824009E+03  0.78288293083E+02 0.  0.
          6    2    1    2  501    0 -0.38837778901E+02 -0.36881919098E+02  0.94016417717E+03  0.95728382275E+03  0.17209005850E+03 0.  0.
         24    2    5    5    0    0  0.39792267061E+02 -0.44581497416E+02  0.50210438541E+03  0.51213167034E+03  0.81234841608E+02 0.  0.
          5    1    5    5  501    0 -0.78630045962E+02  0.76995783175E+01  0.43805979176E+03  0.44515215240E+03  0.47000000000E+01 0. -1.
        -11    1    6    6    0    0  0.52892076323E+02 -0.62005171907E+01  0.18722991724E+03  0.19465626129E+03  0.00000000000E+00 0.  1.
         12    1    6    6    0    0 -0.13099809262E+02 -0.38380980225E+02  0.31487446817E+03  0.31747540905E+03  0.00000000000E+00 0. -1.
         -5    1    3    3    0  503  0.78619632458E+02  0.11626747169E+02  0.33134956657E+02  0.86233654742E+02  0.47000000000E+01 0.  1.
         13    1    4    4    0    0 -0.30035214215E+02 -0.17156537831E+01  0.12234917992E+03  0.12599356884E+03  0.00000000000E+00 0. -1.
        -14    1    4    4    0    0 -0.97466393413E+01  0.26970825712E+02  0.25904969396E+01  0.28794671251E+02  0.00000000000E+00 0.  1.
</event>
<event>
12    1  0.8691829E-002  0.1850262E+03  0.7818608E-02  0.1164037E+00
         21   -1    0    0  501  502  0.00000000000E+00  0.00000000000E+00  0.19830520466E+03  0.19830520466E+03  0.00000000000E+00 0. -1.
         21   -1    0    0  502  503 -0.00000000000E+00 -0.00000000000E+00 -0.22403999788E+03  0.22403999788E+03  0.00000000000E+00 0. -1.
         -6    2    1    2    0  503  0.67990186274E+02 -0.17681314088E+01 -0.11795851045E+03  0.21942861777E+03  0.17207241612E+03 0.  0.
        -24    2    3    3    0    0  0.72480855591E+02  0.26734686575E+02 -0.14648772561E+02  0.11206210210E+03  0.79844287807E+02 0.  0.
          6    2    1    2  501    0 -0.67990186274E+02  0.17681314088E+01  0.92223717230E+02  0.20291658478E+03  0.16746383084E+03 0.  0.
         24    2    5    5    0    0 -0.10620070055E+03  0.18765024954E+02  0.51615931810E+02  0.14443564747E+03  0.81035405132E+02 0.  0.
          5    1    5    5  501    0  0.38210514276E+02 -0.16996893545E+02  0.40607785420E+02  0.58480937306E+02  0.47000000000E+01 0. -1.
        -11    1    6    6    0    0 -0.50533136932E+02 -0.95971693644E+01 -0.14529696539E+02  0.53449187735E+02  0.00000000000E+00 0.  1.
         12    1    6    6    0    0 -0.55667563618E+02  0.28362194318E+02  0.66145628348E+02  0.90986459736E+02  0.00000000000E+00 0. -1.
         -5    1    3    3    0  503 -0.44906693166E+01 -0.28502817983E+02 -0.10330973789E+03  0.10736651567E+03  0.47000000000E+01 0.  1.
         13    1    4    4    0    0  0.39269322242E+01 -0.19557235976E+02 -0.21167735891E+02  0.29085723619E+02  0.00000000000E+00 0. -1.
        -14    1    4    4    0    0  0.68553923367E+02  0.46291922550E+02  0.65189633303E+01  0.82976378478E+02  0.00000000000E+00 0.  1.
</event>
<event>
12    1  0.8691829E-002  0.2523910E+03  0.7818608E-02  0.1111841E+00
         21   -1    0    0  503  502  0.00000000000E+00  0.00000000000E+00  0.43382972776E+02  0.43382972776E+02  0.00000000000E+00 0. -1.
         21   -1    0    0  501  503 -0.00000000000E+00 -0.00000000000E+00 -0.14835021732E+04  0.14835021732E+04  0.00000000000E+00 0. -1.
          6    2    1    2  501    0 -0.12197143797E+03  0.13821110474E+03 -0.80105834465E+03  0.83987838036E+03  0.17240035124E+03 0.  0.
         24    2    3    3    0    0  0.13963825326E+00  0.88580164205E+02 -0.42862449024E+03  0.44477913826E+03  0.79139517379E+02 0.  0.
         -6    2    1    2    0  502  0.12197143797E+03 -0.13821110474E+03 -0.63906085580E+03  0.68700676563E+03  0.17204702108E+03 0.  0.
        -24    2    5    5    0    0  0.50675315803E+02 -0.14512176005E+03 -0.37220089093E+03  0.41066056060E+03  0.80500185989E+02 0.  0.
          5    1    3    3  501    0 -0.12211107623E+03  0.49630940539E+02 -0.37243385441E+03  0.39509924210E+03  0.47000000000E+01 0. -1.
        -13    1    4    4    0    0  0.23220406305E+02 -0.35175710172E+01 -0.99436574868E+02  0.10217236904E+03  0.00000000000E+00 0.  1.
         14    1    4    4    0    0 -0.23080768051E+02  0.92097735223E+02 -0.32918791537E+03  0.34260676922E+03  0.00000000000E+00 0. -1.
         -5    1    5    5    0  502  0.71296122170E+02  0.69106553104E+01 -0.26685996486E+03  0.27634620504E+03  0.47000000000E+01 0.  1.
         11    1    6    6    0    0  0.40838384970E+02 -0.38018619126E+02 -0.19994662911E+03  0.20758574995E+03  0.00000000000E+00 0. -1.
        -12    1    6    6    0    0  0.98369308331E+01 -0.10710314093E+03 -0.17225426182E+03  0.20307481065E+03  0.00000000000E+00 0.  1.
</event>
<event>
12    1  0.8691829E-002  0.1880099E+03  0.7818608E-02  0.1160828E+00
         21   -1    0    0  503  502  0.00000000000E+00  0.00000000000E+00  0.28031565503E+03  0.28031565503E+03  0.00000000000E+00 0.  1.
         21   -1    0    0  501  503 -0.00000000000E+00 -0.00000000000E+00 -0.28972576684E+03  0.28972576684E+03  0.00000000000E+00 0.  1.
          6    2    1    2  501    0 -0.41531175968E+02  0.55249769104E+02 -0.21997116031E+03  0.28937007635E+03  0.17484379931E+03 0.  0.
         24    2    3    3    0    0 -0.56088684192E+02 -0.28313978152E+02 -0.13813195250E+03  0.17141005416E+03  0.79707894916E+02 0.  0.
         -6    2    1    2    0  502  0.41531175968E+02 -0.55249769104E+02  0.21056104850E+03  0.28067134552E+03  0.17222971139E+03 0.  0.
        -24    2    5    5    0    0 -0.38531350290E+02 -0.34161827332E+01  0.11894989006E+03  0.14834061161E+03  0.79746632825E+02 0.  0.
          5    1    3    3  501    0  0.14557508224E+02  0.83563747256E+02 -0.81839207815E+02  0.11796002220E+03  0.47000000000E+01 0. -1.
        -11    1    4    4    0    0 -0.35374383669E+02  0.25351342161E+02 -0.67552749579E+02  0.80358021037E+02  0.00000000000E+00 0.  1.
         12    1    4    4    0    0 -0.20714300523E+02 -0.53665320313E+02 -0.70579202920E+02  0.91052033120E+02  0.00000000000E+00 0. -1.
         -5    1    5    5    0  502  0.80062526258E+02 -0.51833586370E+02  0.91611158439E+02  0.13233073391E+03  0.47000000000E+01 0.  1.
         11    1    6    6    0    0 -0.35609298250E+02 -0.38986017787E+02  0.75067419709E+02  0.91777171489E+02  0.00000000000E+00 0. -1.
        -12    1    6    6    0    0 -0.29220520401E+01  0.35569835054E+02  0.43882470352E+02  0.56563440119E+02  0.00000000000E+00 0.  1.
</event>
<event>
12    1  0.8691829E-002  0.2508099E+03  0.7818608E-02  0.1113441E+00
         21   -1    0    0  503  502  0.00000000000E+00  0.00000000000E+00  0.13129606451E+04  0.13129606451E+04  0.00000000000E+00 0.  1.
         21   -1    0    0  501  503 -0.00000000000E+00 -0.00000000000E+00 -0.15411855345E+03  0.15411855345E+03  0.00000000000E+00 0. -1.
          6    2    1    2  501    0 -0.16919136687E+03  0.63129617116E+02 -0.30278660880E+02  0.25263091805E+03  0.17405319954E+03 0.  0.
         24    2    3    3    0    0 -0.32963013391E+02  0.70116584624E+02  0.96180959967E+01  0.11043097707E+03  0.78099918277E+02 0.  0.
         -6    2    1    2    0  502  0.16919136687E+03 -0.63129617116E+02  0.11891207525E+04  0.12144482805E+04  0.16812315340E+03 0.  0.
        -24    2    5    5    0    0  0.19187378877E+03 -0.35701687268E+02  0.10313423846E+04  0.10526370108E+04  0.79293133526E+02 0.  0.
          5    1    3    3  501    0 -0.13622835348E+03 -0.69869675086E+01 -0.39896756877E+02  0.14219994098E+03  0.47000000000E+01 0. -1.
        -13    1    4    4    0    0 -0.10419628653E+02 -0.16368892351E+02  0.81437634856E+01  0.21043530640E+02  0.00000000000E+00 0.  1.
         14    1    4    4    0    0 -0.22543384737E+02  0.86485476975E+02  0.14743325111E+01  0.89387446431E+02  0.00000000000E+00 0. -1.
         -5    1    5    5    0  502 -0.22682421907E+02 -0.27427929848E+02  0.15777836797E+03  0.16181126968E+03  0.47000000000E+01 0.  1.
         11    1    6    6    0    0  0.17320852880E+03 -0.44120183881E+02  0.76910069498E+03  0.78959715305E+03  0.00000000000E+00 0. -1.
        -12    1    6    6    0    0  0.18665259972E+02  0.84184966129E+01  0.26224168958E+03  0.26303985776E+03  0.00000000000E+00 0.  1.
</event>
<event>
12    1  0.8691829E-002  0.2432629E+03  0.7818608E-02  0.1117729E+00
         21   -1    0    0  501  502  0.00000000000E+00  0.00000000000E+00  0.38570111258E+03  0.38570111258E+03  0.00000000000E+00 0. -1.
         21   -1    0    0  502  503 -0.00000000000E+00 -0.00000000000E+00 -0.19653334719E+03  0.19653334719E+03  0.00000000000E+00 0.  1.
         -6    2    1    2    0  503  0.64475645640E+02 -0.15866586966E+03 -0.42224111134E+02  0.24690017438E+03  0.17275663076E+03 0.  0.
        -24    2    3    3    0    0 -0.67221040849E+01 -0.73454258031E+02 -0.67666447132E+02  0.13288464569E+03  0.87400608038E+02 0.  0.
          6    2    1    2  501    0 -0.64475645640E+02  0.15866586966E+03  0.23139187653E+03  0.33533428539E+03  0.17197358912E+03 0.  0.
         24    2    5    5    0    0 -0.28137769262E+02  0.38794795007E+02  0.29260523959E+02  0.97492553364E+02  0.79698491331E+02 0.  0.
          5    1    5    5  501    0 -0.36337876378E+02  0.11987107466E+03  0.20213135257E+03  0.23784173202E+03  0.47000000000E+01 0. -1.
        -11    1    6    6    0    0  0.51978297106E+01  0.18862892959E+02 -0.24384054133E+02  0.31263529238E+02  0.00000000000E+00 0.  1.
         12    1    6    6    0    0 -0.33335598972E+02  0.19931902049E+02  0.53644578091E+02  0.66229024126E+02  0.00000000000E+00 0. -1.
         -5    1    3    3    0  503  0.71197749725E+02 -0.85211611632E+02  0.25442335998E+02  0.11401552870E+03  0.47000000000E+01 0.  1.
         11    1    4    4    0    0 -0.10360512674E+02 -0.11345902735E+02 -0.68965468783E+02  0.70656249661E+02  0.00000000000E+00 0. -1.
        -12    1    4    4    0    0  0.36384085894E+01 -0.62108355296E+02  0.12990216507E+01  0.62228396025E+02  0.00000000000E+00 0.  1.
</event>
<event>
12    1  0.8691829E-002  0.2225623E+03  0.7818608E-02  0.1132885E+00
         21   -1    0    0  503  502  0.00000000000E+00  0.00000000000E+00  0.15865043185E+04  0.15865043185E+04  0.00000000000E+00 0. -1.
         21   -1    0    0  501  503 -0.00000000000E+00 -0.00000000000E+00 -0.36770971898E+02  0.36770971898E+02  0.00000000000E+00 0. -1.
          6    2    1    2  501    0 -0.13823843206E+03  0.82598633717E+01  0.44804908904E+03  0.50028190365E+03  0.17422946792E+03 0.  0.
         24    2    3    3    0    0 -0.92827044064E+02 -0.30540338749E+02  0.14927463714E+03  0.19555922161E+03  0.80068217552E+02 0.  0.
         -6    2    1    2    0  502  0.13823843206E+03 -0.82598633717E+01  0.11016842576E+04  0.11229933868E+04  0.16801146947E+03 0.  0.
        -24    2    5    5    0    0  0.59239466013E+02 -0.30379224610E+02  0.86848788955E+03  0.87574303016E+03  0.90677610018E+02 0.  0.
          5    1    3    3  501    0 -0.45411387997E+02  0.38800202121E+02  0.29877445190E+03  0.30472268204E+03  0.47000000000E+01 0. -1.
        -11    1    4    4    0    0  0.36389118077E+01  0.62807463198E+00 -0.77891990946E+01  0.86201960200E+01  0.00000000000E+00 0.  1.
         12    1    4    4    0    0 -0.96465955872E+02 -0.31168413381E+02  0.15706383624E+03  0.18693902559E+03  0.00000000000E+00 0. -1.
         -5    1    5    5    0  502  0.78998966049E+02  0.22119361238E+02  0.23319636803E+03  0.24725035661E+03  0.47000000000E+01 0.  1.
         11    1    6    6    0    0  0.69325061805E+02  0.83001425482E+01  0.63863678452E+03  0.64244205895E+03  0.00000000000E+00 0. -1.
        -12    1    6    6    0    0 -0.10085595792E+02 -0.38679367158E+02  0.22985110502E+03  0.23330097121E+03  0.00000000000E+00 0.  1.
</event>
<event>
12    1  0.8691829E-002  0.1820112E+03  0.7818608E-02  0.1166119E+00
         21   -1    0    0  503  502  0.00000000000E+00  0.00000000000E+00  0.56038356203E+02  0.56038356203E+02  0.00000000000E+00 0.  1.
         21   -1    0    0  501  503 -0.00000000000E+00 -0.00000000000E+00 -0.59791078907E+03  0.59791078907E+03  0.00000000000E+00 0.  1.
          6    2    1    2  501    0 -0.30873383133E+02 -0.47296768325E+02 -0.31422698868E+03  0.36313449724E+03  0.17302575700E+03 0.  0.
         24    2    3    3    0    0 -0.77120261259E+02 -0.42789552542E+02 -0.28173104271E+03  0.30623840567E+03  0.81431567459E+02 0.  0.
         -6    2    1    2    0  502  0.30873383133E+02  0.47296768325E+02 -0.22764544418E+03  0.29081464804E+03  0.17193185038E+03 0.  0.
        -24    2    5    5    0    0  0.65629777964E+02  0.26852093065E+02 -0.69063400391E+02  0.12711875212E+03  0.79756637394E+02 0.  0.
          5    1    3    3  501    0  0.46246878126E+02 -0.45072157830E+01 -0.32495945973E+02  0.56896091563E+02  0.47000000000E+01 0. -1.
        -11    1    4    4    0    0 -0.58777682424E+01 -0.47648167753E+02 -0.12882599292E+03  0.13748102597E+03  0.00000000000E+00 0.  1.
         12    1    4    4    0    0 -0.71242493016E+02  0.48586152108E+01 -0.15290504979E+03  0.16875737970E+03  0.00000000000E+00 0. -1.
         -5    1    5    5    0  502 -0.34756394831E+02  0.20444675260E+02 -0.15858204379E+03  0.16369589592E+03  0.47000000000E+01 0.  1.
         11    1    6    6    0    0 -0.79494254477E+01 -0.18452511222E+02 -0.99159595144E+01  0.22405686520E+02  0.00000000000E+00 0. -1.
        -12    1    6    6    0    0  0.73579203412E+02  0.45304604286E+02 -0.59147440876E+02  0.10471306560E+03  0.00000000000E+00 0.  1.
</event>
<event>
12    1  0.8691829E-002  0.2291910E+03  0.7818608E-02  0.1127261E+00
         21   -1    0    0  501  502  0.00000000000E+00  0.00000000000E+00  0.23525065764E+03  0.23525065764E+03  0.00000000000E+00 0. -1.
         21   -1    0    0  502  503 -0.00000000000E+00 -0.00000000000E+00 -0.23122645465E+03  0.23122645465E+03  0.00000000000E+00 0. -1.
         -6    2    1    2    0  503  0.94054767903E+02 -0.11636264116E+03 -0.41949769973E+02  0.23299847203E+03  0.17361434602E+03 0.  0.
        -24    2    3    3    0    0  0.74121218883E+02 -0.12379745730E+03 -0.84672562403E+02  0.18504067953E+03  0.79062283893E+02 0.  0.
          6    2    1    2  501    0 -0.94054767903E+02  0.11636264116E+03  0.45973972962E+02  0.23347864026E+03  0.17324002322E+03 0.  0.
         24    2    5    5    0    0 -0.39167569880E+02  0.13924289497E+03  0.53478514416E+02  0.17335777313E+03  0.79185122789E+02 0.  0.
          5    1    5    5  501    0 -0.54887198022E+02 -0.22880253815E+02 -0.75045414543E+01  0.60120867125E+02  0.47000000000E+01 0. -1.
        -11    1    6    6    0    0  0.23962554260E+02  0.47553467735E+02  0.12195381997E+02  0.54628414240E+02  0.00000000000E+00 0.  1.
         12    1    6    6    0    0 -0.63130124140E+02  0.91689427235E+02  0.41283132420E+02  0.11872935889E+03  0.00000000000E+00 0. -1.
         -5    1    3    3    0  503  0.19933549020E+02  0.74348161495E+01  0.42722792430E+02  0.47957792492E+02  0.47000000000E+01 0.  1.
         11    1    4    4    0    0  0.69613524305E+02 -0.58471005754E+02 -0.20163547969E+02  0.93120727804E+02  0.00000000000E+00 0. -1.
        -12    1    4    4    0    0  0.45076945780E+01 -0.65326451551E+02 -0.64509014434E+02  0.91919951729E+02  0.00000000000E+00 0.  1.
</event>
<event>
12    1  0.8691829E-002  0.2444461E+03  0.7818608E-02  0.1117417E+00
         21   -1    0    0  501  502  0.00000000000E+00  0.00000000000E+00  0.10630964711E+04  0.10630964711E+04  0.00000000000E+00 0. -1.
         21   -1    0    0  502  503 -0.00000000000E+00 -0.00000000000E+00 -0.73567857651E+02  0.73567857651E+02  0.00000000000E+00 0. -1.
         -6    2    1    2    0  503  0.17017932035E+03  0.56024606960E+01  0.21004434079E+03  0.31974961994E+03  0.17067163125E+03 0.  0.
        -24    2    3    3    0    0  0.12957678298E+03  0.63326343537E+02  0.11086290292E+03  0.19793147553E+03  0.78012289326E+02 0.  0.
          6    2    1    2  501    0 -0.17017932035E+03 -0.56024606960E+01  0.77948427268E+03  0.81691470883E+03  0.17538962771E+03 0.  0.
         24    2    5    5    0    0 -0.15664578594E+02  0.12492382676E+02  0.35485391765E+03  0.36465896570E+03  0.81568497294E+02 0.  0.
          5    1    5    5  501    0 -0.15451474176E+03 -0.18094843372E+02  0.42463035503E+03  0.45225574313E+03  0.47000000000E+01 0. -1.
        -11    1    6    6    0    0 -0.18839896910E+02 -0.30242639720E+02  0.22787935598E+03  0.23064812996E+03  0.00000000000E+00 0.  1.
         12    1    6    6    0    0  0.31753183161E+01  0.42735022396E+02  0.12697456166E+03  0.13401083574E+03  0.00000000000E+00 0. -1.
         -5    1    3    3    0  503  0.40602537367E+02 -0.57723882841E+02  0.99181437862E+02  0.12181814441E+03  0.47000000000E+01 0.  1.
         13    1    4    4    0    0  0.10074008422E+03  0.73946872376E+01  0.70189588651E+02  0.12300335086E+03  0.00000000000E+00 0. -1.
        -14    1    4    4    0    0  0.28836698759E+02  0.55931656299E+02  0.40673314272E+02  0.74928124663E+02  0.00000000000E+00 0.  1.
</event>
<event>
12    1  0.8691829E-002  0.1953199E+03  0.7818608E-02  0.1153820E+00
         21   -1    0    0  501  502  0.00000000000E+00  0.00000000000E+00  0.21543198442E+03  0.21543198442E+03  0.00000000000E+00 0. -1.
         21   -1    0    0  502  503 -0.00000000000E+00 -0.00000000000E+00 -0.18334292214E+03  0.18334292214E+03  0.00000000000E+00 0.  1.
         -6    2    1    2    0  503 -0.82461038192E+02  0.37081232120E+02 -0.21644160608E+02  0.19651549923E+03  0.17313298690E+03 0.  0.
        -24    2    3    3    0    0 -0.86252131935E+02  0.44137570800E+02  0.42211219677E+02  0.13198826546E+03  0.79066805500E+02 0.  0.
          6    2    1    2  501    0  0.82461038192E+02 -0.37081232120E+02  0.53733222889E+02  0.20225940733E+03  0.17276217183E+03 0.  0.
         24    2    5    5    0    0 -0.23560035959E+02 -0.35095556425E+02  0.23362058814E+02  0.91856016625E+02  0.78134298634E+02 0.  0.
          5    1    5    5  501    0  0.10602107415E+03 -0.19856756953E+01  0.30371164075E+02  0.11040339071E+03  0.47000000000E+01 0. -1.
        -11    1    6    6    0    0 -0.35026796564E+01 -0.24891855064E+02 -0.26881308287E+02  0.36803232854E+02  0.00000000000E+00 0.  1.
         12    1    6    6    0    0 -0.20057356303E+02 -0.10203701361E+02  0.50243367101E+02  0.55052783771E+02  0.00000000000E+00 0. -1.
         -5    1    3    3    0  503  0.37910937432E+01 -0.70563386795E+01 -0.63855380285E+02  0.64527233775E+02  0.47000000000E+01 0.  1.
         11    1    4    4    0    0 -0.40862128555E+02 -0.17021399851E+02  0.33121969160E+02  0.55285680279E+02  0.00000000000E+00 0. -1.
        -12    1    4    4    0    0 -0.45390003381E+02  0.61158970650E+02  0.90892505169E+01  0.76702585177E+02  0.00000000000E+00 0.  1.
</event>
<event>
12    1  0.8691829E-002  0.2059076E+03  0.7818608E-02  0.1145048E+00
         21   -1    0    0  501  502  0.00000000000E+00  0.00000000000E+00  0.58390965108E+03  0.58390965108E+03  0.00000000000E+00 0.  1.
         21   -1    0    0  502  503 -0.00000000000E+00 -0.00000000000E+00 -0.72505817711E+02  0.72505817711E+02  0.00000000000E+00 0. -1.
         -6    2    1    2    0  503  0.87686459459E+02 -0.67787458484E+02  0.23615001724E+03  0.31266758763E+03  0.17236628154E+03 0.  0.
        -24    2    3    3    0    0  0.54178940376E+02 -0.11075944004E+03  0.19458846937E+03  0.24397408506E+03  0.80347188077E+02 0.  0.
          6    2    1    2  501    0 -0.87686459459E+02  0.67787458484E+02  0.27525381612E+03  0.34374788116E+03  0.17353353512E+03 0.  0.
         24    2    5    5    0    0 -0.10202618322E+03  0.84488039054E+01  0.24028842175E+03  0.27323992126E+03  0.80254623524E+02 0.  0.
          5    1    5    5  501    0  0.14339723759E+02  0.59338654578E+02  0.34965394376E+02  0.70507959895E+02  0.47000000000E+01 0. -1.
        -11    1    6    6    0    0 -0.13954117796E+02  0.12334910058E+02  0.13336858520E+03  0.13466271543E+03  0.00000000000E+00 0.  1.
         12    1    6    6    0    0 -0.88072065422E+02 -0.38861061523E+01  0.10691983655E+03  0.13857720583E+03  0.00000000000E+00 0. -1.
         -5    1    3    3    0  503  0.33507519083E+02  0.42971981554E+02  0.41561547877E+02  0.68693502573E+02  0.47000000000E+01 0.  1.
         13    1    4    4    0    0 -0.18363644898E+02 -0.40737686990E+02  0.77485748284E+02  0.89447324065E+02  0.00000000000E+00 0. -1.
        -14    1    4    4    0    0  0.72542585274E+02 -0.70021753048E+02  0.11710272108E+03  0.15452676099E+03  0.00000000000E+00 0.  1.
</event>
<event>
12    1  0.8691829E-002  0.2146587E+03  0.7818608E-02  0.1138724E+00
         21   -1    0    0  501  502  0.00000000000E+00  0.00000000000E+00  0.22558654029E+03  0.22558654029E+03  0.00000000000E+00 0.  1.
         21   -1    0    0  502  503 -0.00000000000E+00 -0.00000000000E+00 -0.45088803042E+03  0.45088803042E+03  0.00000000000E+00 0. -1.
         -6    2    1    2    0  503  0.10923391414E+03  0.57580306721E+02 -0.36427401924E+03  0.42075650317E+03  0.17056650945E+03 0.  0.
        -24    2    3    3    0    0  0.12003460907E+03  0.63558838573E+02 -0.37303052409E+03  0.40490834141E+03  0.79692908749E+02 0.  0.
          6    2    1    2  501    0 -0.10923391414E+03 -0.57580306721E+02  0.13897252911E+03  0.25571806754E+03  0.17558709092E+03 0.  0.
         24    2    5    5    0    0 -0.60267096306E+02  0.14917166276E+02  0.13545916291E+03  0.16803644699E+03  0.77668642035E+02 0.  0.
          5    1    5    5  501    0 -0.48966817835E+02 -0.72497472996E+02  0.35133662015E+01  0.87681620547E+02  0.47000000000E+01 0. -1.
        -11    1    6    6    0    0 -0.45615280254E+01 -0.26058192974E+02  0.60612118857E+02  0.66133697245E+02  0.00000000000E+00 0.  1.
         12    1    6    6    0    0 -0.55705568280E+02  0.40975359249E+02  0.74847044049E+02  0.10190274975E+03  0.00000000000E+00 0. -1.
         -5    1    3    3    0  503 -0.10800694932E+02 -0.59785318520E+01  0.87565048467E+01  0.15848161762E+02  0.47000000000E+01 0.  1.
         11    1    4    4    0    0  0.95243078598E+02  0.91468933024E+01 -0.19714708560E+03  0.21913895828E+03  0.00000000000E+00 0. -1.
        -12    1    4    4    0    0  0.24791530474E+02  0.54411945270E+02 -0.17588343849E+03  0.18576938313E+03  0.00000000000E+00 0.  1.
</event>
<event>
12    1  0.8691829E-002  0.1753565E+03  0.7818608E-02  0.1172695E+00
         21   -1    0    0  501  502  0.00000000000E+00  0.00000000000E+00  0.34313275215E+02  0.34313275215E+02  0.00000000000E+00 0. -1.
         21   -1    0    0  502  503 -0.00000000000E+00 -0.00000000000E+00 -0.94800250865E+03  0.94800250865E+03  0.00000000000E+00 0. -1.
         -6    2    1    2    0  503 -0.28315310894E+02 -0.14484519038E+02 -0.58026965305E+03  0.60618706867E+03  0.17244806129E+03 0.  0.
        -24    2    3    3    0    0 -0.91896112022E+00 -0.43284518548E+02 -0.15350150823E+03  0.17754603074E+03  0.78009524865E+02 0.  0.
          6    2    1    2  501    0  0.28315310894E+02  0.14484519038E+02 -0.33341958038E+03  0.37612871520E+03  0.17115091496E+03 0.  0.
         24    2    5    5    0    0  0.50201649730E+02 -0.44426380970E+02 -0.13652920083E+03  0.16939841377E+03  0.74576745353E+02 0.  0.
          5    1    5    5  501    0 -0.21886338836E+02  0.58910900008E+02 -0.19689037956E+03  0.20673030143E+03  0.47000000000E+01 0. -1.
        -11    1    6    6    0    0  0.81795149310E+01  0.12417365652E+02 -0.72539316641E+02  0.74047605586E+02  0.00000000000E+00 0.  1.
         12    1    6    6    0    0  0.42022134799E+02 -0.56843746622E+02 -0.63989884186E+02  0.95350808183E+02  0.00000000000E+00 0. -1.
         -5    1    3    3    0  503 -0.27396349774E+02  0.28799999510E+02 -0.42676814483E+03  0.42864103792E+03  0.47000000000E+01 0.  1.
         11    1    4    4    0    0 -0.73602547350E+01 -0.91787310216E+00 -0.12688032985E+03  0.12709694703E+03  0.00000000000E+00 0. -1.
        -12    1    4    4    0    0  0.64412936148E+01 -0.42366645446E+02 -0.26621178377E+02  0.50449083718E+02  0.00000000000E+00 0.  1.
</event>
<event>
12    1  0.8691829E-002  0.2564392E+03  0.7818608E-02  0.1110298E+00
         21   -1    0    0  503  502  0.00000000000E+00  0.00000000000E+00  0.11214372212E+04  0.11214372212E+04  0.00000000000E+00 0. -1.
         21   -1    0    0  501  503 -0.00000000000E+00 -0.00000000000E+00 -0.76441719346E+02  0.76441719346E+02  0.00000000000E+00 0.  1.
          6    2    1    2  501    0 -0.63475749293E+02  0.17052474529E+03  0.21690376864E+03  0.33098968316E+03  0.17146155839E+03 0.  0.
         24    2    3    3    0    0 -0.43147349800E+02  0.13819831341E+03  0.70918989429E+02  0.18001985907E+03  0.80107296636E+02 0.  0.
         -6    2    1    2    0  502  0.63475749293E+02 -0.17052474529E+03  0.82809173324E+03  0.86688925741E+03  0.18070198243E+03 0.  0.
        -24    2    5    5    0    0 -0.33573282253E+02 -0.42378048838E+02  0.23897285830E+03  0.25621485223E+03  0.74933031399E+02 0.  0.
          5    1    3    3  501    0 -0.20328399493E+02  0.32326431877E+02  0.14598477921E+03  0.15096982409E+03  0.47000000000E+01 0. -1.
        -13    1    4    4    0    0 -0.36147965913E+02  0.51300407993E+02  0.68366811810E+02  0.92803169434E+02  0.00000000000E+00 0.  1.
         14    1    4    4    0    0 -0.69993838866E+01  0.86897905417E+02  0.25521776186E+01  0.87216689637E+02  0.00000000000E+00 0. -1.
         -5    1    5    5    0  502  0.97049031546E+02 -0.12814669645E+03  0.58911887494E+03  0.61067440519E+03  0.47000000000E+01 0.  1.
         11    1    6    6    0    0 -0.57681176074E+01 -0.55642156901E+02  0.19246001196E+03  0.20042499098E+03  0.00000000000E+00 0. -1.
        -12    1    6    6    0    0 -0.27805164646E+02  0.13264108062E+02  0.46512846332E+02  0.55789861244E+02  0.00000000000E+00 0.  1.
</event>
<event>
12    1  0.8691829E-002  0.1765548E+03  0.7818608E-02  0.1171263E+00
         21   -1    0    0  503  502  0.00000000000E+00  0.00000000000E+00  0.15509302822E+03  0.15509302822E+03  0.00000000000E+00 0. -1.
         21   -1    0    0  501  503 -0.00000000000E+00 -0.00000000000E+00 -0.25736515066E+03  0.25736515066E+03  0.00000000000E+00 0. -1.
          6    2    1    2  501    0  0.37295584615E+02 -0.47427788402E+01 -0.14802401214E+03  0.23039685329E+03  0.17250549920E+03 0.  0.
         24    2    3    3    0    0  0.81214677512E+02  0.31849029634E+01 -0.14765360030E+03  0.18551966460E+03  0.77524143472E+02 0.  0.
         -6    2    1    2    0  502 -0.37295584615E+02  0.47427788402E+01  0.45751889696E+02  0.18206132559E+03  0.17216165741E+03 0.  0.
        -24    2    5    5    0    0 -0.38434211416E+02 -0.53562001309E+01  0.96005329937E+02  0.13057555956E+03  0.79542918551E+02 0.  0.
          5    1    3    3  501    0 -0.43919092897E+02 -0.79276818035E+01 -0.37041183265E+00  0.44877188689E+02  0.47000000000E+01 0. -1.
        -11    1    4    4    0    0 -0.93987248538E+01  0.76630699337E+00 -0.55357874195E+02  0.56155297975E+02  0.00000000000E+00 0.  1.
         12    1    4    4    0    0  0.90613402366E+02  0.24185959700E+01 -0.92295726108E+02  0.12936436663E+03  0.00000000000E+00 0. -1.
         -5    1    5    5    0  502  0.11386268015E+01  0.10098978971E+02 -0.50253440241E+02  0.51485766026E+02  0.47000000000E+01 0.  1.
         11    1    6    6    0    0 -0.25210176131E+01  0.31097936081E+02  0.14659071002E+02  0.34472097716E+02  0.00000000000E+00 0. -1.
        -12    1    6    6    0    0 -0.35913193803E+02 -0.36454136212E+02  0.81346258935E+02  0.96103461846E+02  0.00000000000E+00 0.  1.
</event>
<event>
12    1  0.8691829E-002  0.1997863E+03  0.7818608E-02  0.1150375E+00
         21   -1    0    0  503  502  0.00000000000E+00  0.00000000000E+00  0.10785103320E+03  0.10785103320E+03  0.00000000000E+00 0. -1.
         21   -1    0    0  501  503 -0.00000000000E+00 -0.00000000000E+00 -0.37319514525E+03  0.37319514525E+03  0.00000000000E+00 0. -1.
          6    2    1    2  501    0  0.68562731502E+02  0.73542056482E+02 -0.16646509111E+03  0.26004844710E+03  0.17264207500E+03 0.  0.
         24    2    3    3    0    0 -0.26989623937E+02  0.27881928223E+02 -0.56795366080E+02  0.10752094620E+03  0.82638965035E+02 0.  0.
         -6    2    1    2    0  502 -0.68562731502E+02 -0.73542056482E+02 -0.98879020939E+02  0.22099773134E+03  0.17015773345E+03 0.  0.
        -24    2    5    5    0    0 -0.10531194023E+03 -0.86763665181E+02 -0.82036036668E+02  0.17820647759E+03  0.80056848513E+02 0.  0.
          5    1    3    3  501    0  0.95552355440E+02  0.45660128259E+02 -0.10966972503E+03  0.15252750090E+03  0.47000000000E+01 0. -1.
        -13    1    4    4    0    0 -0.13451687240E+02 -0.27880548970E+02 -0.33437240158E+02  0.45566675651E+02  0.00000000000E+00 0.  1.
         14    1    4    4    0    0 -0.13537936698E+02  0.55762477193E+02 -0.23358125922E+02  0.61954270550E+02  0.00000000000E+00 0. -1.
         -5    1    5    5    0  502  0.36749208723E+02  0.13221608699E+02 -0.16842984271E+02  0.42791253750E+02  0.47000000000E+01 0.  1.
         13    1    6    6    0    0 -0.10223362915E+03 -0.64477271182E+02 -0.34627118222E+02  0.12573015050E+03  0.00000000000E+00 0. -1.
        -14    1    6    6    0    0 -0.30783110709E+01 -0.22286393999E+02 -0.47408918446E+02  0.52476327089E+02  0.00000000000E+00 0.  1.
</event>
<event>
12    1  0.8691829E-002  0.1954840E+03  0.7818608E-02  0.1153642E+00
         21   -1    0    0  501  502  0.00000000000E+00  0.00000000000E+00  0.64951303870E+02  0.64951303870E+02  0.00000000000E+00 0. -1.
         21   -1    0    0  502  503 -0.00000000000E+00 -0.00000000000E+00 -0.68177077849E+03  0.68177077849E+03  0.00000000000E+00 0. -1.
         -6    2    1    2    0  503 -0.15912938257E+02  0.91963169831E+02 -0.44709580285E+03  0.48796379555E+03  0.17176601129E+03 0.  0.
        -24    2    3    3    0    0  0.58399496842E+02  0.45799939908E+02 -0.24590351018E+03  0.26852403061E+03  0.78284627929E+02 0.  0.
          6    2    1    2  501    0  0.15912938257E+02 -0.91963169831E+02 -0.16972367177E+03  0.25875828681E+03  0.17157878664E+03 0.  0.
         24    2    5    5    0    0 -0.47801453892E+02 -0.91950278983E+02 -0.12788240109E+03  0.18238875188E+03  0.78561539605E+02 0.  0.
          5    1    5    5  501    0  0.63714392149E+02 -0.12890848526E-01 -0.41841270687E+02  0.76369534932E+02  0.47000000000E+01 0. -1.
        -13    1    6    6    0    0 -0.21057027825E+02 -0.43663357533E+01 -0.71921135860E+02  0.75067390338E+02  0.00000000000E+00 0.  1.
         14    1    6    6    0    0 -0.26744426067E+02 -0.87583943229E+02 -0.55961265227E+02  0.10732136154E+03  0.00000000000E+00 0. -1.
         -5    1    3    3    0  503 -0.74312435099E+02  0.46163229923E+02 -0.20119229267E+03  0.21943976494E+03  0.47000000000E+01 0.  1.
         13    1    4    4    0    0  0.48136413888E+02  0.32538456715E+02 -0.24492963705E+03  0.25172682140E+03  0.00000000000E+00 0. -1.
        -14    1    4    4    0    0  0.10263082953E+02  0.13261483194E+02 -0.97387312397E+00  0.16797209204E+02  0.00000000000E+00 0.  1.
</event>
<event>
12    1  0.8691829E-002  0.2075288E+03  0.7818608E-02  0.1144102E+00
         21   -1    0    0  501  502  0.00000000000E+00  0.00000000000E+00  0.38600217176E+02  0.38600217176E+02  0.00000000000E+00 0.  1.
         21   -1    0    0  502  503 -0.00000000000E+00 -0.00000000000E+00 -0.12236408993E+04  0.12236408993E+04  0.00000000000E+00 0.  1.
         -6    2    1    2    0  503  0.96309962941E+01 -0.11235668229E+03 -0.78886706253E+03  0.81500321032E+03  0.17088654231E+03 0.  0.
        -24    2    3    3    0    0  0.74097129355E+02 -0.82329683313E+02 -0.49018147178E+03  0.50793208647E+03  0.73814414978E+02 0.  0.
          6    2    1    2  501    0 -0.96309962941E+01  0.11235668229E+03 -0.39617361961E+03  0.44723790617E+03  0.17421661143E+03 0.  0.
         24    2    5    5    0    0  0.28530255293E+02  0.15411479457E+02 -0.94208513724E+02  0.12777011649E+03  0.79990433444E+02 0.  0.
          5    1    5    5  501    0 -0.38161251587E+02  0.96945202831E+02 -0.30196510588E+03  0.31946778968E+03  0.47000000000E+01 0. -1.
        -13    1    6    6    0    0  0.14898342054E+00  0.45181371949E+02 -0.49054174176E+02  0.66691008175E+02  0.00000000000E+00 0.  1.
         14    1    6    6    0    0  0.28381271872E+02 -0.29769892492E+02 -0.45154339547E+02  0.61079108311E+02  0.00000000000E+00 0. -1.
         -5    1    3    3    0  503 -0.64466133061E+02 -0.30026998975E+02 -0.29868559075E+03  0.30707112385E+03  0.47000000000E+01 0.  1.
         13    1    4    4    0    0  0.60465853139E+02 -0.12998636898E+02 -0.20490445303E+03  0.21403485424E+03  0.00000000000E+00 0. -1.
        -14    1    4    4    0    0  0.13631276216E+02 -0.69331046415E+02 -0.28527701875E+03  0.29389723223E+03  0.00000000000E+00 0.  1.
</event>
<event>
12    1  0.8691829E-002  0.2280403E+03  0.7818608E-02  0.1128172E+00
         21   -1    0    0  501  502  0.00000000000E+00  0.00000000000E+00  0.10369537198E+03  0.10369537198E+03  0.00000000000E+00 0. -1.
         21   -1    0    0  502  503 -0.00000000000E+00 -0.00000000000E+00 -0.52896286364E+03  0.52896286364E+03  0.00000000000E+00 0.  1.
         -6    2    1    2    0  503  0.55387421726E+01  0.14891190539E+03 -0.28667627261E+03  0.36580642190E+03  0.17153897456E+03 0.  0.
        -24    2    3    3    0    0  0.28456985506E+02  0.15080341238E+03 -0.15550320813E+03  0.23254995294E+03  0.79666578062E+02 0.  0.
          6    2    1    2  501    0 -0.55387421726E+01 -0.14891190539E+03 -0.13859121905E+03  0.26685181372E+03  0.17261787641E+03 0.  0.
         24    2    5    5    0    0 -0.16470166728E+02 -0.17838276517E+03 -0.12545350583E+03  0.23246115906E+03  0.78790424830E+02 0.  0.
          5    1    5    5  501    0  0.10931424555E+02  0.29470859782E+02 -0.13137713221E+02  0.34390654657E+02  0.47000000000E+01 0. -1.
        -11    1    6    6    0    0 -0.19040735762E+02 -0.11361575076E+02  0.21232942405E+01  0.22274276307E+02  0.00000000000E+00 0.  1.
         12    1    6    6    0    0  0.25705690336E+01 -0.16702119009E+03 -0.12757680007E+03  0.21018688275E+03  0.00000000000E+00 0. -1.
         -5    1    3    3    0  503 -0.22918243334E+02 -0.18915069949E+01 -0.13117306447E+03  0.13325646896E+03  0.47000000000E+01 0.  1.
         11    1    4    4    0    0 -0.27269419342E+02  0.37153275097E+02 -0.47109775745E+02  0.65903854610E+02  0.00000000000E+00 0. -1.
        -12    1    4    4    0    0  0.55726404848E+02  0.11365013729E+03 -0.10839343239E+03  0.16664609833E+03  0.00000000000E+00 0.  1.
</event>
<event>
12    1  0.8691829E-002  0.1736976E+03  0.7818608E-02  0.1174222E+00
         21   -1    0    0  503  502  0.00000000000E+00  0.00000000000E+00  0.45039429012E+02  0.45039429012E+02  0.00000000000E+00 0. -1.
         21   -1    0    0  501  503 -0.00000000000E+00 -0.00000000000E+00 -0.74380200113E+03  0.74380200113E+03  0.00000000000E+00 0. -1.
          6    2    1    2  501    0 -0.61970322718E+01  0.24773830529E+02 -0.47657357221E+03  0.50724079049E+03  0.17181008097E+03 0.  0.
         24    2    3    3    0    0 -0.25454078367E+02  0.16802606334E+02 -0.47833558410E+03  0.48580323173E+03  0.79180876897E+02 0.  0.
         -6    2    1    2    0  502  0.61970322718E+01 -0.24773830529E+02 -0.22218899991E+03  0.28160063966E+03  0.17111055690E+03 0.  0.
        -24    2    5    5    0    0 -0.40228866416E+01  0.27484606451E+02 -0.21075200850E+03  0.22693542448E+03  0.79446148975E+02 0.  0.
          5    1    3    3  501    0  0.19257046095E+02  0.79712241949E+01  0.17620118881E+01  0.21437558755E+02  0.47000000000E+01 0. -1.
        -13    1    4    4    0    0 -0.25210508828E+02 -0.27181662360E+02 -0.29213856468E+03  0.29448149942E+03  0.00000000000E+00 0.  1.
         14    1    4    4    0    0 -0.24356953869E+00  0.43984268693E+02 -0.18619701941E+03  0.19132173232E+03  0.00000000000E+00 0. -1.
         -5    1    5    5    0  502  0.10219918913E+02 -0.52258436980E+02 -0.11436991415E+02  0.54665215181E+02  0.47000000000E+01 0.  1.
         13    1    6    6    0    0 -0.24422676986E+02  0.20077878708E+02 -0.26058392009E+02  0.40971064896E+02  0.00000000000E+00 0. -1.
        -14    1    6    6    0    0  0.20399790344E+02  0.74067277428E+01 -0.18469361649E+03  0.18596435958E+03  0.00000000000E+00 0.  1.
</event>
<event>
12    1  0.8691829E-002  0.1886074E+03  0.7818608E-02  0.1159856E+00
         21   -1    0    0  501  502  0.00000000000E+00  0.00000000000E+00  0.90103879309E+02  0.90103879309E+02  0.00000000000E+00 0.  1.
         21   -1    0    0  502  503 -0.00000000000E+00 -0.00000000000E+00 -0.39372005533E+03  0.39372005533E+03  0.00000000000E+00 0. -1.
         -6    2    1    2    0  503 -0.75868451285E+02  0.95678612086E+01 -0.15611157063E+03  0.24438630591E+03  0.17177391584E+03 0.  0.
        -24    2    3    3    0    0 -0.11347726845E+03  0.94200709961E+01 -0.15169306989E+03  0.20622797629E+03  0.80952841574E+02 0.  0.
          6    2    1    2  501    0  0.75868451285E+02 -0.95678612086E+01 -0.14750460539E+03  0.23943762873E+03  0.17240998687E+03 0.  0.
         24    2    5    5    0    0 -0.25123852272E+02 -0.10292199781E+02 -0.45736182421E+02  0.95984249691E+02  0.79900190719E+02 0.  0.
          5    1    5    5  501    0  0.10099230356E+03  0.72433857263E+00 -0.10176842297E+03  0.14345337904E+03  0.47000000000E+01 0. -1.
        -11    1    6    6    0    0  0.77157123340E+01  0.25439950295E+01  0.19890369012E+02  0.21485597664E+02  0.00000000000E+00 0.  1.
         12    1    6    6    0    0 -0.32839564606E+02 -0.12836194811E+02 -0.65626551433E+02  0.74498652027E+02  0.00000000000E+00 0. -1.
         -5    1    3    3    0  503  0.37608817169E+02  0.14779021249E+00 -0.44185007447E+01  0.38158329623E+02  0.47000000000E+01 0.  1.
         13    1    4    4    0    0  0.11739652786E+02 -0.40276325158E+01 -0.64427517277E+01  0.13983930815E+02  0.00000000000E+00 0. -1.
        -14    1    4    4    0    0 -0.12521692124E+03  0.13447703512E+02 -0.14525031816E+03  0.19224404547E+03  0.00000000000E+00 0.  1.
</event>
<event>
12    1  0.8691829E-002  0.2116748E+03  0.7818608E-02  0.1140601E+00
         21   -1    0    0  501  502  0.00000000000E+00  0.00000000000E+00  0.32790245981E+03  0.32790245981E+03  0.00000000000E+00 0.  1.
         21   -1    0    0  502  503 -0.00000000000E+00 -0.00000000000E+00 -0.17759506870E+03  0.17759506870E+03  0.00000000000E+00 0. -1.
         -6    2    1    2    0  503  0.11963387807E+03  0.17306823449E+02 -0.48166466550E+02  0.21532847217E+03  0.17156500665E+03 0.  0.
        -24    2    3    3    0    0  0.15203046297E+03 -0.43898876407E+01 -0.42596433070E+02  0.17566234987E+03  0.76878295166E+02 0.  0.
          6    2    1    2  501    0 -0.11963387807E+03 -0.17306823449E+02  0.19847385766E+03  0.29016905634E+03  0.17376541130E+03 0.  0.
         24    2    5    5    0    0 -0.77614595467E+02 -0.66749456172E+02  0.73597740164E+02  0.14936305944E+03  0.80082337881E+02 0.  0.
          5    1    5    5  501    0 -0.42019282599E+02  0.49442632723E+02  0.12487611749E+03  0.14080599689E+03  0.47000000000E+01 0. -1.
        -11    1    6    6    0    0 -0.48017387586E+02 -0.13890183389E+02  0.73372437267E+02  0.88781311410E+02  0.00000000000E+00 0.  1.
         12    1    6    6    0    0 -0.29597207881E+02 -0.52859272783E+02  0.22530289704E+00  0.60581748034E+02  0.00000000000E+00 0. -1.
         -5    1    3    3    0  503 -0.32396584901E+02  0.21696711090E+02 -0.55700334805E+01  0.39666122301E+02  0.47000000000E+01 0.  1.
         13    1    4    4    0    0  0.35379374136E+02  0.11942749881E+02 -0.44201114919E+02  0.57862491729E+02  0.00000000000E+00 0. -1.
        -14    1    4    4    0    0  0.11665108883E+03 -0.16332637522E+02  0.16046818492E+01  0.11779985814E+03  0.00000000000E+00 0.  1.
</event>
<event>
12    1  0.8691829E-002  0.1780018E+03  0.7818608E-02  0.1170220E+00
         21   -1    0    0  503  502  0.00000000000E+00  0.00000000000E+00  0.54239969917E+03  0.54239969917E+03  0.00000000000E+00 0.  1.
         21   -1    0    0  501  503 -0.00000000000E+00 -0.00000000000E+00 -0.15152523466E+03  0.15152523466E+03  0.00000000000E+00 0.  1.
          6    2    1    2  501    0 -0.17578987108E+01  0.39230644315E+02 -0.77047806613E+02  0.19396132924E+03  0.17361595282E+03 0.  0.
         24    2    3    3    0    0 -0.40090380321E+02  0.65667366814E+02 -0.93958485229E+02  0.14419848673E+03  0.77753231256E+02 0.  0.
         -6    2    1    2    0  502  0.17578987108E+01 -0.39230644315E+02  0.46792227113E+03  0.49996360460E+03  0.17166892685E+03 0.  0.
        -24    2    5    5    0    0  0.14602210931E+02 -0.10645635465E+02  0.45997376651E+03  0.46729331514E+03  0.80377996884E+02 0.  0.
          5    1    3    3  501    0  0.38332481610E+02 -0.26436722499E+02  0.16910678616E+02  0.49762842504E+02  0.47000000000E+01 0. -1.
        -13    1    4    4    0    0 -0.17173246648E+02  0.47374067759E+02 -0.51251896389E+01  0.50650668952E+02  0.00000000000E+00 0.  1.
         14    1    4    4    0    0 -0.22917133673E+02  0.18293299055E+02 -0.88833295590E+02  0.93547817780E+02  0.00000000000E+00 0. -1.
         -5    1    5    5    0  502 -0.12844312220E+02 -0.28585008851E+02  0.79485046189E+01  0.32670289455E+02  0.47000000000E+01 0.  1.
         11    1    6    6    0    0  0.14981928230E+02  0.11385413667E+02  0.22789539166E+02  0.29554169135E+02  0.00000000000E+00 0. -1.
        -12    1    6    6    0    0 -0.37971729960E+00 -0.22031049132E+02  0.43718422734E+03  0.43773914601E+03  0.00000000000E+00 0.  1.
</event>
<event>
12    1  0.8691829E-002  0.1790815E+03  0.7818608E-02  0.1168797E+00
         21   -1    0    0  501  502  0.00000000000E+00  0.00000000000E+00  0.40431928594E+03  0.40431928594E+03  0.00000000000E+00 0.  1.
         21   -1    0    0  502  503 -0.00000000000E+00 -0.00000000000E+00 -0.11046195707E+03  0.11046195707E+03  0.00000000000E+00 0.  1.
         -6    2    1    2    0  503  0.47501981399E+02  0.51721941548E+01  0.97322577425E+01  0.17892826600E+03  0.17215521399E+03 0.  0.
        -24    2    3    3    0    0  0.74681606500E+02 -0.33937889780E+02 -0.27653560422E+02  0.11819837150E+03  0.80479891333E+02 0.  0.
          6    2    1    2  501    0 -0.47501981399E+02 -0.51721941548E+01  0.28412507113E+03  0.33585297702E+03  0.17258903876E+03 0.  0.
         24    2    5    5    0    0 -0.78419155485E+02 -0.50347362748E+02  0.17407535193E+03  0.21285013881E+03  0.79489197760E+02 0.  0.
          5    1    5    5  501    0  0.30917174086E+02  0.45175168593E+02  0.11004971920E+03  0.12300283821E+03  0.47000000000E+01 0. -1.
        -13    1    6    6    0    0 -0.41572296377E+02 -0.49632541007E+02  0.16136076573E+03  0.17386472233E+03  0.00000000000E+00 0.  1.
         14    1    6    6    0    0 -0.36846859109E+02 -0.71482174039E+00  0.12714586199E+02  0.38985416485E+02  0.00000000000E+00 0. -1.
         -5    1    3    3    0  503 -0.27179625101E+02  0.39110083935E+02  0.37385818164E+02  0.60729894499E+02  0.47000000000E+01 0.  1.
         13    1    4    4    0    0  0.36640252524E+02 -0.25203256086E+02  0.26254985400E+02  0.51643358535E+02  0.00000000000E+00 0. -1.
        -14    1    4    4    0    0  0.38041353975E+02 -0.87346336941E+01 -0.53908545822E+02  0.66555012964E+02  0.00000000000E+00 0.  1.
</event>
<event>
12    1  0.8691829E-002  0.2075333E+03  0.7818608E-02  0.1144203E+00
         21   -1    0    0  501  502  0.00000000000E+00  0.00000000000E+00  0.51370790331E+02  0.51370790331E+02  0.00000000000E+00 0.  1.
         21   -1    0    0  502  503 -0.00000000000E+00 -0.00000000000E+00 -0.15147492811E+04  0.15147492811E+04  0.00000000000E+00 0. -1.
         -6    2    1    2    0  503 -0.55526157495E+02  0.94188503323E+02 -0.20653871888E+03  0.29279399232E+03  0.17639572335E+03 0.  0.
        -24    2    3    3    0    0 -0.62446375072E+02  0.46864626776E+02 -0.21666157091E+03  0.24368186717E+03  0.79641528599E+02 0.  0.
          6    2    1    2  501    0  0.55526157495E+02 -0.94188503323E+02 -0.12568397718E+04  0.12733260791E+04  0.17250641502E+03 0.  0.
         24    2    5    5    0    0 -0.68461730470E+01 -0.97425409876E+02 -0.57184218223E+03  0.58547102678E+03  0.78957338147E+02 0.  0.
          5    1    5    5  501    0  0.62372330542E+02  0.32369065529E+01 -0.68499758962E+03  0.68785505230E+03  0.47000000000E+01 0. -1.
        -13    1    6    6    0    0  0.17577084759E+02 -0.57187929326E+02 -0.15778316463E+03  0.16874519315E+03  0.00000000000E+00 0.  1.
         14    1    6    6    0    0 -0.24423257806E+02 -0.40237480550E+02 -0.41405901759E+03  0.41672583363E+03  0.00000000000E+00 0. -1.
         -5    1    3    3    0  503  0.69202175775E+01  0.47323876548E+02  0.10122852031E+02  0.49112125143E+02  0.47000000000E+01 0.  1.
         13    1    4    4    0    0 -0.27665961405E+02  0.20287513286E+02 -0.18858200354E+03  0.19167723046E+03  0.00000000000E+00 0. -1.
        -14    1    4    4    0    0 -0.34780413667E+02  0.26577113490E+02 -0.28079567364E+02  0.52004636713E+02  0.00000000000E+00 0.  1.
</event>
<event>
12    1  0.8691829E-002  0.1799307E+03  0.7818608E-02  0.1167982E+00
         21   -1    0    0  503  502  0.00000000000E+00  0.00000000000E+00  0.47289142487E+02  0.47289142487E+02  0.00000000000E+00 0.  1.
         21   -1    0    0  501  503 -0.00000000000E+00 -0.00000000000E+00 -0.89422702222E+03  0.89422702222E+03  0.00000000000E+00 0.  1.
          6    2    1    2  501    0 -0.54320030749E+02  0.25036093744E+01 -0.65274907168E+03  0.67709408343E+03  0.17151709371E+03 0.  0.
         24    2    3    3    0    0 -0.87276851541E+01  0.23941251197E+02 -0.59118113858E+03  0.59740133063E+03  0.82120979169E+02 0.  0.
         -6    2    1    2    0  502  0.54320030749E+02 -0.25036093744E+01 -0.19418880805E+03  0.26442208127E+03  0.17103452895E+03 0.  0.
        -24    2    5    5    0    0 -0.30006958454E+02 -0.76508372904E+01 -0.58510093449E+02  0.10452105358E+03  0.80884279922E+02 0.  0.
          5    1    3    3  501    0 -0.45592345595E+02 -0.21437641823E+02 -0.61567933099E+02  0.79692752806E+02  0.47000000000E+01 0. -1.
        -13    1    4    4    0    0 -0.64254532214E+01  0.52794586904E+02 -0.46002841361E+03  0.46309253523E+03  0.00000000000E+00 0.  1.
         14    1    4    4    0    0 -0.23022319327E+01 -0.28853335706E+02 -0.13115272498E+03  0.13430879540E+03  0.00000000000E+00 0. -1.
         -5    1    5    5    0  502  0.84326989203E+02  0.51472279160E+01 -0.13567871460E+03  0.15990102770E+03  0.47000000000E+01 0.  1.
         11    1    6    6    0    0 -0.17021918853E+02 -0.12119470202E+02 -0.77960040785E+02  0.80711803590E+02  0.00000000000E+00 0. -1.
        -12    1    6    6    0    0 -0.12985039600E+02  0.44686329117E+01  0.19449947337E+02  0.23809249987E+02  0.00000000000E+00 0.  1.
</event>
<event>
12    1  0.8691829E-002  0.2147787E+03  0.7818608E-02  0.1138209E+00
         21   -1    0    0  503  502  0.00000000000E+00  0.00000000000E+00  0.30993969519E+03  0.30993969519E+03  0.00000000000E+00 0.  1.
         21   -1    0    0  501  503 -0.00000000000E+00 -0.00000000000E+00 -0.22070981589E+03  0.22070981589E+03  0.00000000000E+00 0. -1.
          6    2    1    2  501    0  0.87377849781E+02  0.86206442666E+02 -0.10832374709E+03  0.23883224700E+03  0.17389758087E+03 0.  0.
         24    2    3    3    0    0  0.23400782534E+02  0.11727459003E+03 -0.56460663792E+02  0.15068371142E+03  0.72227752575E+02 0.  0.
         -6    2    1    2    0  502 -0.87377849781E+02 -0.86206442666E+02  0.19755362640E+03  0.29181726408E+03  0.17624823665E+03 0.  0.
        -24    2    5    5    0    0  0.17182823121E+02 -0.13473128629E+02  0.10558697749E+03  0.13464530793E+03  0.80647222685E+02 0.  0.
          5    1    3    3  501    0  0.63977067246E+02 -0.31068147366E+02 -0.51863083301E+02  0.88148535573E+02  0.47000000000E+01 0. -1.
        -13    1    4    4    0    0 -0.17081622093E+02  0.61446313437E+02 -0.37530639592E+01  0.63886749310E+02  0.00000000000E+00 0.  1.
         14    1    4    4    0    0  0.40482404627E+02  0.55828276595E+02 -0.52707599833E+02  0.86796962113E+02  0.00000000000E+00 0. -1.
         -5    1    5    5    0  502 -0.10456067290E+03 -0.72733314038E+02  0.91966648913E+02  0.15717195615E+03  0.47000000000E+01 0.  1.
         11    1    6    6    0    0  0.14607966793E+02 -0.25029449402E+02  0.59364117719E+00  0.28986521714E+02  0.00000000000E+00 0. -1.
        -12    1    6    6    0    0  0.25748563280E+01  0.11556320774E+02  0.10499333631E+03  0.10565878621E+03  0.00000000000E+00 0.  1.
</event>
<event>
12    1  0.8691829E-002  0.2289868E+03  0.7818608E-02  0.1127538E+00
         21   -1    0    0  503  502  0.00000000000E+00  0.00000000000E+00  0.20063726897E+03  0.20063726897E+03  0.00000000000E+00 0. -1.
         21   -1    0    0  501  503 -0.00000000000E+00 -0.00000000000E+00 -0.27159376401E+03  0.27159376401E+03  0.00000000000E+00 0. -1.
          6    2    1    2  501    0  0.78387363098E+02  0.12798081849E+03 -0.83991680750E+02  0.24390484961E+03  0.17294884976E+03 0.  0.
         24    2    3    3    0    0 -0.18340781790E+02  0.10062810390E+03 -0.49770437131E+02  0.13761426431E+03  0.77447980977E+02 0.  0.
         -6    2    1    2    0  502 -0.78387363098E+02 -0.12798081849E+03  0.13035185708E+02  0.22832618338E+03  0.17157873223E+03 0.  0.
        -24    2    5    5    0    0 -0.74440006638E+02 -0.16065531924E+03  0.75249170745E+01  0.19462666287E+03  0.80445430776E+02 0.  0.
          5    1    3    3  501    0  0.96728144888E+02  0.27352714590E+02 -0.34221243619E+02  0.10629058530E+03  0.47000000000E+01 0. -1.
        -11    1    4    4    0    0 -0.35737721258E+02  0.22122643017E+02 -0.37393815200E+02  0.56257385915E+02  0.00000000000E+00 0.  1.
         12    1    4    4    0    0  0.17396939467E+02  0.78505460885E+02 -0.12376621931E+02  0.81356878394E+02  0.00000000000E+00 0. -1.
         -5    1    5    5    0  502 -0.39473564598E+01  0.32674500750E+02  0.55102686337E+01  0.33699520512E+02  0.47000000000E+01 0.  1.
         11    1    6    6    0    0 -0.24432654738E+02 -0.25225987082E+02 -0.29188210440E+02  0.45664610701E+02  0.00000000000E+00 0. -1.
        -12    1    6    6    0    0 -0.50007351901E+02 -0.13542933216E+03  0.36713127515E+02  0.14896205217E+03  0.00000000000E+00 0.  1.
</event>
